# vtk DataFile Version 5.1
vtk output
ASCII
DATASET POLYDATA
POINTS 1002 float
-5.85949 -0.261133 -4.2254 5.64242 0.267341 -3.54306 -5.67236 0.274911 4.54112 
5.45163 -0.251911 3.70106 0.389482 6.78906 -2.89324 0.173016 7.14608 3.35171 
-0.0553055 -6.94744 -3.07855 0.177272 -7.05728 3.23249 10.2068 4.95044 -0.327636 
-10.6713 4.75323 -0.521768 10.3343 -4.9465 -0.298981 -10.0057 -4.65091 -0.176448 
-4.85095 -0.268666 -4.27977 -3.73595 -0.258625 -4.29727 -2.54591 -0.239306 -4.25378 
-1.31405 -0.201183 -4.14851 -0.0572222 -0.121454 -4.01577 1.21152 -0.00909365 -3.88981 
2.45563 0.0942481 -3.77967 3.62597 0.167498 -3.68638 4.69138 0.221406 -3.61034 
-5.52961 0.373366 -4.12073 -5.09948 1.06586 -3.97121 -4.56756 1.80301 -3.78076 
-3.9382 2.56753 -3.56079 -3.21723 3.34825 -3.33141 -2.42808 4.13241 -3.12445 
-1.62767 4.89151 -2.97952 -0.877968 5.5951 -2.91668 -0.206632 6.22944 -2.90813 
-5.5169 -0.906423 -4.34272 -5.09026 -1.61309 -4.43012 -4.57427 -2.37792 -4.46183 
-3.97704 -3.18043 -4.43112 -3.32213 -3.9753 -4.34732 -2.63648 -4.71595 -4.20897 
-1.94368 -5.38413 -4.00292 -1.26867 -5.98103 -3.73123 -0.634806 -6.50415 -3.41554 
-6.66639 0.165901 -4.09822 -7.52106 0.665065 -3.94886 -8.3719 1.21504 -3.75269 
-9.15605 1.7807 -3.48 -9.85182 2.36462 -3.14963 -10.4613 3.00143 -2.80061 
-10.9177 3.65874 -2.39993 -11.1055 4.21516 -1.87241 -10.9942 4.57676 -1.21791 
-6.63551 -0.640312 -4.21476 -7.41904 -1.05781 -4.1519 -8.18369 -1.5216 -4.02991 
-8.90598 -2.03629 -3.83669 -9.53418 -2.59226 -3.52654 -9.98955 -3.15999 -3.03686 
-10.2301 -3.691 -2.36208 -10.2817 -4.13213 -1.58761 -10.1943 -4.45151 -0.832347 
5.37332 0.914712 -3.57468 5.02856 1.61738 -3.59772 4.60431 2.35874 -3.62171 
4.09704 3.11726 -3.6397 3.51306 3.86683 -3.63251 2.87805 4.5829 -3.5943 
2.22553 5.2486 -3.52354 1.5814 5.84857 -3.39556 0.964526 6.36521 -3.18319 
5.28193 -0.405157 -3.53553 4.83546 -1.13145 -3.49474 4.30766 -1.89708 -3.40555 
3.71425 -2.68761 -3.28365 3.07084 -3.49335 -3.17617 2.39289 -4.2992 -3.12212 
1.71089 -5.07355 -3.12402 1.06391 -5.78271 -3.15106 0.474517 -6.4092 -3.15176 
6.4165 0.71696 -3.49308 7.22137 1.21424 -3.42113 8.03128 1.74966 -3.31975 
8.83427 2.32766 -3.19408 9.60523 2.96533 -3.03417 10.25 3.63858 -2.77 
10.6355 4.2452 -2.31614 10.7066 4.67272 -1.68121 10.5272 4.8907 -0.977873 
6.36137 -0.111552 -3.45981 7.11157 -0.54375 -3.33239 7.85883 -1.03341 -3.15577 
8.56464 -1.57204 -2.94271 9.21221 -2.14597 -2.70868 9.79075 -2.75913 -2.43638 
10.2429 -3.40863 -2.0691 10.4863 -4.03836 -1.56475 10.4985 -4.56564 -0.949003 
-4.71068 0.277641 4.66173 -3.653 0.260737 4.73187 -2.50822 0.232455 4.73898 
-1.28994 0.193835 4.68602 -0.028792 0.13499 4.58782 1.22603 0.0504638 4.45143 
2.42683 -0.0491093 4.27772 3.5425 -0.14243 4.08015 4.55426 -0.211494 3.88235 
-5.35015 0.945021 4.69167 -4.9354 1.67408 4.80355 -4.42105 2.45297 4.8594 
-3.81027 3.27011 4.86082 -3.12438 4.10075 4.81306 -2.40418 4.90038 4.69566 
-1.69293 5.62038 4.47403 -1.01864 6.23255 4.14716 -0.394581 6.73626 3.75726 
-5.34753 -0.385707 4.45822 -4.93788 -1.10299 4.35579 -4.44581 -1.86659 4.22259 
-3.87191 -2.66854 4.05254 -3.21216 -3.49803 3.86035 -2.48189 -4.32791 3.67818 
-1.7358 -5.11921 3.53703 -1.03482 -5.8444 3.44075 -0.400842 -6.49294 3.35465 
-6.43541 0.669666 4.4837 -7.22634 1.08419 4.36503 -8.01222 1.51239 4.12136 
-8.76654 1.96755 3.69384 -9.45015 2.4608 3.08993 -10.0055 2.97162 2.38319 
-10.3999 3.47161 1.63869 -10.6397 3.95205 0.882916 -10.7315 4.39458 0.145689 
-6.43706 -0.160393 4.31543 -7.2432 -0.652674 4.0155 -8.04294 -1.18022 3.64979 
-8.7675 -1.7261 3.21568 -9.36806 -2.29202 2.71082 -9.83342 -2.87496 2.16237 
-10.1482 -3.44049 1.6044 -10.277 -3.94051 1.03486 -10.2134 -4.34561 0.437124 
5.12148 0.425934 3.67329 4.71933 1.17195 3.66451 4.24629 1.97054 3.67673 
3.70386 2.79823 3.68818 3.10142 3.63782 3.67436 2.4677 4.47047 3.64252 
1.84111 5.26123 3.61642 1.2465 5.97728 3.58648 0.690351 6.60666 3.50897 
5.19317 -0.909485 3.83282 4.8597 -1.62788 3.93677 4.44314 -2.39909 3.99991 
3.94165 -3.20729 4.03138 3.36488 -4.01789 4.04705 2.73091 -4.78652 4.03868 
2.06148 -5.48486 3.97084 1.38832 -6.10222 3.81079 0.750967 -6.62892 3.55562 
6.12815 0.14352 3.4884 6.83303 0.586295 3.23511 7.54841 1.07068 2.94203 
8.2519 1.60225 2.60568 8.91099 2.1845 2.23094 9.47636 2.79577 1.83004 
9.89449 3.4018 1.39376 10.141 3.97971 0.888944 10.2333 4.50727 0.30313 
6.17412 -0.685105 3.61948 6.92547 -1.1601 3.52763 7.6874 -1.68497 3.37445 
8.4444 -2.25862 3.10184 9.15567 -2.85495 2.69189 9.74938 -3.43172 2.17685 
10.172 -3.95597 1.59468 10.4102 -4.40238 0.964492 10.4624 -4.73991 0.314945 
0.395407 7.35618 -2.60558 0.394753 7.92071 -2.15576 0.373024 8.42591 -1.54133 
0.322785 8.80433 -0.809362 0.265212 8.99328 -0.0160609 0.231517 8.94931 0.804259 
0.222734 8.67242 1.60965 0.215673 8.22197 2.33137 0.197645 7.6886 2.91453 
1.33558 7.06173 -3.03755 2.37135 7.27716 -3.10227 3.49393 7.38261 -3.02449 
4.68811 7.34826 -2.80602 5.91023 7.19358 -2.50961 7.07853 6.95081 -2.17075 
8.10907 6.61158 -1.76558 8.96607 6.1499 -1.28746 9.65882 5.57844 -0.787384 
-0.569004 6.81898 -2.57076 -1.65438 6.79063 -2.22113 -2.86343 6.71431 -1.89504 
-4.16125 6.63014 -1.6388 -5.48094 6.57339 -1.47441 -6.76146 6.49818 -1.37275 
-7.96704 6.28958 -1.25888 -9.05428 5.88823 -1.07512 -9.96575 5.3456 -0.820326 
1.06056 7.18219 3.04351 2.03381 7.15197 2.6826 3.09364 7.04442 2.2751 
4.22356 6.85963 1.83834 5.38263 6.60699 1.40795 6.52481 6.30649 1.01748 
7.61251 5.98795 0.669119 8.60828 5.66664 0.339187 9.47852 5.32775 0.00760838 
-0.714192 7.38841 3.36593 -1.71352 7.55315 3.28728 -2.81364 7.58599 3.09259 
-4.00381 7.44556 2.76629 -5.26684 7.12915 2.30856 -6.54519 6.68386 1.75403 
-7.75652 6.18648 1.1598 -8.85503 5.69564 0.567942 -9.83201 5.22305 0.000316787 
-0.0207682 -7.51653 -2.72265 0.0196351 -8.08665 -2.19748 0.0661088 -8.5878 -1.49741 
0.126425 -8.93287 -0.682371 0.199988 -9.05654 0.15441 0.257662 -8.94457 0.952595 
0.266832 -8.62812 1.69095 0.23469 -8.16394 2.34025 0.197209 -7.61959 2.85922 
0.853501 -7.01599 -2.78089 1.86995 -7.01267 -2.42777 3.00326 -6.93347 -2.04296 
4.22031 -6.80406 -1.6844 5.44512 -6.6612 -1.41223 6.62407 -6.50272 -1.22565 
7.74758 -6.27427 -1.0582 8.78434 -5.92706 -0.848462 9.66315 -5.46839 -0.587062 
-0.948037 -7.16837 -3.13642 -1.93996 -7.32119 -3.1003 -3.01099 -7.36787 -2.94762 
-4.1318 -7.27762 -2.68554 -5.27771 -7.05004 -2.34377 -6.41284 -6.71056 -1.94864 
-7.48341 -6.28033 -1.51247 -8.44864 -5.77403 -1.05086 -9.2926 -5.21883 -0.594566 
1.12603 -7.32373 3.26781 2.20288 -7.53159 3.2216 3.39025 -7.65231 3.07016 
4.63386 -7.6602 2.81263 5.86665 -7.52194 2.44289 7.02545 -7.21508 1.95089 
8.05773 -6.75872 1.36789 8.94422 -6.20051 0.764234 9.69889 -5.58475 0.199013 
-0.749235 -7.08448 2.95022 -1.77711 -7.04853 2.6232 -2.91241 -6.96405 2.28107 
-4.11676 -6.84119 1.93681 -5.31384 -6.6562 1.58329 -6.44934 -6.37688 1.22146 
-7.50823 -6.01041 0.866064 -8.47174 -5.58989 0.52068 -9.30906 -5.13462 0.174963 
10.9128 4.23673 -0.276506 11.5943 3.37439 -0.243629 12.1802 2.38133 -0.23071 
12.5786 1.28669 -0.239146 12.7187 0.121211 -0.281672 12.5887 -1.06735 -0.357388 
12.2259 -2.20917 -0.4255 11.6867 -3.24681 -0.439421 11.0346 -4.15916 -0.390276 
-11.5128 4.04034 -0.616497 -12.3002 3.20627 -0.654018 -12.9352 2.242 -0.599128 
-13.3026 1.17348 -0.457831 -13.3179 0.0585591 -0.29887 -12.9802 -1.04818 -0.19507 
-12.3744 -2.10769 -0.155846 -11.6179 -3.08078 -0.149793 -10.8081 -3.93254 -0.157572 
-4.43467 0.399272 -4.15586 -3.9253 1.12585 -3.99148 -3.24163 0.439791 -4.16742 
-3.32391 1.89292 -3.79653 -2.66029 1.19585 -4.00574 -1.98017 0.484186 -4.13293 
-2.63308 2.68538 -3.58534 -1.99238 1.99087 -3.81833 -1.32789 1.26675 -3.98661 
-0.676522 0.547554 -4.04663 -1.86572 3.497 -3.38269 -1.24887 2.81382 -3.62204 
-0.600076 2.09129 -3.81654 0.040113 1.35392 -3.9209 0.645379 0.647727 -3.93167 
-1.06779 4.30547 -3.22868 -0.464622 3.65095 -3.45532 0.169385 2.94209 -3.65137 
0.801985 2.19769 -3.78201 1.39971 1.46002 -3.82702 1.95211 0.758813 -3.81542 
-0.308081 5.06803 -3.15927 0.298253 4.45992 -3.36368 0.928152 3.78335 -3.53703 
1.55922 3.05067 -3.66782 2.15941 2.29352 -3.73003 2.70789 1.55144 -3.7337 
3.19909 0.840701 -3.71517 0.369948 5.75644 -3.16489 0.984878 5.19645 -3.35952 
1.62217 4.56084 -3.50083 2.26217 3.86069 -3.60558 2.8767 3.11305 -3.66627 
3.43661 2.3502 -3.67574 3.92764 1.60264 -3.65829 4.34676 0.887937 -3.63776 
-6.33355 0.85947 -3.98308 -7.17047 1.41997 -3.82342 -5.87264 1.60936 -3.81283 
-7.97569 2.02333 -3.60383 -6.66 2.22408 -3.62316 -5.28375 2.39825 -3.58489 
-8.69157 2.63412 -3.29952 -7.3953 2.86969 -3.36013 -5.99741 3.05332 -3.33987 
-4.57733 3.20513 -3.3149 -9.31038 3.27206 -2.9481 -8.03204 3.51851 -3.02213 
-6.6508 3.71966 -3.02012 -5.2036 3.87741 -3.0057 -3.76955 4.01156 -3.04088 
-9.81639 3.96098 -2.57235 -8.55821 4.20186 -2.6545 -7.20231 4.38565 -2.65488 
-5.7708 4.53581 -2.63956 -4.30856 4.67402 -2.68841 -2.90372 4.79684 -2.81401 
-10.1233 4.61578 -2.10959 -8.93667 4.90981 -2.24302 -7.6255 5.08586 -2.27208 
-6.23703 5.19457 -2.25815 -4.79707 5.30633 -2.30242 -3.3732 5.4325 -2.4507 
-2.0516 5.53683 -2.67257 -10.1606 5.09472 -1.50903 -9.10413 5.51298 -1.71768 
-7.88615 5.76895 -1.8226 -6.57195 5.87785 -1.85494 -5.19563 5.94136 -1.90788 
-3.80313 6.03582 -2.05839 -2.4733 6.1433 -2.3078 -1.26837 6.21449 -2.60909 
-9.04271 5.89336 -0.278941 -7.97399 6.4273 0.314765 -8.05451 6.50037 -0.529954 
-6.78627 6.94328 0.921884 -6.91496 7.06744 0.0621407 -6.90934 6.92637 -0.736107 
-5.51286 7.41367 1.49706 -5.67634 7.56904 0.640605 -5.72999 7.49832 -0.196063 
-5.66111 7.1355 -0.921333 -4.21864 7.78781 1.9923 -4.38933 7.98737 1.14911 
-4.47948 7.98897 0.296939 -4.46409 7.72552 -0.492769 -4.3492 7.22419 -1.14512 
-2.9724 8.01421 2.37886 -3.11592 8.2998 1.563 -3.21268 8.39412 0.710518 
-3.22703 8.24899 -0.116724 -3.15581 7.85443 -0.852539 -3.02609 7.29939 -1.44516 
-1.80963 8.06114 2.65676 -1.90525 8.46157 1.89267 -1.98174 8.68317 1.05622 
-2.00392 8.67329 0.213875 -1.95807 8.41147 -0.578897 -1.86927 7.9423 -1.26784 
[...]
POINT_DATA 1002
FIELD FieldData 4
_paraPhi 1 1002 double
6.2831853072 3.1415926536 6.2831853072 3.1415926536 4.7123889804 4.7123889804 1.5707963268 1.5707963268 3.6951670125 
5.7296109483 2.5880182947 0.5535743589 6.2831853072 6.2831853072 6.2831853072 6.2831853072 3.1415926536 3.1415926536 
3.1415926536 3.1415926536 3.1415926536 6.1053039672 5.898798347 5.6768734901 5.4599499503 5.2659633393 5.1032165617 
4.9713148346 4.8656852733 4.7809517865 0.17788134 0.38438696014 0.60631181711 0.82323535693 1.0172219679 1.1799687454 
1.3118704726 1.4175000338 1.5022335207 6.1892828907 6.1070320098 6.035312792 5.9728339911 5.9183214791 5.8706119594 
5.8286879411 5.7916808611 5.7588591896 0.093902416448 0.17615329733 0.2478725152 0.31035131605 0.36486382811 0.41257334776 
0.45449736604 0.4915044461 0.52432611754 3.3194739936 3.5259796137 3.7479044707 3.9648280105 4.1588146215 4.321561399 
4.4534631262 4.5590926874 4.6438261743 2.9637113136 2.7572056934 2.5352808365 2.3183572967 2.1243706857 1.9616239082 
1.829722181 1.7240926197 1.6393591329 3.23549507 3.3177459509 3.3894651688 3.4519439696 3.5064564817 3.5541660013 
3.5960900196 3.6330970997 3.6659187711 3.0476902371 2.9654393563 2.8937201384 2.8312413375 2.7767288255 2.7290193058 
2.6870952876 2.6500882075 2.617266536 6.2831853072 6.2831853072 6.2831853072 6.2831853072 3.1415926536 3.1415926536 
3.1415926536 3.1415926536 3.1415926536 6.1053039672 5.898798347 5.6768734901 5.4599499503 5.2659633393 5.1032165617 
4.9713148346 4.8656852733 4.7809517865 0.17788134 0.38438696014 0.60631181711 0.82323535693 1.0172219679 1.1799687454 
1.3118704726 1.4175000338 1.5022335207 6.1892828907 6.1070320098 6.035312792 5.9728339911 5.9183214791 5.8706119594 
5.8286879411 5.7916808611 5.7588591896 0.093902416448 0.17615329733 0.2478725152 0.31035131605 0.36486382811 0.41257334776 
0.45449736604 0.4915044461 0.52432611754 3.3194739936 3.5259796137 3.7479044707 3.9648280105 4.1588146215 4.321561399 
4.4534631262 4.5590926874 4.6438261743 2.9637113136 2.7572056934 2.5352808365 2.3183572967 2.1243706857 1.9616239082 
1.829722181 1.7240926197 1.6393591329 3.23549507 3.3177459509 3.3894651688 3.4519439696 3.5064564817 3.5541660013 
3.5960900196 3.6330970997 3.6659187711 3.0476902371 2.9654393563 2.8937201384 2.8312413375 2.7767288255 2.7290193058 
2.6870952876 2.6500882075 2.617266536 4.7123889804 4.7123889804 4.7123889804 4.7123889804 4.7123889804 4.7123889804 
4.7123889804 4.7123889804 4.7123889804 4.6087898617 4.4991390697 4.3857031936 4.2712800401 4.1588146215 4.0509635631 
3.94975894 3.8564636551 3.7716124825 4.8159880991 4.9256388911 5.0390747672 5.1534979207 5.2659633393 5.3738143976 
5.4750190208 5.5683143056 5.6531654782 4.6087898617 4.4991390697 4.3857031936 4.2712800401 4.1588146215 4.0509635631 
3.94975894 3.8564636551 3.7716124825 4.8159880991 4.9256388911 5.0390747672 5.1534979207 5.2659633393 5.3738143976 
5.4750190208 5.5683143056 5.6531654782 1.5707963268 1.5707963268 1.5707963268 1.5707963268 1.5707963268 1.5707963268 
1.5707963268 1.5707963268 1.5707963268 1.6743954455 1.7840462375 1.8974821136 2.0119052671 2.1243706857 2.232221744 
2.3334263672 2.426721652 2.5115728246 1.4671972081 1.3575464161 1.24411054 1.1296873865 1.0172219679 0.90937090954 
0.80816628637 0.71487100155 0.63001982895 1.6743954455 1.7840462375 1.8974821136 2.0119052671 2.1243706857 2.232221744 
2.3334263672 2.426721652 2.5115728246 1.4671972081 1.3575464161 1.24411054 1.1296873865 1.0172219679 0.90937090954 
0.80816628637 0.71487100155 0.63001982895 3.6007720849 3.4966939854 3.3839471039 3.2645756454 3.1415926536 3.0186096618 
2.8992382033 2.7864913217 2.6824132222 5.8240058758 5.9280839753 6.0408308569 6.1602023154 6.2831853072 0.12298299178 
0.2423544503 0.35510133185 0.45917943135 6.0560271438 5.7885595667 5.9702140275 5.5125918794 5.6029703303 5.7885595667 
5.2659633393 5.2659633393 5.2659633393 5.2659633393 5.0674903122 5.0120975802 4.9155579264 4.7123889804 4.1588146215 
4.9155579264 4.8353719722 4.7123889804 4.5092200343 4.1588146215 3.6362183941 4.8004512023 4.7123889804 4.5894059886 
4.4126803806 4.1588146215 3.8218076305 3.4545639333 4.7123889804 4.6243267584 4.5092200343 4.3572876485 4.1588146215 
3.9121860814 3.6362183941 3.368750817 6.0174235957 5.9434319871 5.8263323547 5.8809213739 5.7674481418 5.6279784266 
5.8278025282 5.718968232 5.5891129425 5.4372443565 5.7823484065 5.678536687 5.5575666702 5.4192596322 5.2659633393 
5.743164462 5.6444075337 5.5314983644 5.4046708639 5.2659633393 5.1195510325 5.7091357773 5.6152775188 5.5096229709 
5.3926039573 5.2659633393 5.1329233157 4.9978930058 5.6793730533 5.5901633916 5.4910209005 5.3824597928 5.2659633393 
5.1440684722 5.0201624502 4.8979782167 5.5683143056 5.4750190208 5.4750190208 5.3738143976 5.3738143976 5.3738143976 
5.2659633393 5.2659633393 5.2659633393 5.2659633393 5.1534979207 5.1534979207 5.1534979207 5.1534979207 5.1534979207 
5.0390747672 5.0390747672 5.0390747672 5.0390747672 5.0390747672 5.0390747672 4.9256388911 4.9256388911 4.9256388911 
4.9256388911 4.9256388911 4.9256388911 4.9256388911 4.8159880991 4.8159880991 4.8159880991 4.8159880991 4.8159880991 
4.8159880991 4.8159880991 4.8159880991 4.6087898617 4.6087898617 4.4991390697 4.6087898617 4.4991390697 4.3857031936 
4.6087898617 4.4991390697 4.3857031936 4.2712800401 4.6087898617 4.4991390697 4.3857031936 4.2712800401 4.1588146215 
4.6087898617 4.4991390697 4.3857031936 4.2712800401 4.1588146215 4.0509635631 4.6087898617 4.4991390697 4.3857031936 
4.2712800401 4.1588146215 4.0509635631 3.94975894 4.6087898617 4.4991390697 4.3857031936 4.2712800401 4.1588146215 
4.0509635631 3.94975894 3.8564636551 4.526799744 4.4046155105 4.426884955 4.2807094886 4.2918546451 4.3052269283 
4.1588146215 4.1588146215 4.1588146215 4.1588146215 4.042318168 4.0321740035 4.0201070968 4.0055183285 3.9875336042 
3.9337570603 3.9151549899 3.8932795963 3.8672112905 3.8356650183 3.7967995342 3.8346145692 3.809500442 3.7803704271 
3.7462412737 3.7058097288 3.657329819 3.5984456061 3.7454049075 3.7156421835 3.6816134988 3.6424295543 3.5969754326 
3.5438565869 3.4813459737 3.4073543651 3.5642842451 3.4524645613 3.5233842518 3.3320300872 3.403123212 3.4773852225 
3.20576226 3.2746326772 3.348015857 3.4255060145 3.0774230472 3.1415926536 3.2112816139 3.2864685043 3.3668817272 
2.95115522 3.00855263 3.0719036933 3.1415926536 3.2178377658 3.3005964304 2.8307207459 2.8800620952 2.9351694502 
2.9967168029 3.0653475414 3.1415926536 3.225752376 2.718901062 2.7598010554 2.8058000847 2.8576792927 2.91630358 
2.9825888767 3.0574329311 3.1415926536 3.5642842451 3.5233842518 3.4524645613 3.4773852225 3.403123212 3.3320300872 
3.4255060145 3.348015857 3.2746326772 3.20576226 3.3668817272 3.2864685043 3.2112816139 3.1415926536 3.0774230472 
3.3005964304 3.2178377658 3.1415926536 3.0719036933 3.00855263 2.95115522 3.225752376 3.1415926536 3.0653475414 
2.9967168029 2.9351694502 2.8800620952 2.8307207459 3.1415926536 3.0574329311 2.9825888767 2.91630358 2.8576792927 
2.8058000847 2.7598010554 2.718901062 4.526799744 4.426884955 4.4046155105 4.3052269283 4.2918546451 4.2807094886 
4.1588146215 4.1588146215 4.1588146215 4.1588146215 3.9875336042 4.0055183285 4.0201070968 4.0321740035 4.042318168 
3.7967995342 3.8356650183 3.8672112905 3.8932795963 3.9151549899 3.9337570603 3.5984456061 3.657329819 3.7058097288 
3.7462412737 3.7803704271 3.809500442 3.8346145692 3.4073543651 3.4813459737 3.5438565869 3.5969754326 3.6424295543 
3.6816134988 3.7156421835 3.7454049075 4.7123889804 4.8004512023 4.6243267584 4.9155579264 4.7123889804 4.5092200343 
5.0674903122 4.8353719722 4.5894059886 4.3572876485 5.2659633393 5.0120975802 4.7123889804 4.4126803806 4.1588146215 
5.5125918794 5.2659633393 4.9155579264 4.5092200343 4.1588146215 3.9121860814 5.7885595667 5.6029703303 5.2659633393 
4.7123889804 4.1588146215 3.8218076305 3.6362183941 6.0560271438 5.9702140275 5.7885595667 5.2659633393 4.1588146215 
3.6362183941 3.4545639333 3.368750817 0.22715816343 0.49462574053 0.3129712797 0.77059342779 0.68021497688 0.49462574053 
1.0172219679 1.0172219679 1.0172219679 1.0172219679 1.2156949949 1.271087727 1.3676273807 1.5707963268 2.1243706857 
1.3676273807 1.447813335 1.5707963268 1.7739652728 2.1243706857 2.6469669131 1.4827341049 1.5707963268 1.6937793186 
1.8705049266 2.1243706857 2.4613776767 2.8286213739 1.5707963268 1.6588585487 1.7739652728 1.9258976586 2.1243706857 
2.3709992258 2.6469669131 2.9144344902 1.7563855631 1.8785697967 1.8563003522 2.0024758186 1.9913306621 1.9779583789 
2.1243706857 2.1243706857 2.1243706857 2.1243706857 2.2408671392 2.2510113037 2.2630782103 2.2776669786 2.295651703 
2.3494282469 2.3680303173 2.3899057108 2.4159740166 2.4475202889 2.486385773 2.448570738 2.4736848652 2.5028148801 
2.5369440334 2.5773755784 2.6258554882 2.6847397011 2.5377803997 2.5675431237 2.6015718084 2.6407557529 2.6862098746 
2.7393287203 2.8018393335 2.8758309421 1.6743954455 1.6743954455 1.7840462375 1.6743954455 1.7840462375 1.8974821136 
1.6743954455 1.7840462375 1.8974821136 2.0119052671 1.6743954455 1.7840462375 1.8974821136 2.0119052671 2.1243706857 
1.6743954455 1.7840462375 1.8974821136 2.0119052671 2.1243706857 2.232221744 1.6743954455 1.7840462375 1.8974821136 
2.0119052671 2.1243706857 2.232221744 2.3334263672 1.6743954455 1.7840462375 1.8974821136 2.0119052671 2.1243706857 
2.232221744 2.3334263672 2.426721652 1.4671972081 1.3575464161 1.4671972081 1.24411054 1.3575464161 1.4671972081 
1.1296873865 1.24411054 1.3575464161 1.4671972081 1.0172219679 1.1296873865 1.24411054 1.3575464161 1.4671972081 
0.90937090954 1.0172219679 1.1296873865 1.24411054 1.3575464161 1.4671972081 0.80816628637 0.90937090954 1.0172219679 
1.1296873865 1.24411054 1.3575464161 1.4671972081 0.71487100155 0.80816628637 0.90937090954 1.0172219679 1.1296873865 
1.24411054 1.3575464161 1.4671972081 0.60381225391 0.57404952988 0.69302191562 0.54002084522 0.66790778838 0.79216440667 
0.50083690068 0.63877777351 0.77356233629 0.90072551443 0.45538277901 0.60464862014 0.75168694275 0.89058134991 1.0172219679 
0.40226393329 0.56421707518 0.72561863695 0.87851444325 1.0172219679 1.139116835 0.33975332011 0.51573716537 0.69407236469 
0.86392567495 1.0172219679 1.1502619915 1.2630228569 0.26576171152 0.45685295248 0.6552068806 0.84594095064 1.0172219679 
1.1636342747 1.2852923014 1.3852070904 0.22715816343 0.3129712797 0.49462574053 0.49462574053 0.68021497688 0.77059342779 
1.0172219679 1.0172219679 1.0172219679 1.0172219679 2.1243706857 1.5707963268 1.3676273807 1.271087727 1.2156949949 
2.6469669131 2.1243706857 1.7739652728 1.5707963268 1.447813335 1.3676273807 2.8286213739 2.4613776767 2.1243706857 
1.8705049266 1.6937793186 1.5707963268 1.4827341049 2.9144344902 2.6469669131 2.3709992258 2.1243706857 1.9258976586 
1.7739652728 1.6588585487 1.5707963268 1.7563855631 1.8563003522 1.8785697967 1.9779583789 1.9913306621 2.0024758186 
2.1243706857 2.1243706857 2.1243706857 2.1243706857 2.295651703 2.2776669786 2.2630782103 2.2510113037 2.2408671392 
2.486385773 2.4475202889 2.4159740166 2.3899057108 2.3680303173 2.3494282469 2.6847397011 2.6258554882 2.5773755784 
2.5369440334 2.5028148801 2.4736848652 2.448570738 2.8758309421 2.8018393335 2.7393287203 2.6862098746 2.6407557529 
2.6015718084 2.5675431237 2.5377803997 5.8604937156 5.901393709 5.9723133995 5.9473927383 6.0216547488 6.0927478736 
5.9992719463 6.0767621038 6.1501452836 6.2190157008 6.0578962336 6.1383094565 6.2134963469 0 0.064169606361 
6.1241815303 6.206940195 6.2831853072 0.069688960264 0.13304002361 0.19043743361 6.1990255847 0 0.07624511221 
0.14487585072 0.20642320337 0.26153055843 0.3108719077 0 0.084159722458 0.15900377685 0.22528907359 0.28391336087 
0.3357925689 0.38179159818 0.42269159155 5.8604937156 5.9723133995 5.901393709 6.0927478736 6.0216547488 5.9473927383 
6.2190157008 6.1501452836 6.0767621038 5.9992719463 0.064169606361 0 6.2134963469 6.1383094565 6.0578962336 
0.19043743361 0.13304002361 0.069688960264 6.2831853072 6.206940195 6.1241815303 0.3108719077 0.26153055843 0.20642320337 
0.14487585072 0.07624511221 6.2831853072 6.1990255847 0.42269159155 0.38179159818 0.3357925689 0.28391336087 0.22528907359 
0.15900377685 0.084159722458 0 5.6793730533 5.7091357773 5.5901633916 5.743164462 5.6152775188 5.4910209005 
5.7823484065 5.6444075337 5.5096229709 5.3824597928 5.8278025282 5.678536687 5.5314983644 5.3926039573 5.2659633393 
5.8809213739 5.718968232 5.5575666702 5.4046708639 5.2659633393 5.1440684722 5.9434319871 5.7674481418 5.5891129425 
5.4192596322 5.2659633393 5.1329233157 5.0201624502 6.0174235957 5.8263323547 5.6279784266 5.4372443565 5.2659633393 
5.1195510325 4.9978930058 4.8979782167 1.3852070904 1.2852923014 1.2630228569 1.1636342747 1.1502619915 1.139116835 
1.0172219679 1.0172219679 1.0172219679 1.0172219679 0.84594095064 0.86392567495 0.87851444325 0.89058134991 0.90072551443 
0.6552068806 0.69407236469 0.72561863695 0.75168694275 0.77356233629 0.79216440667 0.45685295248 0.51573716537 0.56421707518 
0.60464862014 0.63877777351 0.66790778838 0.69302191562 0.26576171152 0.33975332011 0.40226393329 0.45538277901 0.50083690068 
0.54002084522 0.57404952988 0.60381225391 
_paraPhiHalf 1 1002 double
0 3.1415926536 0 3.1415926536 1.5707963268 1.5707963268 1.5707963268 1.5707963268 2.5880182947 
0.5535743589 2.5880182947 0.5535743589 0 0 0 0 3.1415926536 3.1415926536 
3.1415926536 3.1415926536 3.1415926536 0.17788134 0.38438696014 0.60631181711 0.82323535693 1.0172219679 1.1799687454 
1.3118704726 1.4175000338 1.5022335207 0.17788134 0.38438696014 0.60631181711 0.82323535693 1.0172219679 1.1799687454 
1.3118704726 1.4175000338 1.5022335207 0.093902416448 0.17615329733 0.2478725152 0.31035131605 0.36486382811 0.41257334776 
0.45449736604 0.4915044461 0.52432611754 0.093902416448 0.17615329733 0.2478725152 0.31035131605 0.36486382811 0.41257334776 
0.45449736604 0.4915044461 0.52432611754 2.9637113136 2.7572056934 2.5352808365 2.3183572967 2.1243706857 1.9616239082 
1.829722181 1.7240926197 1.6393591329 2.9637113136 2.7572056934 2.5352808365 2.3183572967 2.1243706857 1.9616239082 
1.829722181 1.7240926197 1.6393591329 3.0476902371 2.9654393563 2.8937201384 2.8312413375 2.7767288255 2.7290193058 
2.6870952876 2.6500882075 2.617266536 3.0476902371 2.9654393563 2.8937201384 2.8312413375 2.7767288255 2.7290193058 
2.6870952876 2.6500882075 2.617266536 0 0 0 0 3.1415926536 3.1415926536 
3.1415926536 3.1415926536 3.1415926536 0.17788134 0.38438696014 0.60631181711 0.82323535693 1.0172219679 1.1799687454 
1.3118704726 1.4175000338 1.5022335207 0.17788134 0.38438696014 0.60631181711 0.82323535693 1.0172219679 1.1799687454 
1.3118704726 1.4175000338 1.5022335207 0.093902416448 0.17615329733 0.2478725152 0.31035131605 0.36486382811 0.41257334776 
0.45449736604 0.4915044461 0.52432611754 0.093902416448 0.17615329733 0.2478725152 0.31035131605 0.36486382811 0.41257334776 
0.45449736604 0.4915044461 0.52432611754 2.9637113136 2.7572056934 2.5352808365 2.3183572967 2.1243706857 1.9616239082 
1.829722181 1.7240926197 1.6393591329 2.9637113136 2.7572056934 2.5352808365 2.3183572967 2.1243706857 1.9616239082 
1.829722181 1.7240926197 1.6393591329 3.0476902371 2.9654393563 2.8937201384 2.8312413375 2.7767288255 2.7290193058 
2.6870952876 2.6500882075 2.617266536 3.0476902371 2.9654393563 2.8937201384 2.8312413375 2.7767288255 2.7290193058 
2.6870952876 2.6500882075 2.617266536 1.5707963268 1.5707963268 1.5707963268 1.5707963268 1.5707963268 1.5707963268 
1.5707963268 1.5707963268 1.5707963268 1.6743954455 1.7840462375 1.8974821136 2.0119052671 2.1243706857 2.232221744 
2.3334263672 2.426721652 2.5115728246 1.4671972081 1.3575464161 1.24411054 1.1296873865 1.0172219679 0.90937090954 
0.80816628637 0.71487100155 0.63001982895 1.6743954455 1.7840462375 1.8974821136 2.0119052671 2.1243706857 2.232221744 
2.3334263672 2.426721652 2.5115728246 1.4671972081 1.3575464161 1.24411054 1.1296873865 1.0172219679 0.90937090954 
0.80816628637 0.71487100155 0.63001982895 1.5707963268 1.5707963268 1.5707963268 1.5707963268 1.5707963268 1.5707963268 
1.5707963268 1.5707963268 1.5707963268 1.6743954455 1.7840462375 1.8974821136 2.0119052671 2.1243706857 2.232221744 
2.3334263672 2.426721652 2.5115728246 1.4671972081 1.3575464161 1.24411054 1.1296873865 1.0172219679 0.90937090954 
0.80816628637 0.71487100155 0.63001982895 1.6743954455 1.7840462375 1.8974821136 2.0119052671 2.1243706857 2.232221744 
2.3334263672 2.426721652 2.5115728246 1.4671972081 1.3575464161 1.24411054 1.1296873865 1.0172219679 0.90937090954 
0.80816628637 0.71487100155 0.63001982895 2.6824132222 2.7864913217 2.8992382033 3.0186096618 3.1415926536 3.0186096618 
2.8992382033 2.7864913217 2.6824132222 0.45917943135 0.35510133185 0.2423544503 0.12298299178 0 0.12298299178 
0.2423544503 0.35510133185 0.45917943135 0.22715816343 0.49462574053 0.3129712797 0.77059342779 0.68021497688 0.49462574053 
1.0172219679 1.0172219679 1.0172219679 1.0172219679 1.2156949949 1.271087727 1.3676273807 1.5707963268 2.1243706857 
1.3676273807 1.447813335 1.5707963268 1.7739652728 2.1243706857 2.6469669131 1.4827341049 1.5707963268 1.6937793186 
1.8705049266 2.1243706857 2.4613776767 2.8286213739 1.5707963268 1.6588585487 1.7739652728 1.9258976586 2.1243706857 
2.3709992258 2.6469669131 2.9144344902 0.26576171152 0.33975332011 0.45685295248 0.40226393329 0.51573716537 0.6552068806 
0.45538277901 0.56421707518 0.69407236469 0.84594095064 0.50083690068 0.60464862014 0.72561863695 0.86392567495 1.0172219679 
0.54002084522 0.63877777351 0.75168694275 0.87851444325 1.0172219679 1.1636342747 0.57404952988 0.66790778838 0.77356233629 
0.89058134991 1.0172219679 1.1502619915 1.2852923014 0.60381225391 0.69302191562 0.79216440667 0.90072551443 1.0172219679 
1.139116835 1.2630228569 1.3852070904 0.71487100155 0.80816628637 0.80816628637 0.90937090954 0.90937090954 0.90937090954 
1.0172219679 1.0172219679 1.0172219679 1.0172219679 1.1296873865 1.1296873865 1.1296873865 1.1296873865 1.1296873865 
1.24411054 1.24411054 1.24411054 1.24411054 1.24411054 1.24411054 1.3575464161 1.3575464161 1.3575464161 
1.3575464161 1.3575464161 1.3575464161 1.3575464161 1.4671972081 1.4671972081 1.4671972081 1.4671972081 1.4671972081 
1.4671972081 1.4671972081 1.4671972081 1.6743954455 1.6743954455 1.7840462375 1.6743954455 1.7840462375 1.8974821136 
1.6743954455 1.7840462375 1.8974821136 2.0119052671 1.6743954455 1.7840462375 1.8974821136 2.0119052671 2.1243706857 
1.6743954455 1.7840462375 1.8974821136 2.0119052671 2.1243706857 2.232221744 1.6743954455 1.7840462375 1.8974821136 
2.0119052671 2.1243706857 2.232221744 2.3334263672 1.6743954455 1.7840462375 1.8974821136 2.0119052671 2.1243706857 
2.232221744 2.3334263672 2.426721652 1.7563855631 1.8785697967 1.8563003522 2.0024758186 1.9913306621 1.9779583789 
2.1243706857 2.1243706857 2.1243706857 2.1243706857 2.2408671392 2.2510113037 2.2630782103 2.2776669786 2.295651703 
2.3494282469 2.3680303173 2.3899057108 2.4159740166 2.4475202889 2.486385773 2.448570738 2.4736848652 2.5028148801 
2.5369440334 2.5773755784 2.6258554882 2.6847397011 2.5377803997 2.5675431237 2.6015718084 2.6407557529 2.6862098746 
2.7393287203 2.8018393335 2.8758309421 2.718901062 2.8307207459 2.7598010554 2.95115522 2.8800620952 2.8058000847 
3.0774230472 3.00855263 2.9351694502 2.8576792927 3.0774230472 3.1415926536 3.0719036933 2.9967168029 2.91630358 
2.95115522 3.00855263 3.0719036933 3.1415926536 3.0653475414 2.9825888767 2.8307207459 2.8800620952 2.9351694502 
2.9967168029 3.0653475414 3.1415926536 3.0574329311 2.718901062 2.7598010554 2.8058000847 2.8576792927 2.91630358 
2.9825888767 3.0574329311 3.1415926536 2.718901062 2.7598010554 2.8307207459 2.8058000847 2.8800620952 2.95115522 
2.8576792927 2.9351694502 3.00855263 3.0774230472 2.91630358 2.9967168029 3.0719036933 3.1415926536 3.0774230472 
2.9825888767 3.0653475414 3.1415926536 3.0719036933 3.00855263 2.95115522 3.0574329311 3.1415926536 3.0653475414 