# vtk DataFile Version 5.1
vtk output
ASCII
DATASET POLYDATA
POINTS 1002 float
-6.64575 -0.29537 -4.98696 6.20473 0.346385 -3.29392 -6.47653 0.357044 5.19704 
5.98235 -0.403024 3.14334 0.60411 7.53552 -2.90576 0.422923 8.25689 3.83316 
0.0827905 -7.98203 -3.42728 0.419295 -7.93609 3.47651 11.6646 5.84622 -0.527065 
-12.2711 5.18622 -0.722535 11.2461 -5.53995 0.189681 -11.0315 -5.00961 -0.220843 
-5.48356 -0.350323 -5.09879 -4.19944 -0.375497 -5.10878 -2.85211 -0.377965 -4.9646 
-1.49236 -0.351399 -4.68448 -0.117227 -0.263924 -4.33518 1.28807 -0.111007 -3.97193 
2.67967 0.054009 -3.65243 3.98369 0.181868 -3.4402 5.16032 0.27255 -3.34012 
-6.31081 0.405781 -4.82037 -5.84902 1.17202 -4.58383 -5.25652 1.98131 -4.27349 
-4.54002 2.8097 -3.89717 -3.70289 3.65504 -3.48572 -2.76631 4.51903 -3.10068 
-1.80406 5.36908 -2.82698 -0.904975 6.16133 -2.72853 -0.106064 6.88258 -2.78718 
-6.20315 -1.03946 -5.20545 -5.66438 -1.8611 -5.3812 -5.02941 -2.76556 -5.45537 
-4.31737 -3.72191 -5.40679 -3.56213 -4.65053 -5.25321 -2.78719 -5.48627 -5.00731 
-2.00664 -6.22878 -4.67143 -1.24843 -6.8968 -4.27026 -0.546642 -7.48467 -3.84586 
-7.60508 0.227382 -4.75549 -8.62453 0.829688 -4.52657 -9.6422 1.47727 -4.27821 
-10.5814 2.12926 -3.93638 -11.4212 2.79756 -3.50149 -12.1726 3.5183 -3.07525 
-12.7404 4.23177 -2.67515 -12.9491 4.78643 -2.17617 -12.7488 5.09101 -1.50138 
-7.49772 -0.678675 -4.94891 -8.34187 -1.09753 -4.8433 -9.15593 -1.56068 -4.67767 
-9.90966 -2.06244 -4.42465 -10.5319 -2.58698 -4.00996 -10.9505 -3.1316 -3.38732 
-11.1673 -3.69304 -2.60331 -11.2359 -4.23113 -1.75879 -11.1882 -4.68297 -0.94458 
5.93549 1.08601 -3.2884 5.58537 1.88493 -3.28321 5.15447 2.72062 -3.31731 
4.63836 3.56817 -3.39809 4.0347 4.39503 -3.48213 3.35801 5.17016 -3.52503 
2.63908 5.88299 -3.50935 1.91693 6.5288 -3.4118 1.23049 7.08656 -3.20691 
5.78485 -0.432891 -3.31233 5.27318 -1.26951 -3.30599 4.67733 -2.15237 -3.24349 
4.0222 -3.07303 -3.1409 3.32938 -4.02249 -3.07891 2.61256 -4.97502 -3.12405 
1.90129 -5.88026 -3.2561 1.23487 -6.69064 -3.39688 0.630331 -7.38945 -3.46962 
7.07544 0.886207 -3.25901 7.99488 1.4876 -3.21937 8.94017 2.13132 -3.16915 
9.90459 2.82183 -3.12495 10.8631 3.5929 -3.07977 11.695 4.41923 -2.93466 
12.2133 5.15498 -2.56047 12.3222 5.64211 -1.94611 12.0905 5.84638 -1.21803 
6.9706 -0.0698794 -3.24067 7.75755 -0.533316 -3.12617 8.53052 -1.04815 -2.96924 
9.25467 -1.61992 -2.80449 9.92178 -2.24384 -2.61012 10.5264 -2.91373 -2.30822 
11.0079 -3.6228 -1.84546 11.2843 -4.33683 -1.23275 11.3438 -4.99381 -0.528114 
-5.36352 0.392145 5.27454 -4.15134 0.407935 5.25653 -2.85124 0.408562 5.10918 
-1.47422 0.388849 4.85594 -0.0504814 0.327557 4.57844 1.3597 0.205116 4.31766 
2.69317 0.0320573 4.03837 3.91518 -0.149217 3.72048 5.01359 -0.298146 3.40495 
-6.09152 1.12877 5.40634 -5.59414 1.96726 5.55417 -4.9727 2.85687 5.61355 
-4.22821 3.7837 5.60438 -3.39407 4.7267 5.55389 -2.53386 5.64293 5.43196 
-1.70291 6.47671 5.1785 -0.92672 7.19 4.78884 -0.215884 7.77813 4.32071 
-6.10637 -0.381581 5.03302 -5.63383 -1.17953 4.84675 -5.06014 -2.02926 4.61332 
-4.38652 -2.92443 4.30945 -3.60503 -3.85351 3.96321 -2.72749 -4.79236 3.66344 
-1.82473 -5.70211 3.4974 -0.986496 -6.54311 3.47018 -0.245916 -7.29121 3.49661 
-7.35945 0.781457 5.20775 -8.27437 1.22273 5.14651 -9.18553 1.66558 4.91681 
-10.0711 2.12741 4.43356 -10.8777 2.6361 3.71384 -11.5102 3.17604 2.8554 
-11.9285 3.70966 1.93077 -12.1784 4.23204 0.979496 -12.2973 4.7399 0.0675112 
-7.37265 -0.160361 4.93968 -8.32014 -0.736286 4.59709 -9.25346 -1.3402 4.18347 
-10.0749 -1.95151 3.68099 -10.7206 -2.57682 3.08015 -11.1907 -3.21866 2.4344 
-11.4806 -3.83454 1.79818 -11.5462 -4.35664 1.15486 -11.375 -4.74587 0.474264 
5.57652 0.390065 3.1436 5.10398 1.27198 3.20837 4.57765 2.20849 3.32265 
4.00074 3.16743 3.44279 3.3752 4.1499 3.54152 2.72649 5.14498 3.64197 
2.09438 6.08841 3.77068 1.4999 6.9234 3.89232 0.943284 7.6446 3.92958 
5.75856 -1.12459 3.31092 5.45941 -1.90276 3.45394 5.0752 -2.73671 3.55362 
4.59864 -3.61627 3.63385 4.02895 -4.49853 3.73412 3.36928 -5.32922 3.85338 
2.62919 -6.09144 3.9372 1.84782 -6.79203 3.91638 1.09317 -7.4162 3.75615 
6.67301 0.00171281 2.88763 7.38403 0.462521 2.62402 8.10815 0.980413 2.36684 
8.85378 1.57626 2.10822 9.62115 2.26713 1.84052 10.3557 3.02723 1.56015 
10.959 3.80448 1.22763 11.3684 4.55951 0.773091 11.5913 5.25642 0.170082 
6.79185 -0.934763 3.0652 7.62393 -1.50935 3.0771 8.45441 -2.13775 3.12628 
9.28871 -2.82047 3.10353 10.1079 -3.52989 2.92483 10.8085 -4.20858 2.5818 
11.2752 -4.7857 2.10168 11.4802 -5.20401 1.50943 11.4573 -5.4463 0.847776 
0.659725 8.17323 -2.69885 0.71717 8.81244 -2.31139 0.739268 9.40654 -1.71174 
0.699391 9.89666 -0.935498 0.628162 10.2026 -0.0525987 0.581369 10.2384 0.884083 
0.563493 9.97521 1.82022 0.537096 9.4816 2.66739 0.485615 8.87683 3.345 
1.69663 7.90798 -3.2281 2.90252 8.23324 -3.4748 4.21851 8.42539 -3.52479 
5.62162 8.43789 -3.35948 7.05365 8.31336 -3.07312 8.40008 8.10356 -2.72492 
9.53972 7.7755 -2.27506 10.4356 7.27104 -1.7057 11.1291 6.60325 -1.09082 
-0.473559 7.5164 -2.47692 -1.70801 7.43217 -2.04086 -3.1149 7.30175 -1.67057 
-4.64867 7.19406 -1.43543 -6.19875 7.17315 -1.36859 -7.67924 7.16204 -1.40904 
-9.07239 6.96698 -1.41659 -10.3473 6.50054 -1.29533 -11.4289 5.86036 -1.0502 
1.37356 8.30307 3.41118 2.41012 8.24542 2.91828 3.54907 8.07287 2.36729 
4.78289 7.80665 1.79201 6.06702 7.47921 1.25466 7.35509 7.12983 0.807306 
8.61144 6.80742 0.44367 9.78311 6.52119 0.11706 10.811 6.21829 -0.20558 
-0.516389 8.50622 3.91733 -1.5845 8.63305 3.86562 -2.77402 8.57385 3.64167 
-4.09471 8.29815 3.2322 -5.55166 7.82726 2.6565 -7.0756 7.23299 1.97576 
-8.55047 6.62249 1.26322 -9.91844 6.08166 0.560238 -11.1712 5.61871 -0.112407 
0.130446 -8.62038 -3.02814 0.182066 -9.27985 -2.4378 0.240711 -9.87993 -1.64127 
0.321561 -10.2967 -0.698352 0.427062 -10.4267 0.272651 0.514376 -10.2522 1.17504 
0.532331 -9.83247 1.97368 0.48981 -9.2539 2.646 0.440818 -8.59943 3.15275 
1.04498 -8.0635 -3.0526 2.12197 -8.05881 -2.6209 3.33934 -7.96425 -2.1508 
4.65887 -7.79841 -1.69915 5.97494 -7.58206 -1.33047 7.22197 -7.31546 -1.04584 
8.41434 -6.97896 -0.778394 9.53724 -6.55919 -0.475031 10.5046 -6.06922 -0.141348 
-0.86561 -8.21588 -3.53403 -1.93046 -8.36853 -3.52337 -3.08105 -8.39197 -3.35916 
-4.27957 -8.24685 -3.05093 -5.50801 -7.93834 -2.65172 -6.74285 -7.4962 -2.20528 
-7.94008 -6.93799 -1.7192 -9.06841 -6.29647 -1.20259 -10.1096 -5.63631 -0.69066 
1.51912 -8.21692 3.5768 2.77944 -8.44247 3.58125 4.16892 -8.6253 3.48693 
5.59275 -8.75657 3.31283 6.9417 -8.742 3.02703 8.13787 -8.46485 2.57082 
9.14313 -7.91457 1.97072 9.96845 -7.1817 1.32995 10.6589 -6.3661 0.726982 
-0.645484 -7.99133 3.15084 -1.81891 -7.96082 2.76806 -3.124 -7.87617 2.38484 
-4.51723 -7.7685 2.02946 -5.87845 -7.59902 1.68279 -7.1192 -7.29108 1.32379 
-8.24755 -6.8286 0.952844 -9.28965 -6.2617 0.570441 -10.2277 -5.64405 0.176068 
12.4218 5.01543 -0.409849 13.1245 3.99407 -0.315561 13.6593 2.82106 -0.236996 
13.911 1.54829 -0.152275 13.8564 0.212933 -0.074022 13.5772 -1.13841 -0.0375824 
13.154 -2.43057 -0.0298569 12.6084 -3.60281 0.00250549 11.956 -4.63825 0.0822204 
-13.3315 4.45629 -0.82022 -14.3062 3.58975 -0.81991 -15.0577 2.56464 -0.676359 
-15.441 1.41613 -0.422326 -15.3688 0.208607 -0.190837 -14.867 -1.00839 -0.0946103 
-14.0552 -2.18301 -0.112988 -13.0746 -3.25394 -0.159344 -12.0401 -4.1921 -0.192859 
-5.03871 0.391283 -4.87843 -4.47875 1.19743 -4.58158 -3.66155 0.403752 -4.84626 
-3.80675 2.04142 -4.21917 -3.02138 1.2416 -4.51524 -2.23875 0.430133 -4.69243 
-3.02186 2.90898 -3.81292 -2.27601 2.11908 -4.12522 -1.51914 1.29701 -4.36316 
-0.798791 0.487665 -4.43073 -2.12773 3.80782 -3.41294 -1.42485 3.03846 -3.71157 
-0.693506 2.22134 -3.97926 0.00845703 1.39285 -4.12023 0.663261 0.61127 -4.09284 
-1.1785 4.71868 -3.10671 -0.501324 3.99287 -3.36453 0.206887 3.20298 -3.6114 
0.896747 2.36677 -3.78157 1.53273 1.54612 -3.80728 2.12489 0.779697 -3.73538 
-0.27275 5.58476 -2.98151 0.406594 4.92244 -3.19213 1.10968 4.18794 -3.38151 
1.7972 3.37858 -3.52534 2.42954 2.53167 -3.56257 3.00036 1.70888 -3.51204 
3.52163 0.927576 -3.46013 0.528283 6.37316 -3.04682 1.21699 5.76874 -3.23359 
1.93156 5.08978 -3.36082 2.63272 4.33576 -3.4415 3.28157 3.51106 -3.45191 
3.85683 2.65931 -3.39448 4.36127 1.82529 -3.33689 4.79888 1.02531 -3.32644 
-7.27388 0.992274 -4.59382 -8.2734 1.65467 -4.37277 -6.77742 1.81397 -4.35217 
-9.22976 2.34726 -4.10349 -7.71426 2.52032 -4.10141 -6.11314 2.66431 -4.00565 
-10.0795 3.03993 -3.71705 -8.58004 3.24361 -3.7618 -6.95808 3.39364 -3.67053 
-5.29666 3.52219 -3.56524 -10.8243 3.76825 -3.26721 -9.32837 3.97077 -3.32276 
-7.72409 4.12061 -3.23236 -6.03294 4.25196 -3.13011 -4.34302 4.38757 -3.09718 
-11.4395 4.54275 -2.84763 -9.94777 4.74393 -2.88637 -8.36215 4.85159 -2.77066 
-6.69123 4.9511 -2.63123 -4.96333 5.0968 -2.61277 -3.29897 5.25069 -2.70108 
-11.7883 5.23648 -2.39905 -10.3739 5.52971 -2.47556 -8.83001 5.63567 -2.37478 
-7.21031 5.66123 -2.19484 -5.51236 5.75569 -2.12761 -3.81824 5.92441 -2.24229 
-2.26194 6.07414 -2.46603 -11.7633 5.68616 -1.79772 -10.5073 6.16016 -1.9674 
-9.07287 6.40319 -1.96617 -7.54407 6.43539 -1.83273 -5.93322 6.43999 -1.73366 
-4.28065 6.54822 -1.81258 -2.70868 6.70988 -2.06594 -1.31377 6.83033 -2.41443 
-10.2228 6.39631 -0.414063 -8.86138 6.95636 0.298061 -9.0598 7.138 -0.646967 
-7.39287 7.53993 1.02657 -7.63072 7.75627 0.0701668 -7.7416 7.65233 -0.786593 
-5.85551 8.09652 1.71307 -6.11842 8.30417 0.761401 -6.28989 8.27348 -0.139084 
-6.31963 7.85381 -0.871649 -4.33297 8.57533 2.30767 -4.58117 8.76122 1.3511 
-4.78123 8.78626 0.425048 -4.86146 8.4923 -0.392215 -4.80603 7.88833 -1.00977 
-2.91919 8.94293 2.77915 -3.10065 9.16996 1.82575 -3.28168 9.24138 0.87192 
-3.37892 9.06746 -0.0121839 -3.35707 8.59386 -0.74571 -3.25505 7.94546 -1.28231 
-1.647 9.13808 3.11316 -1.74252 9.5035 2.20729 -1.86267 9.68117 1.24191 
-1.94135 9.61636 0.304079 -1.93019 9.26848 -0.534079 -1.86149 8.69969 -1.20566 
[...]
POINT_DATA 1002
FIELD FieldData 4
_paraPhi 1 1002 double
6.2831853072 3.1415926536 6.2831853072 3.1415926536 4.7123889804 4.7123889804 1.5707963268 1.5707963268 3.6951670125 
5.7296109483 2.5880182947 0.5535743589 6.2831853072 6.2831853072 6.2831853072 6.2831853072 3.1415926536 3.1415926536 
3.1415926536 3.1415926536 3.1415926536 6.1053039672 5.898798347 5.6768734901 5.4599499503 5.2659633393 5.1032165617 
4.9713148346 4.8656852733 4.7809517865 0.17788134 0.38438696014 0.60631181711 0.82323535693 1.0172219679 1.1799687454 
1.3118704726 1.4175000338 1.5022335207 6.1892828907 6.1070320098 6.035312792 5.9728339911 5.9183214791 5.8706119594 
5.8286879411 5.7916808611 5.7588591896 0.093902416448 0.17615329733 0.2478725152 0.31035131605 0.36486382811 0.41257334776 
0.45449736604 0.4915044461 0.52432611754 3.3194739936 3.5259796137 3.7479044707 3.9648280105 4.1588146215 4.321561399 
4.4534631262 4.5590926874 4.6438261743 2.9637113136 2.7572056934 2.5352808365 2.3183572967 2.1243706857 1.9616239082 
1.829722181 1.7240926197 1.6393591329 3.23549507 3.3177459509 3.3894651688 3.4519439696 3.5064564817 3.5541660013 
3.5960900196 3.6330970997 3.6659187711 3.0476902371 2.9654393563 2.8937201384 2.8312413375 2.7767288255 2.7290193058 
2.6870952876 2.6500882075 2.617266536 6.2831853072 6.2831853072 6.2831853072 6.2831853072 3.1415926536 3.1415926536 
3.1415926536 3.1415926536 3.1415926536 6.1053039672 5.898798347 5.6768734901 5.4599499503 5.2659633393 5.1032165617 
4.9713148346 4.8656852733 4.7809517865 0.17788134 0.38438696014 0.60631181711 0.82323535693 1.0172219679 1.1799687454 
1.3118704726 1.4175000338 1.5022335207 6.1892828907 6.1070320098 6.035312792 5.9728339911 5.9183214791 5.8706119594 
5.8286879411 5.7916808611 5.7588591896 0.093902416448 0.17615329733 0.2478725152 0.31035131605 0.36486382811 0.41257334776 
0.45449736604 0.4915044461 0.52432611754 3.3194739936 3.5259796137 3.7479044707 3.9648280105 4.1588146215 4.321561399 
4.4534631262 4.5590926874 4.6438261743 2.9637113136 2.7572056934 2.5352808365 2.3183572967 2.1243706857 1.9616239082 
1.829722181 1.7240926197 1.6393591329 3.23549507 3.3177459509 3.3894651688 3.4519439696 3.5064564817 3.5541660013 
3.5960900196 3.6330970997 3.6659187711 3.0476902371 2.9654393563 2.8937201384 2.8312413375 2.7767288255 2.7290193058 
2.6870952876 2.6500882075 2.617266536 4.7123889804 4.7123889804 4.7123889804 4.7123889804 4.7123889804 4.7123889804 
4.7123889804 4.7123889804 4.7123889804 4.6087898617 4.4991390697 4.3857031936 4.2712800401 4.1588146215 4.0509635631 
3.94975894 3.8564636551 3.7716124825 4.8159880991 4.9256388911 5.0390747672 5.1534979207 5.2659633393 5.3738143976 
5.4750190208 5.5683143056 5.6531654782 4.6087898617 4.4991390697 4.3857031936 4.2712800401 4.1588146215 4.0509635631 
3.94975894 3.8564636551 3.7716124825 4.8159880991 4.9256388911 5.0390747672 5.1534979207 5.2659633393 5.3738143976 
5.4750190208 5.5683143056 5.6531654782 1.5707963268 1.5707963268 1.5707963268 1.5707963268 1.5707963268 1.5707963268 
1.5707963268 1.5707963268 1.5707963268 1.6743954455 1.7840462375 1.8974821136 2.0119052671 2.1243706857 2.232221744 
2.3334263672 2.426721652 2.5115728246 1.4671972081 1.3575464161 1.24411054 1.1296873865 1.0172219679 0.90937090954 
0.80816628637 0.71487100155 0.63001982895 1.6743954455 1.7840462375 1.8974821136 2.0119052671 2.1243706857 2.232221744 
2.3334263672 2.426721652 2.5115728246 1.4671972081 1.3575464161 1.24411054 1.1296873865 1.0172219679 0.90937090954 
0.80816628637 0.71487100155 0.63001982895 3.6007720849 3.4966939854 3.3839471039 3.2645756454 3.1415926536 3.0186096618 
2.8992382033 2.7864913217 2.6824132222 5.8240058758 5.9280839753 6.0408308569 6.1602023154 6.2831853072 0.12298299178 
0.2423544503 0.35510133185 0.45917943135 6.0560271438 5.7885595667 5.9702140275 5.5125918794 5.6029703303 5.7885595667 
5.2659633393 5.2659633393 5.2659633393 5.2659633393 5.0674903122 5.0120975802 4.9155579264 4.7123889804 4.1588146215 
4.9155579264 4.8353719722 4.7123889804 4.5092200343 4.1588146215 3.6362183941 4.8004512023 4.7123889804 4.5894059886 
4.4126803806 4.1588146215 3.8218076305 3.4545639333 4.7123889804 4.6243267584 4.5092200343 4.3572876485 4.1588146215 
3.9121860814 3.6362183941 3.368750817 6.0174235957 5.9434319871 5.8263323547 5.8809213739 5.7674481418 5.6279784266 
5.8278025282 5.718968232 5.5891129425 5.4372443565 5.7823484065 5.678536687 5.5575666702 5.4192596322 5.2659633393 
5.743164462 5.6444075337 5.5314983644 5.4046708639 5.2659633393 5.1195510325 5.7091357773 5.6152775188 5.5096229709 
5.3926039573 5.2659633393 5.1329233157 4.9978930058 5.6793730533 5.5901633916 5.4910209005 5.3824597928 5.2659633393 
5.1440684722 5.0201624502 4.8979782167 5.5683143056 5.4750190208 5.4750190208 5.3738143976 5.3738143976 5.3738143976 
5.2659633393 5.2659633393 5.2659633393 5.2659633393 5.1534979207 5.1534979207 5.1534979207 5.1534979207 5.1534979207 
5.0390747672 5.0390747672 5.0390747672 5.0390747672 5.0390747672 5.0390747672 4.9256388911 4.9256388911 4.9256388911 
4.9256388911 4.9256388911 4.9256388911 4.9256388911 4.8159880991 4.8159880991 4.8159880991 4.8159880991 4.8159880991 
4.8159880991 4.8159880991 4.8159880991 4.6087898617 4.6087898617 4.4991390697 4.6087898617 4.4991390697 4.3857031936 
4.6087898617 4.4991390697 4.3857031936 4.2712800401 4.6087898617 4.4991390697 4.3857031936 4.2712800401 4.1588146215 
4.6087898617 4.4991390697 4.3857031936 4.2712800401 4.1588146215 4.0509635631 4.6087898617 4.4991390697 4.3857031936 
4.2712800401 4.1588146215 4.0509635631 3.94975894 4.6087898617 4.4991390697 4.3857031936 4.2712800401 4.1588146215 
4.0509635631 3.94975894 3.8564636551 4.526799744 4.4046155105 4.426884955 4.2807094886 4.2918546451 4.3052269283 
4.1588146215 4.1588146215 4.1588146215 4.1588146215 4.042318168 4.0321740035 4.0201070968 4.0055183285 3.9875336042 
3.9337570603 3.9151549899 3.8932795963 3.8672112905 3.8356650183 3.7967995342 3.8346145692 3.809500442 3.7803704271 
3.7462412737 3.7058097288 3.657329819 3.5984456061 3.7454049075 3.7156421835 3.6816134988 3.6424295543 3.5969754326 
3.5438565869 3.4813459737 3.4073543651 3.5642842451 3.4524645613 3.5233842518 3.3320300872 3.403123212 3.4773852225 
3.20576226 3.2746326772 3.348015857 3.4255060145 3.0774230472 3.1415926536 3.2112816139 3.2864685043 3.3668817272 
2.95115522 3.00855263 3.0719036933 3.1415926536 3.2178377658 3.3005964304 2.8307207459 2.8800620952 2.9351694502 
2.9967168029 3.0653475414 3.1415926536 3.225752376 2.718901062 2.7598010554 2.8058000847 2.8576792927 2.91630358 
2.9825888767 3.0574329311 3.1415926536 3.5642842451 3.5233842518 3.4524645613 3.4773852225 3.403123212 3.3320300872 
3.4255060145 3.348015857 3.2746326772 3.20576226 3.3668817272 3.2864685043 3.2112816139 3.1415926536 3.0774230472 
3.3005964304 3.2178377658 3.1415926536 3.0719036933 3.00855263 2.95115522 3.225752376 3.1415926536 3.0653475414 
2.9967168029 2.9351694502 2.8800620952 2.8307207459 3.1415926536 3.0574329311 2.9825888767 2.91630358 2.8576792927 
2.8058000847 2.7598010554 2.718901062 4.526799744 4.426884955 4.4046155105 4.3052269283 4.2918546451 4.2807094886 
4.1588146215 4.1588146215 4.1588146215 4.1588146215 3.9875336042 4.0055183285 4.0201070968 4.0321740035 4.042318168 
3.7967995342 3.8356650183 3.8672112905 3.8932795963 3.9151549899 3.9337570603 3.5984456061 3.657329819 3.7058097288 
3.7462412737 3.7803704271 3.809500442 3.8346145692 3.4073543651 3.4813459737 3.5438565869 3.5969754326 3.6424295543 
3.6816134988 3.7156421835 3.7454049075 4.7123889804 4.8004512023 4.6243267584 4.9155579264 4.7123889804 4.5092200343 
5.0674903122 4.8353719722 4.5894059886 4.3572876485 5.2659633393 5.0120975802 4.7123889804 4.4126803806 4.1588146215 
5.5125918794 5.2659633393 4.9155579264 4.5092200343 4.1588146215 3.9121860814 5.7885595667 5.6029703303 5.2659633393 
4.7123889804 4.1588146215 3.8218076305 3.6362183941 6.0560271438 5.9702140275 5.7885595667 5.2659633393 4.1588146215 
3.6362183941 3.4545639333 3.368750817 0.22715816343 0.49462574053 0.3129712797 0.77059342779 0.68021497688 0.49462574053 
1.0172219679 1.0172219679 1.0172219679 1.0172219679 1.2156949949 1.271087727 1.3676273807 1.5707963268 2.1243706857 
1.3676273807 1.447813335 1.5707963268 1.7739652728 2.1243706857 2.6469669131 1.4827341049 1.5707963268 1.6937793186 
1.8705049266 2.1243706857 2.4613776767 2.8286213739 1.5707963268 1.6588585487 1.7739652728 1.9258976586 2.1243706857 
2.3709992258 2.6469669131 2.9144344902 1.7563855631 1.8785697967 1.8563003522 2.0024758186 1.9913306621 1.9779583789 
2.1243706857 2.1243706857 2.1243706857 2.1243706857 2.2408671392 2.2510113037 2.2630782103 2.2776669786 2.295651703 
2.3494282469 2.3680303173 2.3899057108 2.4159740166 2.4475202889 2.486385773 2.448570738 2.4736848652 2.5028148801 
2.5369440334 2.5773755784 2.6258554882 2.6847397011 2.5377803997 2.5675431237 2.6015718084 2.6407557529 2.6862098746 
2.7393287203 2.8018393335 2.8758309421 1.6743954455 1.6743954455 1.7840462375 1.6743954455 1.7840462375 1.8974821136 
1.6743954455 1.7840462375 1.8974821136 2.0119052671 1.6743954455 1.7840462375 1.8974821136 2.0119052671 2.1243706857 
1.6743954455 1.7840462375 1.8974821136 2.0119052671 2.1243706857 2.232221744 1.6743954455 1.7840462375 1.8974821136 
2.0119052671 2.1243706857 2.232221744 2.3334263672 1.6743954455 1.7840462375 1.8974821136 2.0119052671 2.1243706857 
2.232221744 2.3334263672 2.426721652 1.4671972081 1.3575464161 1.4671972081 1.24411054 1.3575464161 1.4671972081 
1.1296873865 1.24411054 1.3575464161 1.4671972081 1.0172219679 1.1296873865 1.24411054 1.3575464161 1.4671972081 
0.90937090954 1.0172219679 1.1296873865 1.24411054 1.3575464161 1.4671972081 0.80816628637 0.90937090954 1.0172219679 
1.1296873865 1.24411054 1.3575464161 1.4671972081 0.71487100155 0.80816628637 0.90937090954 1.0172219679 1.1296873865 
1.24411054 1.3575464161 1.4671972081 0.60381225391 0.57404952988 0.69302191562 0.54002084522 0.66790778838 0.79216440667 
0.50083690068 0.63877777351 0.77356233629 0.90072551443 0.45538277901 0.60464862014 0.75168694275 0.89058134991 1.0172219679 
0.40226393329 0.56421707518 0.72561863695 0.87851444325 1.0172219679 1.139116835 0.33975332011 0.51573716537 0.69407236469 
0.86392567495 1.0172219679 1.1502619915 1.2630228569 0.26576171152 0.45685295248 0.6552068806 0.84594095064 1.0172219679 
1.1636342747 1.2852923014 1.3852070904 0.22715816343 0.3129712797 0.49462574053 0.49462574053 0.68021497688 0.77059342779 
1.0172219679 1.0172219679 1.0172219679 1.0172219679 2.1243706857 1.5707963268 1.3676273807 1.271087727 1.2156949949 
2.6469669131 2.1243706857 1.7739652728 1.5707963268 1.447813335 1.3676273807 2.8286213739 2.4613776767 2.1243706857 
1.8705049266 1.6937793186 1.5707963268 1.4827341049 2.9144344902 2.6469669131 2.3709992258 2.1243706857 1.9258976586 
1.7739652728 1.6588585487 1.5707963268 1.7563855631 1.8563003522 1.8785697967 1.9779583789 1.9913306621 2.0024758186 
2.1243706857 2.1243706857 2.1243706857 2.1243706857 2.295651703 2.2776669786 2.2630782103 2.2510113037 2.2408671392 
2.486385773 2.4475202889 2.4159740166 2.3899057108 2.3680303173 2.3494282469 2.6847397011 2.6258554882 2.5773755784 
2.5369440334 2.5028148801 2.4736848652 2.448570738 2.8758309421 2.8018393335 2.7393287203 2.6862098746 2.6407557529 
2.6015718084 2.5675431237 2.5377803997 5.8604937156 5.901393709 5.9723133995 5.9473927383 6.0216547488 6.0927478736 
5.9992719463 6.0767621038 6.1501452836 6.2190157008 6.0578962336 6.1383094565 6.2134963469 0 0.064169606361 
6.1241815303 6.206940195 6.2831853072 0.069688960264 0.13304002361 0.19043743361 6.1990255847 0 0.07624511221 
0.14487585072 0.20642320337 0.26153055843 0.3108719077 0 0.084159722458 0.15900377685 0.22528907359 0.28391336087 
0.3357925689 0.38179159818 0.42269159155 5.8604937156 5.9723133995 5.901393709 6.0927478736 6.0216547488 5.9473927383 
6.2190157008 6.1501452836 6.0767621038 5.9992719463 0.064169606361 0 6.2134963469 6.1383094565 6.0578962336 
0.19043743361 0.13304002361 0.069688960264 6.2831853072 6.206940195 6.1241815303 0.3108719077 0.26153055843 0.20642320337 
0.14487585072 0.07624511221 6.2831853072 6.1990255847 0.42269159155 0.38179159818 0.3357925689 0.28391336087 0.22528907359 
0.15900377685 0.084159722458 0 5.6793730533 5.7091357773 5.5901633916 5.743164462 5.6152775188 5.4910209005 
5.7823484065 5.6444075337 5.5096229709 5.3824597928 5.8278025282 5.678536687 5.5314983644 5.3926039573 5.2659633393 
5.8809213739 5.718968232 5.5575666702 5.4046708639 5.2659633393 5.1440684722 5.9434319871 5.7674481418 5.5891129425 
5.4192596322 5.2659633393 5.1329233157 5.0201624502 6.0174235957 5.8263323547 5.6279784266 5.4372443565 5.2659633393 
5.1195510325 4.9978930058 4.8979782167 1.3852070904 1.2852923014 1.2630228569 1.1636342747 1.1502619915 1.139116835 
1.0172219679 1.0172219679 1.0172219679 1.0172219679 0.84594095064 0.86392567495 0.87851444325 0.89058134991 0.90072551443 
0.6552068806 0.69407236469 0.72561863695 0.75168694275 0.77356233629 0.79216440667 0.45685295248 0.51573716537 0.56421707518 
0.60464862014 0.63877777351 0.66790778838 0.69302191562 0.26576171152 0.33975332011 0.40226393329 0.45538277901 0.50083690068 
0.54002084522 0.57404952988 0.60381225391 
_paraPhiHalf 1 1002 double
0 3.1415926536 0 3.1415926536 1.5707963268 1.5707963268 1.5707963268 1.5707963268 2.5880182947 
0.5535743589 2.5880182947 0.5535743589 0 0 0 0 3.1415926536 3.1415926536 
3.1415926536 3.1415926536 3.1415926536 0.17788134 0.38438696014 0.60631181711 0.82323535693 1.0172219679 1.1799687454 
1.3118704726 1.4175000338 1.5022335207 0.17788134 0.38438696014 0.60631181711 0.82323535693 1.0172219679 1.1799687454 
1.3118704726 1.4175000338 1.5022335207 0.093902416448 0.17615329733 0.2478725152 0.31035131605 0.36486382811 0.41257334776 
0.45449736604 0.4915044461 0.52432611754 0.093902416448 0.17615329733 0.2478725152 0.31035131605 0.36486382811 0.41257334776 
0.45449736604 0.4915044461 0.52432611754 2.9637113136 2.7572056934 2.5352808365 2.3183572967 2.1243706857 1.9616239082 
1.829722181 1.7240926197 1.6393591329 2.9637113136 2.7572056934 2.5352808365 2.3183572967 2.1243706857 1.9616239082 
1.829722181 1.7240926197 1.6393591329 3.0476902371 2.9654393563 2.8937201384 2.8312413375 2.7767288255 2.7290193058 
2.6870952876 2.6500882075 2.617266536 3.0476902371 2.9654393563 2.8937201384 2.8312413375 2.7767288255 2.7290193058 
2.6870952876 2.6500882075 2.617266536 0 0 0 0 3.1415926536 3.1415926536 
3.1415926536 3.1415926536 3.1415926536 0.17788134 0.38438696014 0.60631181711 0.82323535693 1.0172219679 1.1799687454 
1.3118704726 1.4175000338 1.5022335207 0.17788134 0.38438696014 0.60631181711 0.82323535693 1.0172219679 1.1799687454 
1.3118704726 1.4175000338 1.5022335207 0.093902416448 0.17615329733 0.2478725152 0.31035131605 0.36486382811 0.41257334776 
0.45449736604 0.4915044461 0.52432611754 0.093902416448 0.17615329733 0.2478725152 0.31035131605 0.36486382811 0.41257334776 
0.45449736604 0.4915044461 0.52432611754 2.9637113136 2.7572056934 2.5352808365 2.3183572967 2.1243706857 1.9616239082 
1.829722181 1.7240926197 1.6393591329 2.9637113136 2.7572056934 2.5352808365 2.3183572967 2.1243706857 1.9616239082 
1.829722181 1.7240926197 1.6393591329 3.0476902371 2.9654393563 2.8937201384 2.8312413375 2.7767288255 2.7290193058 
2.6870952876 2.6500882075 2.617266536 3.0476902371 2.9654393563 2.8937201384 2.8312413375 2.7767288255 2.7290193058 
2.6870952876 2.6500882075 2.617266536 1.5707963268 1.5707963268 1.5707963268 1.5707963268 1.5707963268 1.5707963268 
1.5707963268 1.5707963268 1.5707963268 1.6743954455 1.7840462375 1.8974821136 2.0119052671 2.1243706857 2.232221744 
2.3334263672 2.426721652 2.5115728246 1.4671972081 1.3575464161 1.24411054 1.1296873865 1.0172219679 0.90937090954 
0.80816628637 0.71487100155 0.63001982895 1.6743954455 1.7840462375 1.8974821136 2.0119052671 2.1243706857 2.232221744 
2.3334263672 2.426721652 2.5115728246 1.4671972081 1.3575464161 1.24411054 1.1296873865 1.0172219679 0.90937090954 
0.80816628637 0.71487100155 0.63001982895 1.5707963268 1.5707963268 1.5707963268 1.5707963268 1.5707963268 1.5707963268 
1.5707963268 1.5707963268 1.5707963268 1.6743954455 1.7840462375 1.8974821136 2.0119052671 2.1243706857 2.232221744 
2.3334263672 2.426721652 2.5115728246 1.4671972081 1.3575464161 1.24411054 1.1296873865 1.0172219679 0.90937090954 
0.80816628637 0.71487100155 0.63001982895 1.6743954455 1.7840462375 1.8974821136 2.0119052671 2.1243706857 2.232221744 
2.3334263672 2.426721652 2.5115728246 1.4671972081 1.3575464161 1.24411054 1.1296873865 1.0172219679 0.90937090954 
0.80816628637 0.71487100155 0.63001982895 2.6824132222 2.7864913217 2.8992382033 3.0186096618 3.1415926536 3.0186096618 
2.8992382033 2.7864913217 2.6824132222 0.45917943135 0.35510133185 0.2423544503 0.12298299178 0 0.12298299178 
0.2423544503 0.35510133185 0.45917943135 0.22715816343 0.49462574053 0.3129712797 0.77059342779 0.68021497688 0.49462574053 
1.0172219679 1.0172219679 1.0172219679 1.0172219679 1.2156949949 1.271087727 1.3676273807 1.5707963268 2.1243706857 
1.3676273807 1.447813335 1.5707963268 1.7739652728 2.1243706857 2.6469669131 1.4827341049 1.5707963268 1.6937793186 
1.8705049266 2.1243706857 2.4613776767 2.8286213739 1.5707963268 1.6588585487 1.7739652728 1.9258976586 2.1243706857 
2.3709992258 2.6469669131 2.9144344902 0.26576171152 0.33975332011 0.45685295248 0.40226393329 0.51573716537 0.6552068806 
0.45538277901 0.56421707518 0.69407236469 0.84594095064 0.50083690068 0.60464862014 0.72561863695 0.86392567495 1.0172219679 
0.54002084522 0.63877777351 0.75168694275 0.87851444325 1.0172219679 1.1636342747 0.57404952988 0.66790778838 0.77356233629 
0.89058134991 1.0172219679 1.1502619915 1.2852923014 0.60381225391 0.69302191562 0.79216440667 0.90072551443 1.0172219679 
1.139116835 1.2630228569 1.3852070904 0.71487100155 0.80816628637 0.80816628637 0.90937090954 0.90937090954 0.90937090954 
1.0172219679 1.0172219679 1.0172219679 1.0172219679 1.1296873865 1.1296873865 1.1296873865 1.1296873865 1.1296873865 
1.24411054 1.24411054 1.24411054 1.24411054 1.24411054 1.24411054 1.3575464161 1.3575464161 1.3575464161 
1.3575464161 1.3575464161 1.3575464161 1.3575464161 1.4671972081 1.4671972081 1.4671972081 1.4671972081 1.4671972081 
1.4671972081 1.4671972081 1.4671972081 1.6743954455 1.6743954455 1.7840462375 1.6743954455 1.7840462375 1.8974821136 
1.6743954455 1.7840462375 1.8974821136 2.0119052671 1.6743954455 1.7840462375 1.8974821136 2.0119052671 2.1243706857 
1.6743954455 1.7840462375 1.8974821136 2.0119052671 2.1243706857 2.232221744 1.6743954455 1.7840462375 1.8974821136 
2.0119052671 2.1243706857 2.232221744 2.3334263672 1.6743954455 1.7840462375 1.8974821136 2.0119052671 2.1243706857 
2.232221744 2.3334263672 2.426721652 1.7563855631 1.8785697967 1.8563003522 2.0024758186 1.9913306621 1.9779583789 
2.1243706857 2.1243706857 2.1243706857 2.1243706857 2.2408671392 2.2510113037 2.2630782103 2.2776669786 2.295651703 
2.3494282469 2.3680303173 2.3899057108 2.4159740166 2.4475202889 2.486385773 2.448570738 2.4736848652 2.5028148801 
2.5369440334 2.5773755784 2.6258554882 2.6847397011 2.5377803997 2.5675431237 2.6015718084 2.6407557529 2.6862098746 
2.7393287203 2.8018393335 2.8758309421 2.718901062 2.8307207459 2.7598010554 2.95115522 2.8800620952 2.8058000847 
3.0774230472 3.00855263 2.9351694502 2.8576792927 3.0774230472 3.1415926536 3.0719036933 2.9967168029 2.91630358 
2.95115522 3.00855263 3.0719036933 3.1415926536 3.0653475414 2.9825888767 2.8307207459 2.8800620952 2.9351694502 
2.9967168029 3.0653475414 3.1415926536 3.0574329311 2.718901062 2.7598010554 2.8058000847 2.8576792927 2.91630358 
2.9825888767 3.0574329311 3.1415926536 2.718901062 2.7598010554 2.8307207459 2.8058000847 2.8800620952 2.95115522 
2.8576792927 2.9351694502 3.00855263 3.0774230472 2.91630358 2.9967168029 3.0719036933 3.1415926536 3.0774230472 
2.9825888767 3.0653475414 3.1415926536 3.0719036933 3.00855263 2.95115522 3.0574329311 3.1415926536 3.0653475414 