# vtk DataFile Version 5.1
vtk output
ASCII
DATASET POLYDATA
POINTS 1002 float
-4.28696 -0.192658 -2.70227 4.51781 0.109253 -4.04134 -4.06401 0.110645 3.22927 
4.3902 0.050314 4.81651 -0.0397737 5.29614 -2.86821 -0.326798 4.92445 2.38883 
-0.331497 -4.87826 -2.38107 -0.306773 -5.29966 2.74446 7.29108 3.15888 0.0712219 
-7.47185 3.88727 -0.120235 8.51066 -3.75959 -1.2763 -7.95403 -3.93349 -0.0876587 
-3.58574 -0.105352 -2.64174 -2.80897 -0.0248816 -2.67425 -1.93351 0.0380122 -2.83215 
-0.957434 0.099249 -3.07657 0.062787 0.163485 -3.37697 1.05842 0.194733 -3.72555 
2.00754 0.174726 -4.03415 2.91054 0.138758 -4.17874 3.75351 0.119117 -4.15078 
-3.96721 0.308538 -2.72146 -3.6004 0.853548 -2.74596 -3.18964 1.4464 -2.79529 
-2.73457 2.0832 -2.88805 -2.24592 2.73465 -3.02277 -1.75163 3.35916 -3.17199 
-1.2749 3.93637 -3.28461 -0.823954 4.46264 -3.29296 -0.407766 4.92317 -3.15001 
-4.1444 -0.640348 -2.61728 -3.94202 -1.11705 -2.52796 -3.664 -1.60265 -2.47474 
-3.29638 -2.09747 -2.47978 -2.84213 -2.62484 -2.53552 -2.33505 -3.17533 -2.61229 
-1.81776 -3.69484 -2.66589 -1.30916 -4.1495 -2.65318 -0.811134 -4.5431 -2.5549 
-4.78902 0.0429408 -2.78368 -5.3141 0.33582 -2.79343 -5.83131 0.690591 -2.70163 
-6.30537 1.08359 -2.56722 -6.71314 1.49873 -2.44593 -7.03883 1.96771 -2.25133 
-7.27231 2.51267 -1.84948 -7.41827 3.07262 -1.26489 -7.4851 3.54828 -0.650967 
-4.91108 -0.563586 -2.74646 -5.57339 -0.978354 -2.7691 -6.23921 -1.44344 -2.73438 
-6.89864 -1.984 -2.66076 -7.53876 -2.6028 -2.5597 -8.06773 -3.21678 -2.33594 
-8.35573 -3.68692 -1.87962 -8.37332 -3.93414 -1.24524 -8.2067 -3.98858 -0.60788 
4.24898 0.572118 -4.14723 3.91495 1.08228 -4.22672 3.50398 1.63499 -4.23053 
3.01439 2.21542 -4.12293 2.46978 2.81044 -3.93329 1.91814 3.40837 -3.73283 
1.39842 3.97981 -3.55191 0.910351 4.4881 -3.36307 0.4326 4.92252 -3.13575 
4.27609 -0.349689 -3.98193 3.96003 -0.855325 -3.87224 3.56831 -1.38651 -3.72967 
3.09835 -1.91678 -3.56914 2.55374 -2.43508 -3.37069 1.95355 -2.94757 -3.11826 
1.33008 -3.46013 -2.85986 0.721995 -3.96686 -2.65943 0.162889 -4.44871 -2.51603 
5.09864 0.378467 -3.96122 5.67436 0.667507 -3.82465 6.2135 0.986343 -3.62096 
6.69363 1.33932 -3.33235 7.08952 1.71017 -2.94296 7.35994 2.07727 -2.44068 
7.47972 2.42564 -1.82748 7.47545 2.73394 -1.15142 7.40047 2.97933 -0.497555 
5.1429 -0.194896 -3.8981 5.81959 -0.564616 -3.74484 6.51545 -1.00394 -3.52881 
7.18458 -1.47627 -3.21915 7.79305 -1.95024 -2.90579 8.31936 -2.44991 -2.69271 
8.71279 -2.98028 -2.51638 8.89019 -3.44143 -2.22873 8.80796 -3.70929 -1.79078 
-3.40499 0.0486337 3.43611 -2.65634 -0.0336597 3.68254 -1.8222 -0.119759 3.9986 
-0.921392 -0.196193 4.34617 0.0145868 -0.250145 4.60658 0.958678 -0.258841 4.71896 
1.89415 -0.211443 4.75642 2.79715 -0.128857 4.79948 3.6356 -0.0381904 4.83714 
-3.86743 0.57752 3.26233 -3.61791 1.08772 3.30232 -3.31774 1.64516 3.3511 
-2.97439 2.24291 3.37369 -2.58499 2.84885 3.33139 -2.1448 3.41528 3.22307 
-1.67298 3.90772 3.0651 -1.20248 4.31764 2.86381 -0.751973 4.65253 2.63035 
-3.82985 -0.393961 3.30862 -3.54597 -0.949906 3.37386 -3.21716 -1.54125 3.44114 
-2.84268 -2.15678 3.53872 -2.42643 -2.78707 3.65464 -1.99068 -3.39902 3.70764 
-1.55794 -3.95343 3.6163 -1.13146 -4.44698 3.38191 -0.710693 -4.8964 3.07074 
-4.58733 0.446084 3.03558 -5.13027 0.807127 2.80208 -5.66559 1.20601 2.53047 
-6.15735 1.64782 2.21441 -6.59514 2.1102 1.8421 -6.9962 2.56277 1.43878 
-7.34274 2.9955 1.05453 -7.56221 3.39206 0.689755 -7.59997 3.70394 0.302046 
-4.56589 -0.160458 3.06692 -5.08932 -0.485449 2.85233 -5.62191 -0.86024 2.58244 
-6.15274 -1.27528 2.28506 -6.66302 -1.72242 1.97216 -7.11888 -2.18755 1.61829 
-7.48343 -2.6524 1.21685 -7.73853 -3.10825 0.794844 -7.89016 -3.54509 0.362842 
4.2114 0.497672 4.73266 3.95005 0.971889 4.57677 3.58356 1.49463 4.3849 
3.1101 2.05984 4.17897 2.55387 2.61366 3.94003 1.95012 3.12146 3.64363 
1.33458 3.60688 3.30789 0.739691 4.08504 2.9748 0.184486 4.53078 2.66775 
4.06238 -0.479274 4.87663 3.66029 -1.0781 4.90243 3.17902 -1.72385 4.89249 
2.62765 -2.38932 4.82644 2.03676 -3.05662 4.67291 1.45418 -3.70112 4.40927 
0.926058 -4.27171 4.03811 0.46932 -4.72262 3.59962 0.0665668 -5.05436 3.15457 
5.03843 0.427133 4.68994 5.73102 0.833844 4.45728 6.42892 1.25122 4.09239 
7.04814 1.65422 3.6006 7.49068 2.01925 3.01177 7.71773 2.33283 2.3698 
7.76538 2.59643 1.72603 7.68629 2.8201 1.12065 7.51728 3.00895 0.569226 
4.93867 -0.185788 4.72802 5.52854 -0.461598 4.4287 6.15339 -0.779408 3.87079 
6.75579 -1.13491 3.09847 7.2513 -1.50507 2.226 7.63122 -1.878 1.36697 
7.96543 -2.29653 0.580676 8.27022 -2.79911 -0.125391 8.4727 -3.32713 -0.750718 
-0.133231 5.72209 -2.41903 -0.250081 6.13727 -1.84451 -0.359462 6.46466 -1.2005 
-0.430429 6.61968 -0.557089 -0.46069 6.57461 0.0570147 -0.468185 6.37117 0.644611 
-0.458786 6.06686 1.18851 -0.427173 5.70271 1.65932 -0.378296 5.31214 2.0536 
0.613484 5.36923 -2.65644 1.30901 5.36499 -2.35719 2.04478 5.29707 -2.0239 
2.8211 5.169 -1.69908 3.6234 4.95401 -1.38261 4.43543 4.64531 -1.06242 
5.24776 4.28374 -0.746611 6.02709 3.90763 -0.450994 6.71823 3.52882 -0.180519 
-0.759894 5.42415 -2.75845 -1.54712 5.50756 -2.58168 -2.36049 5.53943 -2.34397 
-3.18642 5.50231 -2.04555 -4.04531 5.37387 -1.68605 -4.9259 5.17046 -1.30015 
-5.75633 4.9348 -0.943451 -6.4683 4.6636 -0.634706 -7.03953 4.31608 -0.360572 
0.434565 4.94042 2.30818 1.2812 4.96507 2.21124 2.18278 4.98753 2.09071 
3.10488 4.96558 1.93101 4.01385 4.86255 1.71452 4.86427 4.65982 1.43783 
5.61465 4.349 1.12002 6.25863 3.95754 0.78344 6.8136 3.54666 0.433986 
-1.1098 5.1528 2.26313 -1.97157 5.39335 2.1306 -2.89288 5.61025 1.99442 
-3.82202 5.74038 1.83447 -4.69722 5.73294 1.61268 -5.48437 5.58559 1.31056 
-6.16864 5.31444 0.95296 -6.72822 4.92361 0.58335 -7.15371 4.43173 0.225764 
-0.323196 -5.30884 -2.11168 -0.305226 -5.70026 -1.71684 -0.283095 -6.00354 -1.20968 
-0.263847 -6.2052 -0.650408 -0.254161 -6.31615 -0.082071 -0.255765 -6.32935 0.507706 
-0.264166 -6.21942 1.12549 -0.27555 -5.98403 1.72876 -0.290009 -5.65991 2.27216 
0.470542 -4.92096 -2.23747 1.3659 -4.92038 -2.0415 2.33112 -4.87191 -1.82728 
3.34317 -4.81536 -1.6549 4.3855 -4.81947 -1.57576 5.42827 -4.87724 -1.58526 
6.41406 -4.86487 -1.61781 7.27856 -4.6628 -1.59532 7.9803 -4.26674 -1.47849 
-1.11289 -5.07336 -2.34118 -1.95898 -5.22649 -2.25416 -2.87087 -5.31965 -2.12454 
-3.83625 -5.33915 -1.95476 -4.8171 -5.27345 -1.72786 -5.75282 -5.13929 -1.43535 
-6.57008 -4.965 -1.099 -7.20909 -4.72916 -0.747416 -7.65859 -4.38386 -0.40238 
0.339841 -5.53735 2.64981 1.04978 -5.70984 2.5023 1.83292 -5.70633 2.23663 
2.7161 -5.46747 1.81224 3.71655 -5.08182 1.2746 4.80063 -4.71553 0.711027 
5.88695 -4.44703 0.162232 6.89577 -4.23813 -0.3672 7.77885 -4.02205 -0.856925 
-0.956737 -5.27078 2.54898 -1.69352 -5.22395 2.33348 -2.48923 -5.1398 2.07354 
-3.31584 -4.98657 1.75151 -4.18461 -4.77057 1.38427 -5.10963 -4.54848 1.01679 
-6.0296 -4.37405 0.692502 -6.83591 -4.24627 0.42116 -7.47171 -4.11575 0.172754 
7.89485 2.67933 -0.00982076 8.53383 2.13505 -0.0997648 9.22184 1.50188 -0.218136 
9.91375 0.763498 -0.412888 10.4434 -0.0622324 -0.696973 10.6117 -0.925249 -0.997 
10.3697 -1.76638 -1.21679 9.84334 -2.53481 -1.32327 9.1917 -3.20097 -1.33527 
-7.8753 3.20843 -0.209051 -8.28819 2.43932 -0.322234 -8.69021 1.59672 -0.444664 
-9.02572 0.688195 -0.528839 -9.21599 -0.241538 -0.514938 -9.20664 -1.12777 -0.39599 
-9.01281 -1.95705 -0.241563 -8.70445 -2.73446 -0.130693 -8.34412 -3.41341 -0.0869963 
-3.22658 0.41525 -2.71072 -2.81838 0.982699 -2.81128 -2.40178 0.511868 -2.80975 
-2.35822 1.59592 -2.95123 -1.9381 1.10434 -2.98675 -1.463 0.59229 -3.01393 
-1.85552 2.23817 -3.13018 -1.42513 1.73445 -3.20453 -0.945394 1.20622 -3.23349 
-0.431986 0.667334 -3.27843 -1.3417 2.87535 -3.3222 -0.896923 2.36456 -3.44299 
-0.413217 1.83119 -3.49108 0.103425 1.27606 -3.52223 0.609616 0.720641 -3.60932 
-0.846361 3.47905 -3.47261 -0.391217 2.96711 -3.63692 0.0943823 2.4203 -3.73129 
0.612461 1.85953 -3.78291 1.13369 1.28782 -3.8665 1.60655 0.717044 -3.97549 
-0.378743 4.03458 -3.51479 0.0815716 3.53489 -3.70678 0.565095 2.97417 -3.84808 
1.08325 2.39484 -3.95278 1.61914 1.81723 -4.06497 2.12294 1.23656 -4.17703 
2.55402 0.66695 -4.22523 0.0532776 4.52301 -3.40103 0.520657 4.05188 -3.61139 
1.00337 3.50297 -3.78085 1.52108 2.91056 -3.93374 2.06696 2.31702 -4.09501 
2.59617 1.73197 -4.23827 3.06037 1.15736 -4.30109 3.44251 0.613184 -4.26041 
-4.45289 0.593862 -2.76162 -4.96461 0.950579 -2.7247 -4.06309 1.20013 -2.73414 
-5.46757 1.37545 -2.60452 -4.5515 1.63159 -2.66666 -3.62495 1.86613 -2.74336 
-5.91578 1.8225 -2.46446 -5.02584 2.12184 -2.55678 -4.07607 2.3727 -2.67854 
-3.13868 2.571 -2.81423 -6.28258 2.27968 -2.30988 -5.43938 2.61397 -2.42088 
-4.5042 2.91777 -2.59563 -3.54494 3.12831 -2.7569 -2.6226 3.25955 -2.92828 
-6.57014 2.79745 -2.02177 -5.77909 3.11773 -2.19076 -4.88262 3.45375 -2.42332 
-3.92992 3.70522 -2.6562 -2.999 3.82847 -2.83967 -2.11322 3.88914 -3.03987 
-6.79329 3.37439 -1.53067 -6.0622 3.67002 -1.77794 -5.21648 3.98626 -2.06668 
-4.29048 4.26125 -2.38478 -3.36648 4.40761 -2.65202 -2.48312 4.44869 -2.86752 
-1.63091 4.46223 -3.08564 -6.95511 3.91184 -0.931661 -6.29776 4.21861 -1.21824 
-5.51271 4.50047 -1.53548 -4.62771 4.76276 -1.89936 -3.72046 4.94411 -2.25632 
-2.84807 5.01101 -2.55 -2.00255 5.01012 -2.79151 -1.17758 4.9828 -2.99842 
-6.68258 4.88748 -0.00869586 -6.19922 5.36917 0.348172 -6.04392 5.22513 -0.295928 
-5.57308 5.74998 0.712513 -5.48344 5.68978 0.0460884 -5.24484 5.47444 -0.635135 
-4.82756 6.04797 1.06504 -4.79218 6.09878 0.399013 -4.61019 5.94799 -0.310019 
-4.34406 5.69887 -1.0207 -3.98999 6.21277 1.36156 -4.00566 6.43968 0.745136 
-3.87596 6.3944 0.0407218 -3.66936 6.19195 -0.693878 -3.43555 5.89593 -1.41583 
-3.07881 6.15676 1.57828 -3.14647 6.55946 1.0375 -3.07469 6.69959 0.387714 
-2.92325 6.61206 -0.325803 -2.75331 6.37555 -1.0662 -2.56817 6.00724 -1.77087 
-2.13489 5.90727 1.74397 -2.2307 6.37773 1.26342 -2.21988 6.68716 0.684844 
[...]
POINT_DATA 1002
FIELD FieldData 4
_paraPhi 1 1002 double
6.2831853072 3.1415926536 6.2831853072 3.1415926536 4.7123889804 4.7123889804 1.5707963268 1.5707963268 3.6951670125 
5.7296109483 2.5880182947 0.5535743589 6.2831853072 6.2831853072 6.2831853072 6.2831853072 3.1415926536 3.1415926536 
3.1415926536 3.1415926536 3.1415926536 6.1053039672 5.898798347 5.6768734901 5.4599499503 5.2659633393 5.1032165617 
4.9713148346 4.8656852733 4.7809517865 0.17788134 0.38438696014 0.60631181711 0.82323535693 1.0172219679 1.1799687454 
1.3118704726 1.4175000338 1.5022335207 6.1892828907 6.1070320098 6.035312792 5.9728339911 5.9183214791 5.8706119594 
5.8286879411 5.7916808611 5.7588591896 0.093902416448 0.17615329733 0.2478725152 0.31035131605 0.36486382811 0.41257334776 
0.45449736604 0.4915044461 0.52432611754 3.3194739936 3.5259796137 3.7479044707 3.9648280105 4.1588146215 4.321561399 
4.4534631262 4.5590926874 4.6438261743 2.9637113136 2.7572056934 2.5352808365 2.3183572967 2.1243706857 1.9616239082 
1.829722181 1.7240926197 1.6393591329 3.23549507 3.3177459509 3.3894651688 3.4519439696 3.5064564817 3.5541660013 
3.5960900196 3.6330970997 3.6659187711 3.0476902371 2.9654393563 2.8937201384 2.8312413375 2.7767288255 2.7290193058 
2.6870952876 2.6500882075 2.617266536 6.2831853072 6.2831853072 6.2831853072 6.2831853072 3.1415926536 3.1415926536 
3.1415926536 3.1415926536 3.1415926536 6.1053039672 5.898798347 5.6768734901 5.4599499503 5.2659633393 5.1032165617 
4.9713148346 4.8656852733 4.7809517865 0.17788134 0.38438696014 0.60631181711 0.82323535693 1.0172219679 1.1799687454 
1.3118704726 1.4175000338 1.5022335207 6.1892828907 6.1070320098 6.035312792 5.9728339911 5.9183214791 5.8706119594 
5.8286879411 5.7916808611 5.7588591896 0.093902416448 0.17615329733 0.2478725152 0.31035131605 0.36486382811 0.41257334776 
0.45449736604 0.4915044461 0.52432611754 3.3194739936 3.5259796137 3.7479044707 3.9648280105 4.1588146215 4.321561399 
4.4534631262 4.5590926874 4.6438261743 2.9637113136 2.7572056934 2.5352808365 2.3183572967 2.1243706857 1.9616239082 
1.829722181 1.7240926197 1.6393591329 3.23549507 3.3177459509 3.3894651688 3.4519439696 3.5064564817 3.5541660013 
3.5960900196 3.6330970997 3.6659187711 3.0476902371 2.9654393563 2.8937201384 2.8312413375 2.7767288255 2.7290193058 
2.6870952876 2.6500882075 2.617266536 4.7123889804 4.7123889804 4.7123889804 4.7123889804 4.7123889804 4.7123889804 
4.7123889804 4.7123889804 4.7123889804 4.6087898617 4.4991390697 4.3857031936 4.2712800401 4.1588146215 4.0509635631 
3.94975894 3.8564636551 3.7716124825 4.8159880991 4.9256388911 5.0390747672 5.1534979207 5.2659633393 5.3738143976 
5.4750190208 5.5683143056 5.6531654782 4.6087898617 4.4991390697 4.3857031936 4.2712800401 4.1588146215 4.0509635631 
3.94975894 3.8564636551 3.7716124825 4.8159880991 4.9256388911 5.0390747672 5.1534979207 5.2659633393 5.3738143976 
5.4750190208 5.5683143056 5.6531654782 1.5707963268 1.5707963268 1.5707963268 1.5707963268 1.5707963268 1.5707963268 
1.5707963268 1.5707963268 1.5707963268 1.6743954455 1.7840462375 1.8974821136 2.0119052671 2.1243706857 2.232221744 
2.3334263672 2.426721652 2.5115728246 1.4671972081 1.3575464161 1.24411054 1.1296873865 1.0172219679 0.90937090954 
0.80816628637 0.71487100155 0.63001982895 1.6743954455 1.7840462375 1.8974821136 2.0119052671 2.1243706857 2.232221744 
2.3334263672 2.426721652 2.5115728246 1.4671972081 1.3575464161 1.24411054 1.1296873865 1.0172219679 0.90937090954 
0.80816628637 0.71487100155 0.63001982895 3.6007720849 3.4966939854 3.3839471039 3.2645756454 3.1415926536 3.0186096618 
2.8992382033 2.7864913217 2.6824132222 5.8240058758 5.9280839753 6.0408308569 6.1602023154 6.2831853072 0.12298299178 
0.2423544503 0.35510133185 0.45917943135 6.0560271438 5.7885595667 5.9702140275 5.5125918794 5.6029703303 5.7885595667 
5.2659633393 5.2659633393 5.2659633393 5.2659633393 5.0674903122 5.0120975802 4.9155579264 4.7123889804 4.1588146215 
4.9155579264 4.8353719722 4.7123889804 4.5092200343 4.1588146215 3.6362183941 4.8004512023 4.7123889804 4.5894059886 
4.4126803806 4.1588146215 3.8218076305 3.4545639333 4.7123889804 4.6243267584 4.5092200343 4.3572876485 4.1588146215 
3.9121860814 3.6362183941 3.368750817 6.0174235957 5.9434319871 5.8263323547 5.8809213739 5.7674481418 5.6279784266 
5.8278025282 5.718968232 5.5891129425 5.4372443565 5.7823484065 5.678536687 5.5575666702 5.4192596322 5.2659633393 
5.743164462 5.6444075337 5.5314983644 5.4046708639 5.2659633393 5.1195510325 5.7091357773 5.6152775188 5.5096229709 
5.3926039573 5.2659633393 5.1329233157 4.9978930058 5.6793730533 5.5901633916 5.4910209005 5.3824597928 5.2659633393 
5.1440684722 5.0201624502 4.8979782167 5.5683143056 5.4750190208 5.4750190208 5.3738143976 5.3738143976 5.3738143976 
5.2659633393 5.2659633393 5.2659633393 5.2659633393 5.1534979207 5.1534979207 5.1534979207 5.1534979207 5.1534979207 
5.0390747672 5.0390747672 5.0390747672 5.0390747672 5.0390747672 5.0390747672 4.9256388911 4.9256388911 4.9256388911 
4.9256388911 4.9256388911 4.9256388911 4.9256388911 4.8159880991 4.8159880991 4.8159880991 4.8159880991 4.8159880991 
4.8159880991 4.8159880991 4.8159880991 4.6087898617 4.6087898617 4.4991390697 4.6087898617 4.4991390697 4.3857031936 
4.6087898617 4.4991390697 4.3857031936 4.2712800401 4.6087898617 4.4991390697 4.3857031936 4.2712800401 4.1588146215 
4.6087898617 4.4991390697 4.3857031936 4.2712800401 4.1588146215 4.0509635631 4.6087898617 4.4991390697 4.3857031936 
4.2712800401 4.1588146215 4.0509635631 3.94975894 4.6087898617 4.4991390697 4.3857031936 4.2712800401 4.1588146215 
4.0509635631 3.94975894 3.8564636551 4.526799744 4.4046155105 4.426884955 4.2807094886 4.2918546451 4.3052269283 
4.1588146215 4.1588146215 4.1588146215 4.1588146215 4.042318168 4.0321740035 4.0201070968 4.0055183285 3.9875336042 
3.9337570603 3.9151549899 3.8932795963 3.8672112905 3.8356650183 3.7967995342 3.8346145692 3.809500442 3.7803704271 
3.7462412737 3.7058097288 3.657329819 3.5984456061 3.7454049075 3.7156421835 3.6816134988 3.6424295543 3.5969754326 
3.5438565869 3.4813459737 3.4073543651 3.5642842451 3.4524645613 3.5233842518 3.3320300872 3.403123212 3.4773852225 
3.20576226 3.2746326772 3.348015857 3.4255060145 3.0774230472 3.1415926536 3.2112816139 3.2864685043 3.3668817272 
2.95115522 3.00855263 3.0719036933 3.1415926536 3.2178377658 3.3005964304 2.8307207459 2.8800620952 2.9351694502 
2.9967168029 3.0653475414 3.1415926536 3.225752376 2.718901062 2.7598010554 2.8058000847 2.8576792927 2.91630358 
2.9825888767 3.0574329311 3.1415926536 3.5642842451 3.5233842518 3.4524645613 3.4773852225 3.403123212 3.3320300872 
3.4255060145 3.348015857 3.2746326772 3.20576226 3.3668817272 3.2864685043 3.2112816139 3.1415926536 3.0774230472 
3.3005964304 3.2178377658 3.1415926536 3.0719036933 3.00855263 2.95115522 3.225752376 3.1415926536 3.0653475414 
2.9967168029 2.9351694502 2.8800620952 2.8307207459 3.1415926536 3.0574329311 2.9825888767 2.91630358 2.8576792927 
2.8058000847 2.7598010554 2.718901062 4.526799744 4.426884955 4.4046155105 4.3052269283 4.2918546451 4.2807094886 
4.1588146215 4.1588146215 4.1588146215 4.1588146215 3.9875336042 4.0055183285 4.0201070968 4.0321740035 4.042318168 
3.7967995342 3.8356650183 3.8672112905 3.8932795963 3.9151549899 3.9337570603 3.5984456061 3.657329819 3.7058097288 
3.7462412737 3.7803704271 3.809500442 3.8346145692 3.4073543651 3.4813459737 3.5438565869 3.5969754326 3.6424295543 
3.6816134988 3.7156421835 3.7454049075 4.7123889804 4.8004512023 4.6243267584 4.9155579264 4.7123889804 4.5092200343 
5.0674903122 4.8353719722 4.5894059886 4.3572876485 5.2659633393 5.0120975802 4.7123889804 4.4126803806 4.1588146215 
5.5125918794 5.2659633393 4.9155579264 4.5092200343 4.1588146215 3.9121860814 5.7885595667 5.6029703303 5.2659633393 
4.7123889804 4.1588146215 3.8218076305 3.6362183941 6.0560271438 5.9702140275 5.7885595667 5.2659633393 4.1588146215 
3.6362183941 3.4545639333 3.368750817 0.22715816343 0.49462574053 0.3129712797 0.77059342779 0.68021497688 0.49462574053 
1.0172219679 1.0172219679 1.0172219679 1.0172219679 1.2156949949 1.271087727 1.3676273807 1.5707963268 2.1243706857 
1.3676273807 1.447813335 1.5707963268 1.7739652728 2.1243706857 2.6469669131 1.4827341049 1.5707963268 1.6937793186 
1.8705049266 2.1243706857 2.4613776767 2.8286213739 1.5707963268 1.6588585487 1.7739652728 1.9258976586 2.1243706857 
2.3709992258 2.6469669131 2.9144344902 1.7563855631 1.8785697967 1.8563003522 2.0024758186 1.9913306621 1.9779583789 
2.1243706857 2.1243706857 2.1243706857 2.1243706857 2.2408671392 2.2510113037 2.2630782103 2.2776669786 2.295651703 
2.3494282469 2.3680303173 2.3899057108 2.4159740166 2.4475202889 2.486385773 2.448570738 2.4736848652 2.5028148801 
2.5369440334 2.5773755784 2.6258554882 2.6847397011 2.5377803997 2.5675431237 2.6015718084 2.6407557529 2.6862098746 
2.7393287203 2.8018393335 2.8758309421 1.6743954455 1.6743954455 1.7840462375 1.6743954455 1.7840462375 1.8974821136 
1.6743954455 1.7840462375 1.8974821136 2.0119052671 1.6743954455 1.7840462375 1.8974821136 2.0119052671 2.1243706857 
1.6743954455 1.7840462375 1.8974821136 2.0119052671 2.1243706857 2.232221744 1.6743954455 1.7840462375 1.8974821136 
2.0119052671 2.1243706857 2.232221744 2.3334263672 1.6743954455 1.7840462375 1.8974821136 2.0119052671 2.1243706857 
2.232221744 2.3334263672 2.426721652 1.4671972081 1.3575464161 1.4671972081 1.24411054 1.3575464161 1.4671972081 
1.1296873865 1.24411054 1.3575464161 1.4671972081 1.0172219679 1.1296873865 1.24411054 1.3575464161 1.4671972081 
0.90937090954 1.0172219679 1.1296873865 1.24411054 1.3575464161 1.4671972081 0.80816628637 0.90937090954 1.0172219679 
1.1296873865 1.24411054 1.3575464161 1.4671972081 0.71487100155 0.80816628637 0.90937090954 1.0172219679 1.1296873865 
1.24411054 1.3575464161 1.4671972081 0.60381225391 0.57404952988 0.69302191562 0.54002084522 0.66790778838 0.79216440667 
0.50083690068 0.63877777351 0.77356233629 0.90072551443 0.45538277901 0.60464862014 0.75168694275 0.89058134991 1.0172219679 
0.40226393329 0.56421707518 0.72561863695 0.87851444325 1.0172219679 1.139116835 0.33975332011 0.51573716537 0.69407236469 
0.86392567495 1.0172219679 1.1502619915 1.2630228569 0.26576171152 0.45685295248 0.6552068806 0.84594095064 1.0172219679 
1.1636342747 1.2852923014 1.3852070904 0.22715816343 0.3129712797 0.49462574053 0.49462574053 0.68021497688 0.77059342779 
1.0172219679 1.0172219679 1.0172219679 1.0172219679 2.1243706857 1.5707963268 1.3676273807 1.271087727 1.2156949949 
2.6469669131 2.1243706857 1.7739652728 1.5707963268 1.447813335 1.3676273807 2.8286213739 2.4613776767 2.1243706857 
1.8705049266 1.6937793186 1.5707963268 1.4827341049 2.9144344902 2.6469669131 2.3709992258 2.1243706857 1.9258976586 
1.7739652728 1.6588585487 1.5707963268 1.7563855631 1.8563003522 1.8785697967 1.9779583789 1.9913306621 2.0024758186 
2.1243706857 2.1243706857 2.1243706857 2.1243706857 2.295651703 2.2776669786 2.2630782103 2.2510113037 2.2408671392 
2.486385773 2.4475202889 2.4159740166 2.3899057108 2.3680303173 2.3494282469 2.6847397011 2.6258554882 2.5773755784 
2.5369440334 2.5028148801 2.4736848652 2.448570738 2.8758309421 2.8018393335 2.7393287203 2.6862098746 2.6407557529 
2.6015718084 2.5675431237 2.5377803997 5.8604937156 5.901393709 5.9723133995 5.9473927383 6.0216547488 6.0927478736 
5.9992719463 6.0767621038 6.1501452836 6.2190157008 6.0578962336 6.1383094565 6.2134963469 0 0.064169606361 
6.1241815303 6.206940195 6.2831853072 0.069688960264 0.13304002361 0.19043743361 6.1990255847 0 0.07624511221 
0.14487585072 0.20642320337 0.26153055843 0.3108719077 0 0.084159722458 0.15900377685 0.22528907359 0.28391336087 
0.3357925689 0.38179159818 0.42269159155 5.8604937156 5.9723133995 5.901393709 6.0927478736 6.0216547488 5.9473927383 
6.2190157008 6.1501452836 6.0767621038 5.9992719463 0.064169606361 0 6.2134963469 6.1383094565 6.0578962336 
0.19043743361 0.13304002361 0.069688960264 6.2831853072 6.206940195 6.1241815303 0.3108719077 0.26153055843 0.20642320337 
0.14487585072 0.07624511221 6.2831853072 6.1990255847 0.42269159155 0.38179159818 0.3357925689 0.28391336087 0.22528907359 
0.15900377685 0.084159722458 0 5.6793730533 5.7091357773 5.5901633916 5.743164462 5.6152775188 5.4910209005 
5.7823484065 5.6444075337 5.5096229709 5.3824597928 5.8278025282 5.678536687 5.5314983644 5.3926039573 5.2659633393 
5.8809213739 5.718968232 5.5575666702 5.4046708639 5.2659633393 5.1440684722 5.9434319871 5.7674481418 5.5891129425 
5.4192596322 5.2659633393 5.1329233157 5.0201624502 6.0174235957 5.8263323547 5.6279784266 5.4372443565 5.2659633393 
5.1195510325 4.9978930058 4.8979782167 1.3852070904 1.2852923014 1.2630228569 1.1636342747 1.1502619915 1.139116835 
1.0172219679 1.0172219679 1.0172219679 1.0172219679 0.84594095064 0.86392567495 0.87851444325 0.89058134991 0.90072551443 
0.6552068806 0.69407236469 0.72561863695 0.75168694275 0.77356233629 0.79216440667 0.45685295248 0.51573716537 0.56421707518 
0.60464862014 0.63877777351 0.66790778838 0.69302191562 0.26576171152 0.33975332011 0.40226393329 0.45538277901 0.50083690068 
0.54002084522 0.57404952988 0.60381225391 
_paraPhiHalf 1 1002 double
0 3.1415926536 0 3.1415926536 1.5707963268 1.5707963268 1.5707963268 1.5707963268 2.5880182947 
0.5535743589 2.5880182947 0.5535743589 0 0 0 0 3.1415926536 3.1415926536 
3.1415926536 3.1415926536 3.1415926536 0.17788134 0.38438696014 0.60631181711 0.82323535693 1.0172219679 1.1799687454 
1.3118704726 1.4175000338 1.5022335207 0.17788134 0.38438696014 0.60631181711 0.82323535693 1.0172219679 1.1799687454 
1.3118704726 1.4175000338 1.5022335207 0.093902416448 0.17615329733 0.2478725152 0.31035131605 0.36486382811 0.41257334776 
0.45449736604 0.4915044461 0.52432611754 0.093902416448 0.17615329733 0.2478725152 0.31035131605 0.36486382811 0.41257334776 
0.45449736604 0.4915044461 0.52432611754 2.9637113136 2.7572056934 2.5352808365 2.3183572967 2.1243706857 1.9616239082 
1.829722181 1.7240926197 1.6393591329 2.9637113136 2.7572056934 2.5352808365 2.3183572967 2.1243706857 1.9616239082 
1.829722181 1.7240926197 1.6393591329 3.0476902371 2.9654393563 2.8937201384 2.8312413375 2.7767288255 2.7290193058 
2.6870952876 2.6500882075 2.617266536 3.0476902371 2.9654393563 2.8937201384 2.8312413375 2.7767288255 2.7290193058 
2.6870952876 2.6500882075 2.617266536 0 0 0 0 3.1415926536 3.1415926536 
3.1415926536 3.1415926536 3.1415926536 0.17788134 0.38438696014 0.60631181711 0.82323535693 1.0172219679 1.1799687454 
1.3118704726 1.4175000338 1.5022335207 0.17788134 0.38438696014 0.60631181711 0.82323535693 1.0172219679 1.1799687454 
1.3118704726 1.4175000338 1.5022335207 0.093902416448 0.17615329733 0.2478725152 0.31035131605 0.36486382811 0.41257334776 
0.45449736604 0.4915044461 0.52432611754 0.093902416448 0.17615329733 0.2478725152 0.31035131605 0.36486382811 0.41257334776 
0.45449736604 0.4915044461 0.52432611754 2.9637113136 2.7572056934 2.5352808365 2.3183572967 2.1243706857 1.9616239082 
1.829722181 1.7240926197 1.6393591329 2.9637113136 2.7572056934 2.5352808365 2.3183572967 2.1243706857 1.9616239082 
1.829722181 1.7240926197 1.6393591329 3.0476902371 2.9654393563 2.8937201384 2.8312413375 2.7767288255 2.7290193058 
2.6870952876 2.6500882075 2.617266536 3.0476902371 2.9654393563 2.8937201384 2.8312413375 2.7767288255 2.7290193058 
2.6870952876 2.6500882075 2.617266536 1.5707963268 1.5707963268 1.5707963268 1.5707963268 1.5707963268 1.5707963268 
1.5707963268 1.5707963268 1.5707963268 1.6743954455 1.7840462375 1.8974821136 2.0119052671 2.1243706857 2.232221744 
2.3334263672 2.426721652 2.5115728246 1.4671972081 1.3575464161 1.24411054 1.1296873865 1.0172219679 0.90937090954 
0.80816628637 0.71487100155 0.63001982895 1.6743954455 1.7840462375 1.8974821136 2.0119052671 2.1243706857 2.232221744 
2.3334263672 2.426721652 2.5115728246 1.4671972081 1.3575464161 1.24411054 1.1296873865 1.0172219679 0.90937090954 
0.80816628637 0.71487100155 0.63001982895 1.5707963268 1.5707963268 1.5707963268 1.5707963268 1.5707963268 1.5707963268 
1.5707963268 1.5707963268 1.5707963268 1.6743954455 1.7840462375 1.8974821136 2.0119052671 2.1243706857 2.232221744 
2.3334263672 2.426721652 2.5115728246 1.4671972081 1.3575464161 1.24411054 1.1296873865 1.0172219679 0.90937090954 
0.80816628637 0.71487100155 0.63001982895 1.6743954455 1.7840462375 1.8974821136 2.0119052671 2.1243706857 2.232221744 
2.3334263672 2.426721652 2.5115728246 1.4671972081 1.3575464161 1.24411054 1.1296873865 1.0172219679 0.90937090954 
0.80816628637 0.71487100155 0.63001982895 2.6824132222 2.7864913217 2.8992382033 3.0186096618 3.1415926536 3.0186096618 
2.8992382033 2.7864913217 2.6824132222 0.45917943135 0.35510133185 0.2423544503 0.12298299178 0 0.12298299178 
0.2423544503 0.35510133185 0.45917943135 0.22715816343 0.49462574053 0.3129712797 0.77059342779 0.68021497688 0.49462574053 
1.0172219679 1.0172219679 1.0172219679 1.0172219679 1.2156949949 1.271087727 1.3676273807 1.5707963268 2.1243706857 
1.3676273807 1.447813335 1.5707963268 1.7739652728 2.1243706857 2.6469669131 1.4827341049 1.5707963268 1.6937793186 
1.8705049266 2.1243706857 2.4613776767 2.8286213739 1.5707963268 1.6588585487 1.7739652728 1.9258976586 2.1243706857 
2.3709992258 2.6469669131 2.9144344902 0.26576171152 0.33975332011 0.45685295248 0.40226393329 0.51573716537 0.6552068806 
0.45538277901 0.56421707518 0.69407236469 0.84594095064 0.50083690068 0.60464862014 0.72561863695 0.86392567495 1.0172219679 
0.54002084522 0.63877777351 0.75168694275 0.87851444325 1.0172219679 1.1636342747 0.57404952988 0.66790778838 0.77356233629 
0.89058134991 1.0172219679 1.1502619915 1.2852923014 0.60381225391 0.69302191562 0.79216440667 0.90072551443 1.0172219679 
1.139116835 1.2630228569 1.3852070904 0.71487100155 0.80816628637 0.80816628637 0.90937090954 0.90937090954 0.90937090954 
1.0172219679 1.0172219679 1.0172219679 1.0172219679 1.1296873865 1.1296873865 1.1296873865 1.1296873865 1.1296873865 
1.24411054 1.24411054 1.24411054 1.24411054 1.24411054 1.24411054 1.3575464161 1.3575464161 1.3575464161 
1.3575464161 1.3575464161 1.3575464161 1.3575464161 1.4671972081 1.4671972081 1.4671972081 1.4671972081 1.4671972081 
1.4671972081 1.4671972081 1.4671972081 1.6743954455 1.6743954455 1.7840462375 1.6743954455 1.7840462375 1.8974821136 
1.6743954455 1.7840462375 1.8974821136 2.0119052671 1.6743954455 1.7840462375 1.8974821136 2.0119052671 2.1243706857 
1.6743954455 1.7840462375 1.8974821136 2.0119052671 2.1243706857 2.232221744 1.6743954455 1.7840462375 1.8974821136 
2.0119052671 2.1243706857 2.232221744 2.3334263672 1.6743954455 1.7840462375 1.8974821136 2.0119052671 2.1243706857 
2.232221744 2.3334263672 2.426721652 1.7563855631 1.8785697967 1.8563003522 2.0024758186 1.9913306621 1.9779583789 
2.1243706857 2.1243706857 2.1243706857 2.1243706857 2.2408671392 2.2510113037 2.2630782103 2.2776669786 2.295651703 
2.3494282469 2.3680303173 2.3899057108 2.4159740166 2.4475202889 2.486385773 2.448570738 2.4736848652 2.5028148801 
2.5369440334 2.5773755784 2.6258554882 2.6847397011 2.5377803997 2.5675431237 2.6015718084 2.6407557529 2.6862098746 
2.7393287203 2.8018393335 2.8758309421 2.718901062 2.8307207459 2.7598010554 2.95115522 2.8800620952 2.8058000847 
3.0774230472 3.00855263 2.9351694502 2.8576792927 3.0774230472 3.1415926536 3.0719036933 2.9967168029 2.91630358 
2.95115522 3.00855263 3.0719036933 3.1415926536 3.0653475414 2.9825888767 2.8307207459 2.8800620952 2.9351694502 
2.9967168029 3.0653475414 3.1415926536 3.0574329311 2.718901062 2.7598010554 2.8058000847 2.8576792927 2.91630358 
2.9825888767 3.0574329311 3.1415926536 2.718901062 2.7598010554 2.8307207459 2.8058000847 2.8800620952 2.95115522 
2.8576792927 2.9351694502 3.00855263 3.0774230472 2.91630358 2.9967168029 3.0719036933 3.1415926536 3.0774230472 
2.9825888767 3.0653475414 3.1415926536 3.0719036933 3.00855263 2.95115522 3.0574329311 3.1415926536 3.0653475414 