# vtk DataFile Version 5.1
vtk output
ASCII
DATASET POLYDATA
POINTS 1002 float
-5.07322 -0.226895 -3.46383 5.08012 0.188297 -3.7922 -4.86819 0.192778 3.88519 
4.92092 -0.100798 4.25878 0.174854 6.0426 -2.88073 -0.0768906 6.03526 2.87027 
-0.193401 -5.91285 -2.72981 -0.0647503 -6.17847 2.98847 8.74892 4.05466 -0.128207 
-9.0716 4.32025 -0.321001 9.42249 -4.35304 -0.787642 -8.97987 -4.2922 -0.132053 
-4.21835 -0.187009 -3.46076 -3.27246 -0.141753 -3.48576 -2.23971 -0.100647 -3.54297 
-1.13574 -0.0509671 -3.61254 0.0027824 0.0210151 -3.69637 1.13497 0.0928198 -3.80768 
2.23158 0.134487 -3.90691 3.26825 0.153128 -3.93256 4.22245 0.170262 -3.88056 
-4.74841 0.340952 -3.4211 -4.34994 0.959705 -3.35858 -3.8786 1.6247 -3.28802 
-3.33638 2.32537 -3.22442 -2.73158 3.04145 -3.17709 -2.08986 3.74579 -3.14822 
-1.45129 4.41394 -3.13207 -0.850961 5.02887 -3.10482 -0.307199 5.5763 -3.02907 
-4.83065 -0.773385 -3.48 -4.51614 -1.36507 -3.47904 -4.11914 -1.99029 -3.46828 
-3.63671 -2.63895 -3.45545 -3.08213 -3.30007 -3.44142 -2.48576 -3.94564 -3.41063 
-1.88072 -4.53949 -3.3344 -1.28891 -5.06527 -3.19221 -0.72297 -5.52362 -2.98522 
-5.7277 0.104421 -3.44095 -6.41758 0.500442 -3.37114 -7.1016 0.952818 -3.22716 
-7.73071 1.43215 -3.02361 -8.28248 1.93167 -2.79778 -8.75009 2.48457 -2.52597 
-9.09501 3.0857 -2.12471 -9.26189 3.64389 -1.56865 -9.23967 4.06252 -0.934439 
-5.77329 -0.601949 -3.48061 -6.49622 -1.01808 -3.4605 -7.21145 -1.48252 -3.38214 
-7.90231 -2.01015 -3.24872 -8.53647 -2.59753 -3.04312 -9.02864 -3.18839 -2.6864 
-9.29293 -3.68896 -2.12085 -9.3275 -4.03313 -1.41642 -9.20051 -4.22005 -0.720114 
4.81115 0.743415 -3.86096 4.47176 1.34983 -3.91222 4.05415 1.99687 -3.92612 
3.55572 2.66634 -3.88131 2.99142 3.33864 -3.7829 2.3981 3.99563 -3.66357 
1.81198 4.6142 -3.53772 1.24588 5.16834 -3.37931 0.698563 5.64387 -3.15947 
4.77901 -0.377423 -3.75873 4.39774 -0.993387 -3.68349 3.93799 -1.64179 -3.56761 
3.4063 -2.3022 -3.42639 2.81229 -2.96422 -3.27343 2.17322 -3.62338 -3.12019 
1.52048 -4.26684 -2.99194 0.892954 -4.87479 -2.90525 0.318703 -5.42896 -2.83389 
5.75757 0.547714 -3.72715 6.44786 0.940873 -3.62289 7.12239 1.368 -3.47036 
7.76395 1.83349 -3.26321 8.34737 2.33775 -2.98856 8.80496 2.85792 -2.60534 
9.05759 3.33542 -2.07181 9.09105 3.70333 -1.41632 8.96382 3.93502 -0.737714 
5.75214 -0.153224 -3.67896 6.46558 -0.554183 -3.53861 7.18714 -1.01867 -3.34229 
7.87461 -1.52415 -3.08093 8.50263 -2.0481 -2.80723 9.05505 -2.60452 -2.56454 
9.47782 -3.19445 -2.29274 9.68822 -3.7399 -1.89674 9.65324 -4.13747 -1.36989 
-4.05783 0.163138 4.04892 -3.15467 0.113539 4.2072 -2.16521 0.0563476 4.36879 
-1.10567 -0.00117867 4.5161 -0.00710258 -0.0575775 4.5972 1.09235 -0.104188 4.5852 
2.16049 -0.130276 4.51707 3.16983 -0.135644 4.43981 4.09493 -0.124842 4.35975 
-4.60879 0.76127 3.977 -4.27666 1.3809 4.05294 -3.86939 2.04906 4.10525 
-3.39233 2.75651 4.11725 -2.85469 3.4748 4.07222 -2.27449 4.15783 3.95936 
-1.68295 4.76405 3.76957 -1.11056 5.2751 3.50549 -0.573277 5.6944 3.1938 
-4.58869 -0.389834 3.88342 -4.24193 -1.02645 3.86482 -3.83149 -1.70392 3.83187 
-3.35729 -2.41266 3.79563 -2.8193 -3.14255 3.7575 -2.23629 -3.86347 3.69291 
-1.64687 -4.53632 3.57667 -1.08314 -5.14569 3.41133 -0.555768 -5.69467 3.2127 
-5.51137 0.557875 3.75964 -6.1783 0.945661 3.58356 -6.8389 1.3592 3.32592 
-7.46195 1.80769 2.95413 -8.02265 2.2855 2.46601 -8.50087 2.76719 1.91098 
-8.87132 3.23355 1.34661 -9.10095 3.67206 0.786335 -9.16575 4.04926 0.223868 
-5.50148 -0.160426 3.69117 -6.16626 -0.569062 3.43392 -6.83242 -1.02023 3.11612 
-7.46012 -1.50069 2.75037 -8.01554 -2.00722 2.34149 -8.47615 -2.53125 1.89033 
-8.81583 -3.04644 1.41062 -9.00774 -3.52438 0.914851 -9.05176 -3.94535 0.399983 
4.66644 0.461803 4.20297 4.33469 1.07192 4.12064 3.91493 1.73258 4.03082 
3.40698 2.42904 3.93358 2.82765 3.12574 3.8072 2.20891 3.79597 3.64307 
1.58785 4.43405 3.46216 0.993093 5.03116 3.28064 0.437418 5.56872 3.08836 
4.62778 -0.69438 4.35473 4.25999 -1.35299 4.4196 3.81108 -2.06147 4.4462 
3.28465 -2.7983 4.42891 2.70082 -3.53725 4.35998 2.09255 -4.24382 4.22397 
1.49377 -4.87828 4.00447 0.928821 -5.41242 3.7052 0.408767 -5.84164 3.35509 
5.58329 0.285326 4.08917 6.28202 0.71007 3.84619 6.98866 1.16095 3.51721 
7.65002 1.62824 3.10314 8.20083 2.10187 2.62136 8.59704 2.5643 2.09992 
8.82993 2.99911 1.5599 8.91365 3.39991 1.0048 8.87529 3.75811 0.436178 
5.55639 -0.435447 4.17375 6.227 -0.810849 3.97817 6.92039 -1.23219 3.62262 
7.6001 -1.69676 3.10016 8.20349 -2.18001 2.45895 8.6903 -2.65486 1.77191 
9.0687 -3.12625 1.08768 9.34022 -3.60075 0.41955 9.46756 -4.03352 -0.217886 
0.131088 6.53914 -2.51231 0.0723362 7.02899 -2.00014 0.00678112 7.44528 -1.37092 
-0.0538224 7.71201 -0.683225 -0.0977391 7.78394 0.0204769 -0.118334 7.66024 0.724435 
-0.118026 7.36964 1.39908 -0.10575 6.96234 1.99534 -0.0903255 6.50037 2.48407 
0.974533 6.21548 -2.84699 1.84018 6.32107 -2.72973 2.76936 6.33984 -2.5242 
3.75461 6.25863 -2.25255 4.76682 6.07379 -1.94611 5.75698 5.79806 -1.61658 
6.67841 5.44766 -1.25609 7.49658 5.02877 -0.869228 8.18852 4.55363 -0.483951 
-0.664449 6.12157 -2.6646 -1.60075 6.1491 -2.40141 -2.61196 6.12687 -2.1195 
-3.67383 6.06623 -1.84217 -4.76312 5.97363 -1.58023 -5.84368 5.83432 -1.33645 
-6.86169 5.61219 -1.10117 -7.76129 5.27591 -0.854913 -8.50264 4.83084 -0.590449 
0.747564 6.0613 2.67584 1.65751 6.05852 2.44692 2.63821 6.01598 2.1829 
3.66422 5.91261 1.88468 4.69824 5.73477 1.56124 5.69454 5.48315 1.22765 
6.61358 5.16848 0.894568 7.43345 4.81209 0.561313 8.14606 4.43721 0.220797 
-0.911995 6.2706 2.81453 -1.84255 6.47325 2.70894 -2.85326 6.59812 2.5435 
-3.91291 6.59297 2.30038 -4.98203 6.43105 1.96062 -6.01478 6.13472 1.53229 
-6.96258 5.75046 1.05638 -7.79162 5.30962 0.575646 -8.49286 4.82739 0.11304 
-0.171982 -6.41269 -2.41716 -0.142796 -6.89345 -1.95716 -0.108493 -7.29567 -1.35355 
-0.068711 -7.56903 -0.66639 -0.0270865 -7.68634 0.0361698 0.000948449 -7.63696 0.73015 
0.0013329 -7.42377 1.40822 -0.0204298 -7.07398 2.0345 -0.0464 -6.63975 2.56569 
0.662022 -5.96847 -2.50918 1.61793 -5.96653 -2.23463 2.66719 -5.90269 -1.93512 
3.78174 -5.80971 -1.66965 4.91531 -5.74033 -1.494 6.02617 -5.68998 -1.40545 
7.08082 -5.56957 -1.338 8.03145 -5.29493 -1.22189 8.82173 -4.86756 -1.03278 
-1.03046 -6.12086 -2.7388 -1.94947 -6.27384 -2.67723 -2.94093 -6.34376 -2.53608 
-3.98402 -6.30838 -2.32015 -5.0474 -6.16175 -2.03582 -6.08283 -5.92493 -1.692 
-7.02674 -5.62266 -1.30573 -7.82886 -5.2516 -0.899139 -8.47559 -4.80134 -0.498473 
0.732935 -6.43054 2.95881 1.62633 -6.62072 2.86195 2.61159 -6.67932 2.6534 
3.67498 -6.56384 2.31244 4.7916 -6.30188 1.85875 5.91304 -5.9653 1.33096 
6.97234 -5.60287 0.76506 7.92 -5.21932 0.198517 8.73887 -4.8034 -0.328956 
-0.852986 -6.17763 2.7496 -1.73532 -6.13624 2.47834 -2.70082 -6.05193 2.17731 
-3.7163 -5.91388 1.84416 -4.74922 -5.71339 1.48378 -5.77949 -5.46268 1.11912 
-6.76892 -5.19223 0.779283 -7.65383 -4.91808 0.47092 -8.39038 -4.62519 0.173859 
9.40382 3.45803 -0.143163 10.0641 2.75472 -0.171697 10.701 1.9416 -0.224423 
11.2462 1.0251 -0.326017 11.5811 0.0294895 -0.489322 11.6002 -0.996302 -0.677194 
11.2978 -1.98778 -0.821142 10.765 -2.89081 -0.881347 10.1131 -3.68006 -0.862772 
-9.69404 3.62439 -0.412774 -10.2942 2.8228 -0.488126 -10.8127 1.91936 -0.521896 
-11.1641 0.930839 -0.493335 -11.2669 -0.0914892 -0.406904 -11.0934 -1.08798 -0.29553 
-10.6936 -2.03237 -0.198704 -10.1612 -2.90762 -0.140243 -9.57611 -3.67298 -0.122284 
-3.83062 0.407261 -3.43329 -3.37184 1.05428 -3.40138 -2.8217 0.475829 -3.48859 
-2.84106 1.74442 -3.37388 -2.29919 1.1501 -3.49625 -1.72159 0.538238 -3.57343 
-2.2443 2.46178 -3.35776 -1.70876 1.86266 -3.51143 -1.13664 1.23649 -3.61005 
-0.554254 0.607444 -3.66253 -1.60371 3.18617 -3.35244 -1.0729 2.58919 -3.53252 
-0.506647 1.96124 -3.65381 0.071769 1.31499 -3.72157 0.627497 0.684184 -3.7705 
-0.957073 3.89226 -3.35064 -0.427919 3.30903 -3.54612 0.131884 2.6812 -3.69133 
0.707223 2.02861 -3.78246 1.2667 1.37392 -3.84676 1.77933 0.737928 -3.89545 
-0.343412 4.55131 -3.33703 0.189912 3.99741 -3.53523 0.746623 3.37876 -3.69256 
1.32123 2.72275 -3.8103 1.88927 2.05537 -3.8975 2.41541 1.394 -3.95537 
2.87655 0.753825 -3.9702 0.211613 5.13973 -3.28296 0.752767 4.62416 -3.48546 
1.31277 4.0319 -3.64084 1.89163 3.38562 -3.76966 2.47183 2.71504 -3.88064 
3.01639 2.04108 -3.95701 3.49401 1.38 -3.97969 3.89463 0.750561 -3.94908 
-5.39322 0.726666 -3.37235 -6.06754 1.18528 -3.27406 -4.96787 1.40474 -3.27348 
-6.72163 1.69939 -3.10418 -5.60575 1.92783 -3.14491 -4.45435 2.13219 -3.16413 
-7.30367 2.22831 -2.88199 -6.21057 2.49577 -2.95846 -5.03674 2.71301 -3.0092 
-3.858 2.88807 -3.06457 -7.79648 2.77587 -2.62899 -6.73571 3.06624 -2.72151 
-5.5775 3.31872 -2.80787 -4.37427 3.50286 -2.8813 -3.19607 3.63556 -2.98458 
-8.19327 3.37922 -2.29706 -7.16865 3.6598 -2.42263 -6.04246 3.9197 -2.5391 
-4.85036 4.12052 -2.64788 -3.65378 4.25125 -2.76404 -2.50847 4.34299 -2.92694 
-8.45831 3.99508 -1.82013 -7.49943 4.28992 -2.01048 -6.42099 4.53606 -2.16938 
-5.26376 4.72791 -2.32147 -4.08178 4.85697 -2.47722 -2.92816 4.94059 -2.65911 
-1.84125 4.99953 -2.87911 -8.55785 4.50328 -1.22035 -7.70095 4.86579 -1.46796 
-6.69943 5.13471 -1.67904 -5.59983 5.32031 -1.87715 -4.45805 5.44274 -2.0821 
-3.3256 5.52342 -2.30419 -2.23793 5.57671 -2.54965 -1.22298 5.59864 -2.80376 
-7.86265 5.39042 -0.143818 -7.08661 5.89823 0.331468 -7.04922 5.86275 -0.412941 
-6.17967 6.34663 0.817198 -6.1992 6.37861 0.0541146 -6.07709 6.2004 -0.685621 
-5.17021 6.73082 1.28105 -5.23426 6.83391 0.519809 -5.17009 6.72315 -0.253041 
-5.00259 6.41719 -0.971016 -4.10432 7.00029 1.67693 -4.1975 7.21353 0.947123 
-4.17772 7.19169 0.168831 -4.06673 6.95873 -0.593324 -3.89238 6.56006 -1.28047 
-3.0256 7.08548 1.97857 -3.1312 7.42963 1.30025 -3.14369 7.54685 0.549116 
-3.07514 7.43053 -0.221263 -2.95456 7.11499 -0.959367 -2.79713 6.65331 -1.60802 
-1.97226 6.98421 2.20037 -2.06797 7.41965 1.57804 -2.10081 7.68517 0.870533 
[...]
POINT_DATA 1002
FIELD FieldData 4
_paraPhi 1 1002 double
6.2831853072 3.1415926536 6.2831853072 3.1415926536 4.7123889804 4.7123889804 1.5707963268 1.5707963268 3.6951670125 
5.7296109483 2.5880182947 0.5535743589 6.2831853072 6.2831853072 6.2831853072 6.2831853072 3.1415926536 3.1415926536 
3.1415926536 3.1415926536 3.1415926536 6.1053039672 5.898798347 5.6768734901 5.4599499503 5.2659633393 5.1032165617 
4.9713148346 4.8656852733 4.7809517865 0.17788134 0.38438696014 0.60631181711 0.82323535693 1.0172219679 1.1799687454 
1.3118704726 1.4175000338 1.5022335207 6.1892828907 6.1070320098 6.035312792 5.9728339911 5.9183214791 5.8706119594 
5.8286879411 5.7916808611 5.7588591896 0.093902416448 0.17615329733 0.2478725152 0.31035131605 0.36486382811 0.41257334776 
0.45449736604 0.4915044461 0.52432611754 3.3194739936 3.5259796137 3.7479044707 3.9648280105 4.1588146215 4.321561399 
4.4534631262 4.5590926874 4.6438261743 2.9637113136 2.7572056934 2.5352808365 2.3183572967 2.1243706857 1.9616239082 
1.829722181 1.7240926197 1.6393591329 3.23549507 3.3177459509 3.3894651688 3.4519439696 3.5064564817 3.5541660013 
3.5960900196 3.6330970997 3.6659187711 3.0476902371 2.9654393563 2.8937201384 2.8312413375 2.7767288255 2.7290193058 
2.6870952876 2.6500882075 2.617266536 6.2831853072 6.2831853072 6.2831853072 6.2831853072 3.1415926536 3.1415926536 
3.1415926536 3.1415926536 3.1415926536 6.1053039672 5.898798347 5.6768734901 5.4599499503 5.2659633393 5.1032165617 
4.9713148346 4.8656852733 4.7809517865 0.17788134 0.38438696014 0.60631181711 0.82323535693 1.0172219679 1.1799687454 
1.3118704726 1.4175000338 1.5022335207 6.1892828907 6.1070320098 6.035312792 5.9728339911 5.9183214791 5.8706119594 
5.8286879411 5.7916808611 5.7588591896 0.093902416448 0.17615329733 0.2478725152 0.31035131605 0.36486382811 0.41257334776 
0.45449736604 0.4915044461 0.52432611754 3.3194739936 3.5259796137 3.7479044707 3.9648280105 4.1588146215 4.321561399 
4.4534631262 4.5590926874 4.6438261743 2.9637113136 2.7572056934 2.5352808365 2.3183572967 2.1243706857 1.9616239082 
1.829722181 1.7240926197 1.6393591329 3.23549507 3.3177459509 3.3894651688 3.4519439696 3.5064564817 3.5541660013 
3.5960900196 3.6330970997 3.6659187711 3.0476902371 2.9654393563 2.8937201384 2.8312413375 2.7767288255 2.7290193058 
2.6870952876 2.6500882075 2.617266536 4.7123889804 4.7123889804 4.7123889804 4.7123889804 4.7123889804 4.7123889804 
4.7123889804 4.7123889804 4.7123889804 4.6087898617 4.4991390697 4.3857031936 4.2712800401 4.1588146215 4.0509635631 
3.94975894 3.8564636551 3.7716124825 4.8159880991 4.9256388911 5.0390747672 5.1534979207 5.2659633393 5.3738143976 
5.4750190208 5.5683143056 5.6531654782 4.6087898617 4.4991390697 4.3857031936 4.2712800401 4.1588146215 4.0509635631 
3.94975894 3.8564636551 3.7716124825 4.8159880991 4.9256388911 5.0390747672 5.1534979207 5.2659633393 5.3738143976 
5.4750190208 5.5683143056 5.6531654782 1.5707963268 1.5707963268 1.5707963268 1.5707963268 1.5707963268 1.5707963268 
1.5707963268 1.5707963268 1.5707963268 1.6743954455 1.7840462375 1.8974821136 2.0119052671 2.1243706857 2.232221744 
2.3334263672 2.426721652 2.5115728246 1.4671972081 1.3575464161 1.24411054 1.1296873865 1.0172219679 0.90937090954 
0.80816628637 0.71487100155 0.63001982895 1.6743954455 1.7840462375 1.8974821136 2.0119052671 2.1243706857 2.232221744 
2.3334263672 2.426721652 2.5115728246 1.4671972081 1.3575464161 1.24411054 1.1296873865 1.0172219679 0.90937090954 
0.80816628637 0.71487100155 0.63001982895 3.6007720849 3.4966939854 3.3839471039 3.2645756454 3.1415926536 3.0186096618 
2.8992382033 2.7864913217 2.6824132222 5.8240058758 5.9280839753 6.0408308569 6.1602023154 6.2831853072 0.12298299178 
0.2423544503 0.35510133185 0.45917943135 6.0560271438 5.7885595667 5.9702140275 5.5125918794 5.6029703303 5.7885595667 
5.2659633393 5.2659633393 5.2659633393 5.2659633393 5.0674903122 5.0120975802 4.9155579264 4.7123889804 4.1588146215 
4.9155579264 4.8353719722 4.7123889804 4.5092200343 4.1588146215 3.6362183941 4.8004512023 4.7123889804 4.5894059886 
4.4126803806 4.1588146215 3.8218076305 3.4545639333 4.7123889804 4.6243267584 4.5092200343 4.3572876485 4.1588146215 
3.9121860814 3.6362183941 3.368750817 6.0174235957 5.9434319871 5.8263323547 5.8809213739 5.7674481418 5.6279784266 
5.8278025282 5.718968232 5.5891129425 5.4372443565 5.7823484065 5.678536687 5.5575666702 5.4192596322 5.2659633393 
5.743164462 5.6444075337 5.5314983644 5.4046708639 5.2659633393 5.1195510325 5.7091357773 5.6152775188 5.5096229709 
5.3926039573 5.2659633393 5.1329233157 4.9978930058 5.6793730533 5.5901633916 5.4910209005 5.3824597928 5.2659633393 
5.1440684722 5.0201624502 4.8979782167 5.5683143056 5.4750190208 5.4750190208 5.3738143976 5.3738143976 5.3738143976 
5.2659633393 5.2659633393 5.2659633393 5.2659633393 5.1534979207 5.1534979207 5.1534979207 5.1534979207 5.1534979207 
5.0390747672 5.0390747672 5.0390747672 5.0390747672 5.0390747672 5.0390747672 4.9256388911 4.9256388911 4.9256388911 
4.9256388911 4.9256388911 4.9256388911 4.9256388911 4.8159880991 4.8159880991 4.8159880991 4.8159880991 4.8159880991 
4.8159880991 4.8159880991 4.8159880991 4.6087898617 4.6087898617 4.4991390697 4.6087898617 4.4991390697 4.3857031936 
4.6087898617 4.4991390697 4.3857031936 4.2712800401 4.6087898617 4.4991390697 4.3857031936 4.2712800401 4.1588146215 
4.6087898617 4.4991390697 4.3857031936 4.2712800401 4.1588146215 4.0509635631 4.6087898617 4.4991390697 4.3857031936 
4.2712800401 4.1588146215 4.0509635631 3.94975894 4.6087898617 4.4991390697 4.3857031936 4.2712800401 4.1588146215 
4.0509635631 3.94975894 3.8564636551 4.526799744 4.4046155105 4.426884955 4.2807094886 4.2918546451 4.3052269283 
4.1588146215 4.1588146215 4.1588146215 4.1588146215 4.042318168 4.0321740035 4.0201070968 4.0055183285 3.9875336042 
3.9337570603 3.9151549899 3.8932795963 3.8672112905 3.8356650183 3.7967995342 3.8346145692 3.809500442 3.7803704271 
3.7462412737 3.7058097288 3.657329819 3.5984456061 3.7454049075 3.7156421835 3.6816134988 3.6424295543 3.5969754326 
3.5438565869 3.4813459737 3.4073543651 3.5642842451 3.4524645613 3.5233842518 3.3320300872 3.403123212 3.4773852225 
3.20576226 3.2746326772 3.348015857 3.4255060145 3.0774230472 3.1415926536 3.2112816139 3.2864685043 3.3668817272 
2.95115522 3.00855263 3.0719036933 3.1415926536 3.2178377658 3.3005964304 2.8307207459 2.8800620952 2.9351694502 
2.9967168029 3.0653475414 3.1415926536 3.225752376 2.718901062 2.7598010554 2.8058000847 2.8576792927 2.91630358 
2.9825888767 3.0574329311 3.1415926536 3.5642842451 3.5233842518 3.4524645613 3.4773852225 3.403123212 3.3320300872 
3.4255060145 3.348015857 3.2746326772 3.20576226 3.3668817272 3.2864685043 3.2112816139 3.1415926536 3.0774230472 
3.3005964304 3.2178377658 3.1415926536 3.0719036933 3.00855263 2.95115522 3.225752376 3.1415926536 3.0653475414 
2.9967168029 2.9351694502 2.8800620952 2.8307207459 3.1415926536 3.0574329311 2.9825888767 2.91630358 2.8576792927 
2.8058000847 2.7598010554 2.718901062 4.526799744 4.426884955 4.4046155105 4.3052269283 4.2918546451 4.2807094886 
4.1588146215 4.1588146215 4.1588146215 4.1588146215 3.9875336042 4.0055183285 4.0201070968 4.0321740035 4.042318168 
3.7967995342 3.8356650183 3.8672112905 3.8932795963 3.9151549899 3.9337570603 3.5984456061 3.657329819 3.7058097288 
3.7462412737 3.7803704271 3.809500442 3.8346145692 3.4073543651 3.4813459737 3.5438565869 3.5969754326 3.6424295543 
3.6816134988 3.7156421835 3.7454049075 4.7123889804 4.8004512023 4.6243267584 4.9155579264 4.7123889804 4.5092200343 
5.0674903122 4.8353719722 4.5894059886 4.3572876485 5.2659633393 5.0120975802 4.7123889804 4.4126803806 4.1588146215 
5.5125918794 5.2659633393 4.9155579264 4.5092200343 4.1588146215 3.9121860814 5.7885595667 5.6029703303 5.2659633393 
4.7123889804 4.1588146215 3.8218076305 3.6362183941 6.0560271438 5.9702140275 5.7885595667 5.2659633393 4.1588146215 
3.6362183941 3.4545639333 3.368750817 0.22715816343 0.49462574053 0.3129712797 0.77059342779 0.68021497688 0.49462574053 
1.0172219679 1.0172219679 1.0172219679 1.0172219679 1.2156949949 1.271087727 1.3676273807 1.5707963268 2.1243706857 
1.3676273807 1.447813335 1.5707963268 1.7739652728 2.1243706857 2.6469669131 1.4827341049 1.5707963268 1.6937793186 
1.8705049266 2.1243706857 2.4613776767 2.8286213739 1.5707963268 1.6588585487 1.7739652728 1.9258976586 2.1243706857 
2.3709992258 2.6469669131 2.9144344902 1.7563855631 1.8785697967 1.8563003522 2.0024758186 1.9913306621 1.9779583789 
2.1243706857 2.1243706857 2.1243706857 2.1243706857 2.2408671392 2.2510113037 2.2630782103 2.2776669786 2.295651703 
2.3494282469 2.3680303173 2.3899057108 2.4159740166 2.4475202889 2.486385773 2.448570738 2.4736848652 2.5028148801 
2.5369440334 2.5773755784 2.6258554882 2.6847397011 2.5377803997 2.5675431237 2.6015718084 2.6407557529 2.6862098746 
2.7393287203 2.8018393335 2.8758309421 1.6743954455 1.6743954455 1.7840462375 1.6743954455 1.7840462375 1.8974821136 
1.6743954455 1.7840462375 1.8974821136 2.0119052671 1.6743954455 1.7840462375 1.8974821136 2.0119052671 2.1243706857 
1.6743954455 1.7840462375 1.8974821136 2.0119052671 2.1243706857 2.232221744 1.6743954455 1.7840462375 1.8974821136 
2.0119052671 2.1243706857 2.232221744 2.3334263672 1.6743954455 1.7840462375 1.8974821136 2.0119052671 2.1243706857 
2.232221744 2.3334263672 2.426721652 1.4671972081 1.3575464161 1.4671972081 1.24411054 1.3575464161 1.4671972081 
1.1296873865 1.24411054 1.3575464161 1.4671972081 1.0172219679 1.1296873865 1.24411054 1.3575464161 1.4671972081 
0.90937090954 1.0172219679 1.1296873865 1.24411054 1.3575464161 1.4671972081 0.80816628637 0.90937090954 1.0172219679 
1.1296873865 1.24411054 1.3575464161 1.4671972081 0.71487100155 0.80816628637 0.90937090954 1.0172219679 1.1296873865 
1.24411054 1.3575464161 1.4671972081 0.60381225391 0.57404952988 0.69302191562 0.54002084522 0.66790778838 0.79216440667 
0.50083690068 0.63877777351 0.77356233629 0.90072551443 0.45538277901 0.60464862014 0.75168694275 0.89058134991 1.0172219679 
0.40226393329 0.56421707518 0.72561863695 0.87851444325 1.0172219679 1.139116835 0.33975332011 0.51573716537 0.69407236469 
0.86392567495 1.0172219679 1.1502619915 1.2630228569 0.26576171152 0.45685295248 0.6552068806 0.84594095064 1.0172219679 
1.1636342747 1.2852923014 1.3852070904 0.22715816343 0.3129712797 0.49462574053 0.49462574053 0.68021497688 0.77059342779 
1.0172219679 1.0172219679 1.0172219679 1.0172219679 2.1243706857 1.5707963268 1.3676273807 1.271087727 1.2156949949 
2.6469669131 2.1243706857 1.7739652728 1.5707963268 1.447813335 1.3676273807 2.8286213739 2.4613776767 2.1243706857 
1.8705049266 1.6937793186 1.5707963268 1.4827341049 2.9144344902 2.6469669131 2.3709992258 2.1243706857 1.9258976586 
1.7739652728 1.6588585487 1.5707963268 1.7563855631 1.8563003522 1.8785697967 1.9779583789 1.9913306621 2.0024758186 
2.1243706857 2.1243706857 2.1243706857 2.1243706857 2.295651703 2.2776669786 2.2630782103 2.2510113037 2.2408671392 
2.486385773 2.4475202889 2.4159740166 2.3899057108 2.3680303173 2.3494282469 2.6847397011 2.6258554882 2.5773755784 
2.5369440334 2.5028148801 2.4736848652 2.448570738 2.8758309421 2.8018393335 2.7393287203 2.6862098746 2.6407557529 
2.6015718084 2.5675431237 2.5377803997 5.8604937156 5.901393709 5.9723133995 5.9473927383 6.0216547488 6.0927478736 
5.9992719463 6.0767621038 6.1501452836 6.2190157008 6.0578962336 6.1383094565 6.2134963469 0 0.064169606361 
6.1241815303 6.206940195 6.2831853072 0.069688960264 0.13304002361 0.19043743361 6.1990255847 0 0.07624511221 
0.14487585072 0.20642320337 0.26153055843 0.3108719077 0 0.084159722458 0.15900377685 0.22528907359 0.28391336087 
0.3357925689 0.38179159818 0.42269159155 5.8604937156 5.9723133995 5.901393709 6.0927478736 6.0216547488 5.9473927383 
6.2190157008 6.1501452836 6.0767621038 5.9992719463 0.064169606361 0 6.2134963469 6.1383094565 6.0578962336 
0.19043743361 0.13304002361 0.069688960264 6.2831853072 6.206940195 6.1241815303 0.3108719077 0.26153055843 0.20642320337 
0.14487585072 0.07624511221 6.2831853072 6.1990255847 0.42269159155 0.38179159818 0.3357925689 0.28391336087 0.22528907359 
0.15900377685 0.084159722458 0 5.6793730533 5.7091357773 5.5901633916 5.743164462 5.6152775188 5.4910209005 
5.7823484065 5.6444075337 5.5096229709 5.3824597928 5.8278025282 5.678536687 5.5314983644 5.3926039573 5.2659633393 
5.8809213739 5.718968232 5.5575666702 5.4046708639 5.2659633393 5.1440684722 5.9434319871 5.7674481418 5.5891129425 
5.4192596322 5.2659633393 5.1329233157 5.0201624502 6.0174235957 5.8263323547 5.6279784266 5.4372443565 5.2659633393 
5.1195510325 4.9978930058 4.8979782167 1.3852070904 1.2852923014 1.2630228569 1.1636342747 1.1502619915 1.139116835 
1.0172219679 1.0172219679 1.0172219679 1.0172219679 0.84594095064 0.86392567495 0.87851444325 0.89058134991 0.90072551443 
0.6552068806 0.69407236469 0.72561863695 0.75168694275 0.77356233629 0.79216440667 0.45685295248 0.51573716537 0.56421707518 
0.60464862014 0.63877777351 0.66790778838 0.69302191562 0.26576171152 0.33975332011 0.40226393329 0.45538277901 0.50083690068 
0.54002084522 0.57404952988 0.60381225391 
_paraPhiHalf 1 1002 double
0 3.1415926536 0 3.1415926536 1.5707963268 1.5707963268 1.5707963268 1.5707963268 2.5880182947 
0.5535743589 2.5880182947 0.5535743589 0 0 0 0 3.1415926536 3.1415926536 
3.1415926536 3.1415926536 3.1415926536 0.17788134 0.38438696014 0.60631181711 0.82323535693 1.0172219679 1.1799687454 
1.3118704726 1.4175000338 1.5022335207 0.17788134 0.38438696014 0.60631181711 0.82323535693 1.0172219679 1.1799687454 
1.3118704726 1.4175000338 1.5022335207 0.093902416448 0.17615329733 0.2478725152 0.31035131605 0.36486382811 0.41257334776 
0.45449736604 0.4915044461 0.52432611754 0.093902416448 0.17615329733 0.2478725152 0.31035131605 0.36486382811 0.41257334776 
0.45449736604 0.4915044461 0.52432611754 2.9637113136 2.7572056934 2.5352808365 2.3183572967 2.1243706857 1.9616239082 
1.829722181 1.7240926197 1.6393591329 2.9637113136 2.7572056934 2.5352808365 2.3183572967 2.1243706857 1.9616239082 
1.829722181 1.7240926197 1.6393591329 3.0476902371 2.9654393563 2.8937201384 2.8312413375 2.7767288255 2.7290193058 
2.6870952876 2.6500882075 2.617266536 3.0476902371 2.9654393563 2.8937201384 2.8312413375 2.7767288255 2.7290193058 
2.6870952876 2.6500882075 2.617266536 0 0 0 0 3.1415926536 3.1415926536 
3.1415926536 3.1415926536 3.1415926536 0.17788134 0.38438696014 0.60631181711 0.82323535693 1.0172219679 1.1799687454 
1.3118704726 1.4175000338 1.5022335207 0.17788134 0.38438696014 0.60631181711 0.82323535693 1.0172219679 1.1799687454 
1.3118704726 1.4175000338 1.5022335207 0.093902416448 0.17615329733 0.2478725152 0.31035131605 0.36486382811 0.41257334776 
0.45449736604 0.4915044461 0.52432611754 0.093902416448 0.17615329733 0.2478725152 0.31035131605 0.36486382811 0.41257334776 
0.45449736604 0.4915044461 0.52432611754 2.9637113136 2.7572056934 2.5352808365 2.3183572967 2.1243706857 1.9616239082 
1.829722181 1.7240926197 1.6393591329 2.9637113136 2.7572056934 2.5352808365 2.3183572967 2.1243706857 1.9616239082 
1.829722181 1.7240926197 1.6393591329 3.0476902371 2.9654393563 2.8937201384 2.8312413375 2.7767288255 2.7290193058 
2.6870952876 2.6500882075 2.617266536 3.0476902371 2.9654393563 2.8937201384 2.8312413375 2.7767288255 2.7290193058 
2.6870952876 2.6500882075 2.617266536 1.5707963268 1.5707963268 1.5707963268 1.5707963268 1.5707963268 1.5707963268 
1.5707963268 1.5707963268 1.5707963268 1.6743954455 1.7840462375 1.8974821136 2.0119052671 2.1243706857 2.232221744 
2.3334263672 2.426721652 2.5115728246 1.4671972081 1.3575464161 1.24411054 1.1296873865 1.0172219679 0.90937090954 
0.80816628637 0.71487100155 0.63001982895 1.6743954455 1.7840462375 1.8974821136 2.0119052671 2.1243706857 2.232221744 
2.3334263672 2.426721652 2.5115728246 1.4671972081 1.3575464161 1.24411054 1.1296873865 1.0172219679 0.90937090954 
0.80816628637 0.71487100155 0.63001982895 1.5707963268 1.5707963268 1.5707963268 1.5707963268 1.5707963268 1.5707963268 
1.5707963268 1.5707963268 1.5707963268 1.6743954455 1.7840462375 1.8974821136 2.0119052671 2.1243706857 2.232221744 
2.3334263672 2.426721652 2.5115728246 1.4671972081 1.3575464161 1.24411054 1.1296873865 1.0172219679 0.90937090954 
0.80816628637 0.71487100155 0.63001982895 1.6743954455 1.7840462375 1.8974821136 2.0119052671 2.1243706857 2.232221744 
2.3334263672 2.426721652 2.5115728246 1.4671972081 1.3575464161 1.24411054 1.1296873865 1.0172219679 0.90937090954 
0.80816628637 0.71487100155 0.63001982895 2.6824132222 2.7864913217 2.8992382033 3.0186096618 3.1415926536 3.0186096618 
2.8992382033 2.7864913217 2.6824132222 0.45917943135 0.35510133185 0.2423544503 0.12298299178 0 0.12298299178 
0.2423544503 0.35510133185 0.45917943135 0.22715816343 0.49462574053 0.3129712797 0.77059342779 0.68021497688 0.49462574053 
1.0172219679 1.0172219679 1.0172219679 1.0172219679 1.2156949949 1.271087727 1.3676273807 1.5707963268 2.1243706857 
1.3676273807 1.447813335 1.5707963268 1.7739652728 2.1243706857 2.6469669131 1.4827341049 1.5707963268 1.6937793186 
1.8705049266 2.1243706857 2.4613776767 2.8286213739 1.5707963268 1.6588585487 1.7739652728 1.9258976586 2.1243706857 
2.3709992258 2.6469669131 2.9144344902 0.26576171152 0.33975332011 0.45685295248 0.40226393329 0.51573716537 0.6552068806 
0.45538277901 0.56421707518 0.69407236469 0.84594095064 0.50083690068 0.60464862014 0.72561863695 0.86392567495 1.0172219679 
0.54002084522 0.63877777351 0.75168694275 0.87851444325 1.0172219679 1.1636342747 0.57404952988 0.66790778838 0.77356233629 
0.89058134991 1.0172219679 1.1502619915 1.2852923014 0.60381225391 0.69302191562 0.79216440667 0.90072551443 1.0172219679 
1.139116835 1.2630228569 1.3852070904 0.71487100155 0.80816628637 0.80816628637 0.90937090954 0.90937090954 0.90937090954 
1.0172219679 1.0172219679 1.0172219679 1.0172219679 1.1296873865 1.1296873865 1.1296873865 1.1296873865 1.1296873865 
1.24411054 1.24411054 1.24411054 1.24411054 1.24411054 1.24411054 1.3575464161 1.3575464161 1.3575464161 
1.3575464161 1.3575464161 1.3575464161 1.3575464161 1.4671972081 1.4671972081 1.4671972081 1.4671972081 1.4671972081 
1.4671972081 1.4671972081 1.4671972081 1.6743954455 1.6743954455 1.7840462375 1.6743954455 1.7840462375 1.8974821136 
1.6743954455 1.7840462375 1.8974821136 2.0119052671 1.6743954455 1.7840462375 1.8974821136 2.0119052671 2.1243706857 
1.6743954455 1.7840462375 1.8974821136 2.0119052671 2.1243706857 2.232221744 1.6743954455 1.7840462375 1.8974821136 
2.0119052671 2.1243706857 2.232221744 2.3334263672 1.6743954455 1.7840462375 1.8974821136 2.0119052671 2.1243706857 
2.232221744 2.3334263672 2.426721652 1.7563855631 1.8785697967 1.8563003522 2.0024758186 1.9913306621 1.9779583789 
2.1243706857 2.1243706857 2.1243706857 2.1243706857 2.2408671392 2.2510113037 2.2630782103 2.2776669786 2.295651703 
2.3494282469 2.3680303173 2.3899057108 2.4159740166 2.4475202889 2.486385773 2.448570738 2.4736848652 2.5028148801 
2.5369440334 2.5773755784 2.6258554882 2.6847397011 2.5377803997 2.5675431237 2.6015718084 2.6407557529 2.6862098746 
2.7393287203 2.8018393335 2.8758309421 2.718901062 2.8307207459 2.7598010554 2.95115522 2.8800620952 2.8058000847 
3.0774230472 3.00855263 2.9351694502 2.8576792927 3.0774230472 3.1415926536 3.0719036933 2.9967168029 2.91630358 
2.95115522 3.00855263 3.0719036933 3.1415926536 3.0653475414 2.9825888767 2.8307207459 2.8800620952 2.9351694502 
2.9967168029 3.0653475414 3.1415926536 3.0574329311 2.718901062 2.7598010554 2.8058000847 2.8576792927 2.91630358 
2.9825888767 3.0574329311 3.1415926536 2.718901062 2.7598010554 2.8307207459 2.8058000847 2.8800620952 2.95115522 
2.8576792927 2.9351694502 3.00855263 3.0774230472 2.91630358 2.9967168029 3.0719036933 3.1415926536 3.0774230472 
2.9825888767 3.0653475414 3.1415926536 3.0719036933 3.00855263 2.95115522 3.0574329311 3.1415926536 3.0653475414 