# vtk DataFile Version 5.1
vtk output
ASCII
DATASET POLYDATA
POINTS 1002 float
-4.68009 -0.209777 -3.08305 4.79896 0.148775 -3.91677 -4.4661 0.151712 3.55723 
4.65556 -0.0252422 4.53765 0.0675401 5.66937 -2.87447 -0.201844 5.47985 2.62955 
-0.262449 -5.39555 -2.55544 -0.185762 -5.73907 2.86647 8.02 3.60677 -0.0284926 
-8.27172 4.10376 -0.220618 8.96657 -4.05632 -1.03197 -8.46695 -4.11285 -0.109856 
-3.90204 -0.146181 -3.05125 -3.04072 -0.0833174 -3.08001 -2.08661 -0.0313174 -3.18756 
-1.04659 0.024141 -3.34456 0.0327847 0.0922498 -3.53667 1.09669 0.143776 -3.76661 
2.11956 0.154607 -3.97053 3.08939 0.145943 -4.05565 3.98798 0.14469 -4.01567 
-4.35781 0.324745 -3.07128 -3.97517 0.906626 -3.05227 -3.53412 1.53555 -3.04165 
-3.03548 2.20429 -3.05623 -2.48875 2.88805 -3.09993 -1.92075 3.55248 -3.1601 
-1.36309 4.17516 -3.20834 -0.837457 4.74576 -3.19889 -0.357483 5.24973 -3.08954 
-4.48752 -0.706867 -3.04864 -4.22908 -1.24106 -3.0035 -3.89157 -1.79647 -2.97151 
-3.46655 -2.36821 -2.96761 -2.96213 -2.96246 -2.98847 -2.4104 -3.56049 -3.01146 
-1.84924 -4.11717 -3.00014 -1.29903 -4.60739 -2.92269 -0.767052 -5.03336 -2.77006 
-5.25836 0.0736809 -3.11232 -5.86584 0.418131 -3.08228 -6.46646 0.821704 -2.96439 
-7.01804 1.25787 -2.79542 -7.49781 1.7152 -2.62186 -7.89446 2.22614 -2.38865 
-8.18366 2.79919 -1.9871 -8.34008 3.35826 -1.41677 -8.36238 3.8054 -0.792703 
-5.34219 -0.582767 -3.11354 -6.03481 -0.998217 -3.1148 -6.72533 -1.46298 -3.05826 
-7.40048 -1.99707 -2.95474 -8.03762 -2.60017 -2.80141 -8.54819 -3.20258 -2.51117 
-8.82433 -3.68794 -2.00023 -8.85041 -3.98364 -1.33083 -8.7036 -4.10431 -0.663997 
4.53006 0.657766 -4.0041 4.19335 1.21605 -4.06947 3.77907 1.81593 -4.07832 
3.28506 2.44088 -4.00212 2.7306 3.07454 -3.8581 2.15812 3.702 -3.6982 
1.6052 4.297 -3.54482 1.07811 4.82822 -3.37119 0.565582 5.2832 -3.14761 
4.52755 -0.363556 -3.87033 4.17888 -0.924356 -3.77786 3.75315 -1.51415 -3.64864 
3.25232 -2.10949 -3.49777 2.68301 -2.69965 -3.32206 2.06338 -3.28548 -3.11923 
1.42528 -3.86348 -2.9259 0.807474 -4.42082 -2.78234 0.240796 -4.93883 -2.67496 
5.4281 0.463091 -3.84419 6.06111 0.80419 -3.72377 6.66794 1.17717 -3.54566 
7.22879 1.5864 -3.29778 7.71845 2.02396 -2.96576 8.08245 2.4676 -2.52301 
8.26866 2.88053 -1.94965 8.28325 3.21863 -1.28387 8.18214 3.45717 -0.617635 
5.44752 -0.17406 -3.78853 6.14259 -0.559399 -3.64173 6.8513 -1.01131 -3.43555 
7.52959 -1.50021 -3.15004 8.14784 -1.99917 -2.85651 8.68721 -2.52722 -2.62863 
9.0953 -3.08736 -2.40456 9.28921 -3.59066 -2.06274 9.2306 -3.92338 -1.58034 
-3.73141 0.105886 3.74252 -2.9055 0.0399395 3.94487 -1.9937 -0.0317059 4.1837 
-1.01353 -0.0986856 4.43113 0.00374213 -0.153861 4.60189 1.02552 -0.181515 4.65208 
2.02732 -0.170859 4.63674 2.98349 -0.13225 4.61965 3.86526 -0.0815163 4.59845 
-4.23811 0.669395 3.61966 -3.94728 1.23431 3.67763 -3.59356 1.84711 3.72818 
-3.18336 2.49971 3.74547 -2.71984 3.16183 3.7018 -2.20965 3.78656 3.59122 
-1.67796 4.33588 3.41734 -1.15652 4.79637 3.18465 -0.662625 5.17346 2.91208 
-4.20927 -0.391897 3.59602 -3.89395 -0.988177 3.61934 -3.52432 -1.62259 3.6365 
-3.09999 -2.28472 3.66718 -2.62286 -2.96481 3.70607 -2.11349 -3.63124 3.70028 
-1.60241 -4.24487 3.59648 -1.1073 -4.79633 3.39662 -0.633231 -5.29554 3.14172 
-5.04935 0.501979 3.39761 -5.65429 0.876394 3.19282 -6.25224 1.2826 2.9282 
-6.80965 1.72775 2.58427 -7.3089 2.19785 2.15406 -7.74854 2.66498 1.67488 
-8.10703 3.11453 1.20057 -8.33158 3.53206 0.738045 -8.38286 3.8766 0.262957 
-5.03369 -0.160442 3.37905 -5.62779 -0.527256 3.14312 -6.22716 -0.940233 2.84928 
-6.80643 -1.38799 2.51772 -7.33928 -1.86482 2.15682 -7.79751 -2.3594 1.75431 
-8.14963 -2.84942 1.31374 -8.37314 -3.31631 0.854848 -8.47096 -3.74522 0.381412 
4.43892 0.479737 4.46781 4.14237 1.02191 4.3487 3.74924 1.61361 4.20786 
3.25854 2.24444 4.05627 2.69076 2.8697 3.87361 2.07951 3.45871 3.64335 
1.46121 4.02047 3.38502 0.866392 4.5581 3.12772 0.310952 5.04975 2.87806 
4.34508 -0.586827 4.61568 3.96014 -1.21555 4.66101 3.49505 -1.89266 4.66934 
2.95615 -2.59381 4.62767 2.36879 -3.29694 4.51645 1.77336 -3.97247 4.31662 
1.20991 -4.575 4.02129 0.699071 -5.06752 3.65241 0.237667 -5.448 3.25483 
5.31086 0.35623 4.38955 6.00652 0.771957 4.15174 6.70879 1.20609 3.8048 
7.34908 1.64123 3.35187 7.84576 2.06056 2.81656 8.15739 2.44856 2.23486 
8.29765 2.79777 1.64297 8.29997 3.11001 1.06272 8.19629 3.38353 0.502702 
5.24753 -0.310617 4.45089 5.87777 -0.636223 4.20344 6.53689 -1.0058 3.74671 
7.17794 -1.41584 3.09931 7.72739 -1.84254 2.34248 8.16076 -2.26643 1.56944 
8.51707 -2.71139 0.834177 8.80522 -3.19993 0.14708 8.97013 -3.68032 -0.484302 
-0.00107151 6.13062 -2.46567 -0.0888723 6.58313 -1.92233 -0.176341 6.95497 -1.28571 
-0.242126 7.16584 -0.620157 -0.279214 7.17928 0.0387458 -0.29326 7.01571 0.684523 
-0.288406 6.71825 1.29379 -0.266462 6.33252 1.82733 -0.23431 5.90625 2.26883 
0.794008 5.79235 -2.75172 1.57459 5.84303 -2.54346 2.40707 5.81846 -2.27405 
3.28786 5.71381 -1.97581 4.19511 5.5139 -1.66436 5.0962 5.22168 -1.3395 
5.96309 4.8657 -1.00135 6.76184 4.4682 -0.660111 7.45337 4.04123 -0.332235 
-0.712172 5.77286 -2.71152 -1.57394 5.82833 -2.49155 -2.48623 5.83315 -2.23173 
-3.43012 5.78427 -1.94386 -4.40422 5.67375 -1.63314 -5.38479 5.50239 -1.3183 
-6.30901 5.27349 -1.02231 -7.11479 4.96976 -0.74481 -7.77109 4.57346 -0.475511 
0.591064 5.50086 2.49201 1.46935 5.51179 2.32908 2.41049 5.50175 2.1368 
3.38455 5.4391 1.90784 4.35605 5.29866 1.63788 5.2794 5.07149 1.33274 
6.11411 4.75874 1.00729 6.84604 4.38481 0.672377 7.47983 3.99193 0.327391 
-1.0109 5.7117 2.53883 -1.90706 5.9333 2.41977 -2.87307 6.10419 2.26896 
-3.86747 6.16667 2.06743 -4.83962 6.08199 1.78665 -5.74957 5.86016 1.42143 
-6.56561 5.53245 1.00467 -7.25992 5.11662 0.579498 -7.82329 4.62956 0.169402 
-0.247589 -5.86077 -2.26442 -0.224011 -6.29685 -1.837 -0.195794 -6.6496 -1.28162 
-0.166279 -6.88711 -0.658399 -0.140624 -7.00124 -0.0229506 -0.127408 -6.98316 0.618928 
-0.131417 -6.8216 1.26686 -0.14799 -6.52901 1.88163 -0.168205 -6.14983 2.41892 
0.566282 -5.44471 -2.37333 1.49191 -5.44345 -2.13807 2.49915 -5.3873 -1.8812 
3.56246 -5.31254 -1.66228 4.6504 -5.2799 -1.53488 5.72722 -5.28361 -1.49536 
6.74744 -5.21722 -1.47791 7.65501 -4.97886 -1.40861 8.40101 -4.56715 -1.25563 
-1.07168 -5.59711 -2.53999 -1.95422 -5.75017 -2.46569 -2.9059 -5.83171 -2.33031 
-3.91013 -5.82376 -2.13746 -4.93225 -5.7176 -1.88184 -5.91782 -5.53211 -1.56368 
-6.79841 -5.29383 -1.20236 -7.51898 -4.99038 -0.823277 -8.06709 -4.5926 -0.450427 
0.536388 -5.98395 2.80431 1.33805 -6.16528 2.68212 2.22225 -6.19283 2.44501 
3.19554 -6.01566 2.06234 4.25408 -5.69185 1.56668 5.35683 -5.34041 1.02099 
6.42965 -5.02495 0.463646 7.40789 -4.72873 -0.0843414 8.25886 -4.41272 -0.59294 
-0.904861 -5.7242 2.64929 -1.71442 -5.6801 2.40591 -2.59502 -5.59587 2.12542 
-3.51607 -5.45022 1.79783 -4.46691 -5.24198 1.43403 -5.44456 -5.00558 1.06796 
-6.39926 -4.78314 0.735893 -7.24487 -4.58217 0.44604 -7.93105 -4.37047 0.173306 
8.64933 3.06868 -0.0764921 9.29894 2.44488 -0.135731 9.96142 1.72174 -0.221279 
10.58 0.894297 -0.369452 11.0122 -0.0163714 -0.593148 11.1059 -0.960775 -0.837097 
10.8338 -1.87708 -1.01896 10.3042 -2.71281 -1.10231 9.65242 -3.44051 -1.09902 
-8.78467 3.41641 -0.310913 -9.29119 2.63106 -0.40518 -9.75146 1.75804 -0.48328 
-10.0949 0.809517 -0.511087 -10.2415 -0.166513 -0.460921 -10.15 -1.10787 -0.34576 
-9.8532 -1.99471 -0.220133 -9.43281 -2.82104 -0.135468 -8.96011 -3.54319 -0.10464 
-3.5286 0.411256 -3.072 -3.09511 1.01849 -3.10633 -2.61174 0.493849 -3.14917 
-2.59964 1.67017 -3.16256 -2.11865 1.12722 -3.2415 -1.59229 0.565264 -3.29368 
-2.04991 2.34998 -3.24397 -1.56694 1.79855 -3.35798 -1.04102 1.22135 -3.42177 
-0.49312 0.637389 -3.47048 -1.4727 3.03076 -3.33732 -0.984911 2.47687 -3.48775 
-0.459932 1.89621 -3.57245 0.087597 1.29553 -3.6219 0.618556 0.702412 -3.68991 
-0.901717 3.68565 -3.41163 -0.409568 3.13807 -3.59152 0.113133 2.55075 -3.71131 
0.659842 1.94407 -3.78269 1.20019 1.33087 -3.85663 1.69294 0.727486 -3.93547 
-0.361077 4.29295 -3.42591 0.135742 3.76615 -3.621 0.655859 3.17647 -3.77032 
1.20224 2.5588 -3.88154 1.75421 1.9363 -3.98123 2.26917 1.31528 -4.0662 
2.71529 0.710388 -4.09772 0.132445 4.83137 -3.342 0.636712 4.33802 -3.54842 
1.15807 3.76743 -3.71084 1.70635 3.14809 -3.8517 2.2694 2.51603 -3.98782 
2.80628 1.88653 -4.09764 3.27719 1.26868 -4.14039 3.66857 0.681872 -4.10475 
-4.92306 0.660264 -3.06699 -5.51607 1.06793 -2.99938 -4.51548 1.30244 -3.00381 
-6.0946 1.53742 -2.85435 -5.07862 1.77971 -2.90579 -4.03965 1.99916 -2.95374 
-6.60973 2.02541 -2.67323 -5.6182 2.30881 -2.75762 -4.5564 2.54286 -2.84387 
-3.49834 2.72954 -2.9394 -7.03953 2.52777 -2.46943 -6.08754 2.84011 -2.5712 
-5.04085 3.11825 -2.70175 -3.95961 3.31559 -2.8191 -2.90934 3.44755 -2.95643 
-7.38171 3.08833 -2.15942 -6.47387 3.38876 -2.3067 -5.46254 3.68673 -2.48121 
-4.39014 3.91287 -2.65204 -3.32639 4.03986 -2.80186 -2.31085 4.11607 -2.9834 
-7.6258 3.68474 -1.6754 -6.78082 3.97997 -1.89421 -5.81873 4.26116 -2.11803 
-4.77712 4.49458 -2.35312 -3.72413 4.63229 -2.56462 -2.70564 4.69464 -2.76331 
-1.73608 4.73088 -2.98238 -7.75648 4.20756 -1.076 -6.99935 4.5422 -1.3431 
-6.10607 4.81759 -1.60726 -5.11377 5.04153 -1.88826 -4.08925 5.19342 -2.16921 
-3.08684 5.26721 -2.4271 -2.12024 5.29342 -2.67058 -1.20028 5.29072 -2.90109 
-7.27262 5.13895 -0.0762571 -6.64292 5.6337 0.33982 -6.54657 5.54394 -0.354434 
-5.87638 6.04831 0.764855 -5.84132 6.03419 0.0501015 -5.66096 5.83742 -0.660378 
-4.99889 6.38939 1.17304 -5.01322 6.46635 0.459411 -4.89014 6.33557 -0.28153 
-4.67333 6.05803 -0.995857 -4.04715 6.60653 1.51925 -4.10158 6.82661 0.84613 
-4.02684 6.79305 0.104776 -3.86805 6.57534 -0.643601 -3.66396 6.22799 -1.34815 
-3.05221 6.62112 1.77842 -3.13883 6.99455 1.16887 -3.10919 7.12322 0.468415 
-2.9992 7.02129 -0.273533 -2.85393 6.74527 -1.01278 -2.68265 6.33028 -1.68945 
-2.05358 6.44574 1.97217 -2.14934 6.89869 1.42073 -2.16034 7.18617 0.777688 
[...]
POINT_DATA 1002
FIELD FieldData 4
_paraPhi 1 1002 double
6.2831853072 3.1415926536 6.2831853072 3.1415926536 4.7123889804 4.7123889804 1.5707963268 1.5707963268 3.6951670125 
5.7296109483 2.5880182947 0.5535743589 6.2831853072 6.2831853072 6.2831853072 6.2831853072 3.1415926536 3.1415926536 
3.1415926536 3.1415926536 3.1415926536 6.1053039672 5.898798347 5.6768734901 5.4599499503 5.2659633393 5.1032165617 
4.9713148346 4.8656852733 4.7809517865 0.17788134 0.38438696014 0.60631181711 0.82323535693 1.0172219679 1.1799687454 
1.3118704726 1.4175000338 1.5022335207 6.1892828907 6.1070320098 6.035312792 5.9728339911 5.9183214791 5.8706119594 
5.8286879411 5.7916808611 5.7588591896 0.093902416448 0.17615329733 0.2478725152 0.31035131605 0.36486382811 0.41257334776 
0.45449736604 0.4915044461 0.52432611754 3.3194739936 3.5259796137 3.7479044707 3.9648280105 4.1588146215 4.321561399 
4.4534631262 4.5590926874 4.6438261743 2.9637113136 2.7572056934 2.5352808365 2.3183572967 2.1243706857 1.9616239082 
1.829722181 1.7240926197 1.6393591329 3.23549507 3.3177459509 3.3894651688 3.4519439696 3.5064564817 3.5541660013 
3.5960900196 3.6330970997 3.6659187711 3.0476902371 2.9654393563 2.8937201384 2.8312413375 2.7767288255 2.7290193058 
2.6870952876 2.6500882075 2.617266536 6.2831853072 6.2831853072 6.2831853072 6.2831853072 3.1415926536 3.1415926536 
3.1415926536 3.1415926536 3.1415926536 6.1053039672 5.898798347 5.6768734901 5.4599499503 5.2659633393 5.1032165617 
4.9713148346 4.8656852733 4.7809517865 0.17788134 0.38438696014 0.60631181711 0.82323535693 1.0172219679 1.1799687454 
1.3118704726 1.4175000338 1.5022335207 6.1892828907 6.1070320098 6.035312792 5.9728339911 5.9183214791 5.8706119594 
5.8286879411 5.7916808611 5.7588591896 0.093902416448 0.17615329733 0.2478725152 0.31035131605 0.36486382811 0.41257334776 
0.45449736604 0.4915044461 0.52432611754 3.3194739936 3.5259796137 3.7479044707 3.9648280105 4.1588146215 4.321561399 
4.4534631262 4.5590926874 4.6438261743 2.9637113136 2.7572056934 2.5352808365 2.3183572967 2.1243706857 1.9616239082 
1.829722181 1.7240926197 1.6393591329 3.23549507 3.3177459509 3.3894651688 3.4519439696 3.5064564817 3.5541660013 
3.5960900196 3.6330970997 3.6659187711 3.0476902371 2.9654393563 2.8937201384 2.8312413375 2.7767288255 2.7290193058 
2.6870952876 2.6500882075 2.617266536 4.7123889804 4.7123889804 4.7123889804 4.7123889804 4.7123889804 4.7123889804 
4.7123889804 4.7123889804 4.7123889804 4.6087898617 4.4991390697 4.3857031936 4.2712800401 4.1588146215 4.0509635631 
3.94975894 3.8564636551 3.7716124825 4.8159880991 4.9256388911 5.0390747672 5.1534979207 5.2659633393 5.3738143976 
5.4750190208 5.5683143056 5.6531654782 4.6087898617 4.4991390697 4.3857031936 4.2712800401 4.1588146215 4.0509635631 
3.94975894 3.8564636551 3.7716124825 4.8159880991 4.9256388911 5.0390747672 5.1534979207 5.2659633393 5.3738143976 
5.4750190208 5.5683143056 5.6531654782 1.5707963268 1.5707963268 1.5707963268 1.5707963268 1.5707963268 1.5707963268 
1.5707963268 1.5707963268 1.5707963268 1.6743954455 1.7840462375 1.8974821136 2.0119052671 2.1243706857 2.232221744 
2.3334263672 2.426721652 2.5115728246 1.4671972081 1.3575464161 1.24411054 1.1296873865 1.0172219679 0.90937090954 
0.80816628637 0.71487100155 0.63001982895 1.6743954455 1.7840462375 1.8974821136 2.0119052671 2.1243706857 2.232221744 
2.3334263672 2.426721652 2.5115728246 1.4671972081 1.3575464161 1.24411054 1.1296873865 1.0172219679 0.90937090954 
0.80816628637 0.71487100155 0.63001982895 3.6007720849 3.4966939854 3.3839471039 3.2645756454 3.1415926536 3.0186096618 
2.8992382033 2.7864913217 2.6824132222 5.8240058758 5.9280839753 6.0408308569 6.1602023154 6.2831853072 0.12298299178 
0.2423544503 0.35510133185 0.45917943135 6.0560271438 5.7885595667 5.9702140275 5.5125918794 5.6029703303 5.7885595667 
5.2659633393 5.2659633393 5.2659633393 5.2659633393 5.0674903122 5.0120975802 4.9155579264 4.7123889804 4.1588146215 
4.9155579264 4.8353719722 4.7123889804 4.5092200343 4.1588146215 3.6362183941 4.8004512023 4.7123889804 4.5894059886 
4.4126803806 4.1588146215 3.8218076305 3.4545639333 4.7123889804 4.6243267584 4.5092200343 4.3572876485 4.1588146215 
3.9121860814 3.6362183941 3.368750817 6.0174235957 5.9434319871 5.8263323547 5.8809213739 5.7674481418 5.6279784266 
5.8278025282 5.718968232 5.5891129425 5.4372443565 5.7823484065 5.678536687 5.5575666702 5.4192596322 5.2659633393 
5.743164462 5.6444075337 5.5314983644 5.4046708639 5.2659633393 5.1195510325 5.7091357773 5.6152775188 5.5096229709 
5.3926039573 5.2659633393 5.1329233157 4.9978930058 5.6793730533 5.5901633916 5.4910209005 5.3824597928 5.2659633393 
5.1440684722 5.0201624502 4.8979782167 5.5683143056 5.4750190208 5.4750190208 5.3738143976 5.3738143976 5.3738143976 
5.2659633393 5.2659633393 5.2659633393 5.2659633393 5.1534979207 5.1534979207 5.1534979207 5.1534979207 5.1534979207 
5.0390747672 5.0390747672 5.0390747672 5.0390747672 5.0390747672 5.0390747672 4.9256388911 4.9256388911 4.9256388911 
4.9256388911 4.9256388911 4.9256388911 4.9256388911 4.8159880991 4.8159880991 4.8159880991 4.8159880991 4.8159880991 
4.8159880991 4.8159880991 4.8159880991 4.6087898617 4.6087898617 4.4991390697 4.6087898617 4.4991390697 4.3857031936 
4.6087898617 4.4991390697 4.3857031936 4.2712800401 4.6087898617 4.4991390697 4.3857031936 4.2712800401 4.1588146215 
4.6087898617 4.4991390697 4.3857031936 4.2712800401 4.1588146215 4.0509635631 4.6087898617 4.4991390697 4.3857031936 
4.2712800401 4.1588146215 4.0509635631 3.94975894 4.6087898617 4.4991390697 4.3857031936 4.2712800401 4.1588146215 
4.0509635631 3.94975894 3.8564636551 4.526799744 4.4046155105 4.426884955 4.2807094886 4.2918546451 4.3052269283 
4.1588146215 4.1588146215 4.1588146215 4.1588146215 4.042318168 4.0321740035 4.0201070968 4.0055183285 3.9875336042 
3.9337570603 3.9151549899 3.8932795963 3.8672112905 3.8356650183 3.7967995342 3.8346145692 3.809500442 3.7803704271 
3.7462412737 3.7058097288 3.657329819 3.5984456061 3.7454049075 3.7156421835 3.6816134988 3.6424295543 3.5969754326 
3.5438565869 3.4813459737 3.4073543651 3.5642842451 3.4524645613 3.5233842518 3.3320300872 3.403123212 3.4773852225 
3.20576226 3.2746326772 3.348015857 3.4255060145 3.0774230472 3.1415926536 3.2112816139 3.2864685043 3.3668817272 
2.95115522 3.00855263 3.0719036933 3.1415926536 3.2178377658 3.3005964304 2.8307207459 2.8800620952 2.9351694502 
2.9967168029 3.0653475414 3.1415926536 3.225752376 2.718901062 2.7598010554 2.8058000847 2.8576792927 2.91630358 
2.9825888767 3.0574329311 3.1415926536 3.5642842451 3.5233842518 3.4524645613 3.4773852225 3.403123212 3.3320300872 
3.4255060145 3.348015857 3.2746326772 3.20576226 3.3668817272 3.2864685043 3.2112816139 3.1415926536 3.0774230472 
3.3005964304 3.2178377658 3.1415926536 3.0719036933 3.00855263 2.95115522 3.225752376 3.1415926536 3.0653475414 
2.9967168029 2.9351694502 2.8800620952 2.8307207459 3.1415926536 3.0574329311 2.9825888767 2.91630358 2.8576792927 
2.8058000847 2.7598010554 2.718901062 4.526799744 4.426884955 4.4046155105 4.3052269283 4.2918546451 4.2807094886 
4.1588146215 4.1588146215 4.1588146215 4.1588146215 3.9875336042 4.0055183285 4.0201070968 4.0321740035 4.042318168 
3.7967995342 3.8356650183 3.8672112905 3.8932795963 3.9151549899 3.9337570603 3.5984456061 3.657329819 3.7058097288 
3.7462412737 3.7803704271 3.809500442 3.8346145692 3.4073543651 3.4813459737 3.5438565869 3.5969754326 3.6424295543 
3.6816134988 3.7156421835 3.7454049075 4.7123889804 4.8004512023 4.6243267584 4.9155579264 4.7123889804 4.5092200343 
5.0674903122 4.8353719722 4.5894059886 4.3572876485 5.2659633393 5.0120975802 4.7123889804 4.4126803806 4.1588146215 
5.5125918794 5.2659633393 4.9155579264 4.5092200343 4.1588146215 3.9121860814 5.7885595667 5.6029703303 5.2659633393 
4.7123889804 4.1588146215 3.8218076305 3.6362183941 6.0560271438 5.9702140275 5.7885595667 5.2659633393 4.1588146215 
3.6362183941 3.4545639333 3.368750817 0.22715816343 0.49462574053 0.3129712797 0.77059342779 0.68021497688 0.49462574053 
1.0172219679 1.0172219679 1.0172219679 1.0172219679 1.2156949949 1.271087727 1.3676273807 1.5707963268 2.1243706857 
1.3676273807 1.447813335 1.5707963268 1.7739652728 2.1243706857 2.6469669131 1.4827341049 1.5707963268 1.6937793186 
1.8705049266 2.1243706857 2.4613776767 2.8286213739 1.5707963268 1.6588585487 1.7739652728 1.9258976586 2.1243706857 
2.3709992258 2.6469669131 2.9144344902 1.7563855631 1.8785697967 1.8563003522 2.0024758186 1.9913306621 1.9779583789 
2.1243706857 2.1243706857 2.1243706857 2.1243706857 2.2408671392 2.2510113037 2.2630782103 2.2776669786 2.295651703 
2.3494282469 2.3680303173 2.3899057108 2.4159740166 2.4475202889 2.486385773 2.448570738 2.4736848652 2.5028148801 
2.5369440334 2.5773755784 2.6258554882 2.6847397011 2.5377803997 2.5675431237 2.6015718084 2.6407557529 2.6862098746 
2.7393287203 2.8018393335 2.8758309421 1.6743954455 1.6743954455 1.7840462375 1.6743954455 1.7840462375 1.8974821136 
1.6743954455 1.7840462375 1.8974821136 2.0119052671 1.6743954455 1.7840462375 1.8974821136 2.0119052671 2.1243706857 
1.6743954455 1.7840462375 1.8974821136 2.0119052671 2.1243706857 2.232221744 1.6743954455 1.7840462375 1.8974821136 
2.0119052671 2.1243706857 2.232221744 2.3334263672 1.6743954455 1.7840462375 1.8974821136 2.0119052671 2.1243706857 
2.232221744 2.3334263672 2.426721652 1.4671972081 1.3575464161 1.4671972081 1.24411054 1.3575464161 1.4671972081 
1.1296873865 1.24411054 1.3575464161 1.4671972081 1.0172219679 1.1296873865 1.24411054 1.3575464161 1.4671972081 
0.90937090954 1.0172219679 1.1296873865 1.24411054 1.3575464161 1.4671972081 0.80816628637 0.90937090954 1.0172219679 
1.1296873865 1.24411054 1.3575464161 1.4671972081 0.71487100155 0.80816628637 0.90937090954 1.0172219679 1.1296873865 
1.24411054 1.3575464161 1.4671972081 0.60381225391 0.57404952988 0.69302191562 0.54002084522 0.66790778838 0.79216440667 
0.50083690068 0.63877777351 0.77356233629 0.90072551443 0.45538277901 0.60464862014 0.75168694275 0.89058134991 1.0172219679 
0.40226393329 0.56421707518 0.72561863695 0.87851444325 1.0172219679 1.139116835 0.33975332011 0.51573716537 0.69407236469 
0.86392567495 1.0172219679 1.1502619915 1.2630228569 0.26576171152 0.45685295248 0.6552068806 0.84594095064 1.0172219679 
1.1636342747 1.2852923014 1.3852070904 0.22715816343 0.3129712797 0.49462574053 0.49462574053 0.68021497688 0.77059342779 
1.0172219679 1.0172219679 1.0172219679 1.0172219679 2.1243706857 1.5707963268 1.3676273807 1.271087727 1.2156949949 
2.6469669131 2.1243706857 1.7739652728 1.5707963268 1.447813335 1.3676273807 2.8286213739 2.4613776767 2.1243706857 
1.8705049266 1.6937793186 1.5707963268 1.4827341049 2.9144344902 2.6469669131 2.3709992258 2.1243706857 1.9258976586 
1.7739652728 1.6588585487 1.5707963268 1.7563855631 1.8563003522 1.8785697967 1.9779583789 1.9913306621 2.0024758186 
2.1243706857 2.1243706857 2.1243706857 2.1243706857 2.295651703 2.2776669786 2.2630782103 2.2510113037 2.2408671392 
2.486385773 2.4475202889 2.4159740166 2.3899057108 2.3680303173 2.3494282469 2.6847397011 2.6258554882 2.5773755784 
2.5369440334 2.5028148801 2.4736848652 2.448570738 2.8758309421 2.8018393335 2.7393287203 2.6862098746 2.6407557529 
2.6015718084 2.5675431237 2.5377803997 5.8604937156 5.901393709 5.9723133995 5.9473927383 6.0216547488 6.0927478736 
5.9992719463 6.0767621038 6.1501452836 6.2190157008 6.0578962336 6.1383094565 6.2134963469 0 0.064169606361 
6.1241815303 6.206940195 6.2831853072 0.069688960264 0.13304002361 0.19043743361 6.1990255847 0 0.07624511221 
0.14487585072 0.20642320337 0.26153055843 0.3108719077 0 0.084159722458 0.15900377685 0.22528907359 0.28391336087 
0.3357925689 0.38179159818 0.42269159155 5.8604937156 5.9723133995 5.901393709 6.0927478736 6.0216547488 5.9473927383 
6.2190157008 6.1501452836 6.0767621038 5.9992719463 0.064169606361 0 6.2134963469 6.1383094565 6.0578962336 
0.19043743361 0.13304002361 0.069688960264 6.2831853072 6.206940195 6.1241815303 0.3108719077 0.26153055843 0.20642320337 
0.14487585072 0.07624511221 6.2831853072 6.1990255847 0.42269159155 0.38179159818 0.3357925689 0.28391336087 0.22528907359 
0.15900377685 0.084159722458 0 5.6793730533 5.7091357773 5.5901633916 5.743164462 5.6152775188 5.4910209005 
5.7823484065 5.6444075337 5.5096229709 5.3824597928 5.8278025282 5.678536687 5.5314983644 5.3926039573 5.2659633393 
5.8809213739 5.718968232 5.5575666702 5.4046708639 5.2659633393 5.1440684722 5.9434319871 5.7674481418 5.5891129425 
5.4192596322 5.2659633393 5.1329233157 5.0201624502 6.0174235957 5.8263323547 5.6279784266 5.4372443565 5.2659633393 
5.1195510325 4.9978930058 4.8979782167 1.3852070904 1.2852923014 1.2630228569 1.1636342747 1.1502619915 1.139116835 
1.0172219679 1.0172219679 1.0172219679 1.0172219679 0.84594095064 0.86392567495 0.87851444325 0.89058134991 0.90072551443 
0.6552068806 0.69407236469 0.72561863695 0.75168694275 0.77356233629 0.79216440667 0.45685295248 0.51573716537 0.56421707518 
0.60464862014 0.63877777351 0.66790778838 0.69302191562 0.26576171152 0.33975332011 0.40226393329 0.45538277901 0.50083690068 
0.54002084522 0.57404952988 0.60381225391 
_paraPhiHalf 1 1002 double
0 3.1415926536 0 3.1415926536 1.5707963268 1.5707963268 1.5707963268 1.5707963268 2.5880182947 
0.5535743589 2.5880182947 0.5535743589 0 0 0 0 3.1415926536 3.1415926536 
3.1415926536 3.1415926536 3.1415926536 0.17788134 0.38438696014 0.60631181711 0.82323535693 1.0172219679 1.1799687454 
1.3118704726 1.4175000338 1.5022335207 0.17788134 0.38438696014 0.60631181711 0.82323535693 1.0172219679 1.1799687454 
1.3118704726 1.4175000338 1.5022335207 0.093902416448 0.17615329733 0.2478725152 0.31035131605 0.36486382811 0.41257334776 
0.45449736604 0.4915044461 0.52432611754 0.093902416448 0.17615329733 0.2478725152 0.31035131605 0.36486382811 0.41257334776 
0.45449736604 0.4915044461 0.52432611754 2.9637113136 2.7572056934 2.5352808365 2.3183572967 2.1243706857 1.9616239082 
1.829722181 1.7240926197 1.6393591329 2.9637113136 2.7572056934 2.5352808365 2.3183572967 2.1243706857 1.9616239082 
1.829722181 1.7240926197 1.6393591329 3.0476902371 2.9654393563 2.8937201384 2.8312413375 2.7767288255 2.7290193058 
2.6870952876 2.6500882075 2.617266536 3.0476902371 2.9654393563 2.8937201384 2.8312413375 2.7767288255 2.7290193058 
2.6870952876 2.6500882075 2.617266536 0 0 0 0 3.1415926536 3.1415926536 
3.1415926536 3.1415926536 3.1415926536 0.17788134 0.38438696014 0.60631181711 0.82323535693 1.0172219679 1.1799687454 
1.3118704726 1.4175000338 1.5022335207 0.17788134 0.38438696014 0.60631181711 0.82323535693 1.0172219679 1.1799687454 
1.3118704726 1.4175000338 1.5022335207 0.093902416448 0.17615329733 0.2478725152 0.31035131605 0.36486382811 0.41257334776 
0.45449736604 0.4915044461 0.52432611754 0.093902416448 0.17615329733 0.2478725152 0.31035131605 0.36486382811 0.41257334776 
0.45449736604 0.4915044461 0.52432611754 2.9637113136 2.7572056934 2.5352808365 2.3183572967 2.1243706857 1.9616239082 
1.829722181 1.7240926197 1.6393591329 2.9637113136 2.7572056934 2.5352808365 2.3183572967 2.1243706857 1.9616239082 
1.829722181 1.7240926197 1.6393591329 3.0476902371 2.9654393563 2.8937201384 2.8312413375 2.7767288255 2.7290193058 
2.6870952876 2.6500882075 2.617266536 3.0476902371 2.9654393563 2.8937201384 2.8312413375 2.7767288255 2.7290193058 
2.6870952876 2.6500882075 2.617266536 1.5707963268 1.5707963268 1.5707963268 1.5707963268 1.5707963268 1.5707963268 
1.5707963268 1.5707963268 1.5707963268 1.6743954455 1.7840462375 1.8974821136 2.0119052671 2.1243706857 2.232221744 
2.3334263672 2.426721652 2.5115728246 1.4671972081 1.3575464161 1.24411054 1.1296873865 1.0172219679 0.90937090954 
0.80816628637 0.71487100155 0.63001982895 1.6743954455 1.7840462375 1.8974821136 2.0119052671 2.1243706857 2.232221744 
2.3334263672 2.426721652 2.5115728246 1.4671972081 1.3575464161 1.24411054 1.1296873865 1.0172219679 0.90937090954 
0.80816628637 0.71487100155 0.63001982895 1.5707963268 1.5707963268 1.5707963268 1.5707963268 1.5707963268 1.5707963268 
1.5707963268 1.5707963268 1.5707963268 1.6743954455 1.7840462375 1.8974821136 2.0119052671 2.1243706857 2.232221744 
2.3334263672 2.426721652 2.5115728246 1.4671972081 1.3575464161 1.24411054 1.1296873865 1.0172219679 0.90937090954 
0.80816628637 0.71487100155 0.63001982895 1.6743954455 1.7840462375 1.8974821136 2.0119052671 2.1243706857 2.232221744 
2.3334263672 2.426721652 2.5115728246 1.4671972081 1.3575464161 1.24411054 1.1296873865 1.0172219679 0.90937090954 
0.80816628637 0.71487100155 0.63001982895 2.6824132222 2.7864913217 2.8992382033 3.0186096618 3.1415926536 3.0186096618 
2.8992382033 2.7864913217 2.6824132222 0.45917943135 0.35510133185 0.2423544503 0.12298299178 0 0.12298299178 
0.2423544503 0.35510133185 0.45917943135 0.22715816343 0.49462574053 0.3129712797 0.77059342779 0.68021497688 0.49462574053 
1.0172219679 1.0172219679 1.0172219679 1.0172219679 1.2156949949 1.271087727 1.3676273807 1.5707963268 2.1243706857 
1.3676273807 1.447813335 1.5707963268 1.7739652728 2.1243706857 2.6469669131 1.4827341049 1.5707963268 1.6937793186 
1.8705049266 2.1243706857 2.4613776767 2.8286213739 1.5707963268 1.6588585487 1.7739652728 1.9258976586 2.1243706857 
2.3709992258 2.6469669131 2.9144344902 0.26576171152 0.33975332011 0.45685295248 0.40226393329 0.51573716537 0.6552068806 
0.45538277901 0.56421707518 0.69407236469 0.84594095064 0.50083690068 0.60464862014 0.72561863695 0.86392567495 1.0172219679 
0.54002084522 0.63877777351 0.75168694275 0.87851444325 1.0172219679 1.1636342747 0.57404952988 0.66790778838 0.77356233629 
0.89058134991 1.0172219679 1.1502619915 1.2852923014 0.60381225391 0.69302191562 0.79216440667 0.90072551443 1.0172219679 
1.139116835 1.2630228569 1.3852070904 0.71487100155 0.80816628637 0.80816628637 0.90937090954 0.90937090954 0.90937090954 
1.0172219679 1.0172219679 1.0172219679 1.0172219679 1.1296873865 1.1296873865 1.1296873865 1.1296873865 1.1296873865 
1.24411054 1.24411054 1.24411054 1.24411054 1.24411054 1.24411054 1.3575464161 1.3575464161 1.3575464161 
1.3575464161 1.3575464161 1.3575464161 1.3575464161 1.4671972081 1.4671972081 1.4671972081 1.4671972081 1.4671972081 
1.4671972081 1.4671972081 1.4671972081 1.6743954455 1.6743954455 1.7840462375 1.6743954455 1.7840462375 1.8974821136 
1.6743954455 1.7840462375 1.8974821136 2.0119052671 1.6743954455 1.7840462375 1.8974821136 2.0119052671 2.1243706857 
1.6743954455 1.7840462375 1.8974821136 2.0119052671 2.1243706857 2.232221744 1.6743954455 1.7840462375 1.8974821136 
2.0119052671 2.1243706857 2.232221744 2.3334263672 1.6743954455 1.7840462375 1.8974821136 2.0119052671 2.1243706857 
2.232221744 2.3334263672 2.426721652 1.7563855631 1.8785697967 1.8563003522 2.0024758186 1.9913306621 1.9779583789 
2.1243706857 2.1243706857 2.1243706857 2.1243706857 2.2408671392 2.2510113037 2.2630782103 2.2776669786 2.295651703 
2.3494282469 2.3680303173 2.3899057108 2.4159740166 2.4475202889 2.486385773 2.448570738 2.4736848652 2.5028148801 
2.5369440334 2.5773755784 2.6258554882 2.6847397011 2.5377803997 2.5675431237 2.6015718084 2.6407557529 2.6862098746 
2.7393287203 2.8018393335 2.8758309421 2.718901062 2.8307207459 2.7598010554 2.95115522 2.8800620952 2.8058000847 
3.0774230472 3.00855263 2.9351694502 2.8576792927 3.0774230472 3.1415926536 3.0719036933 2.9967168029 2.91630358 
2.95115522 3.00855263 3.0719036933 3.1415926536 3.0653475414 2.9825888767 2.8307207459 2.8800620952 2.9351694502 
2.9967168029 3.0653475414 3.1415926536 3.0574329311 2.718901062 2.7598010554 2.8058000847 2.8576792927 2.91630358 
2.9825888767 3.0574329311 3.1415926536 2.718901062 2.7598010554 2.8307207459 2.8058000847 2.8800620952 2.95115522 
2.8576792927 2.9351694502 3.00855263 3.0774230472 2.91630358 2.9967168029 3.0719036933 3.1415926536 3.0774230472 
2.9825888767 3.0653475414 3.1415926536 3.0719036933 3.00855263 2.95115522 3.0574329311 3.1415926536 3.0653475414 