# vtk DataFile Version 5.1
vtk output
ASCII
DATASET POLYDATA
POINTS 1002 float
-11.2558 -0.541536 -3.76827 11.0367 1.33128 -3.24651 -11.3825 0.239819 3.43191 
10.9103 0.423886 3.13015 0.360869 6.77911 -2.29014 -0.714077 6.42868 2.04808 
-1.74224 -3.14589 -1.66735 -1.66243 -2.80219 1.81445 16.9672 3.47333 0.00820667 
-17.1451 3.71959 0.0569809 17.3474 -8.39611 0.130479 -16.3429 -7.85722 0.379073 
-9.67401 -0.14518 -3.62966 -7.91577 0.263249 -3.39678 -5.98246 0.676242 -3.12715 
-3.73591 1.07419 -2.91607 -1.04331 1.42142 -2.84305 1.92105 1.69989 -2.93205 
4.73958 1.88146 -3.12303 7.16584 1.89446 -3.28937 9.23609 1.69626 -3.33266 
-10.6798 0.229914 -3.71282 -9.81953 1.11431 -3.56055 -8.71322 2.02328 -3.36482 
-7.48394 2.8645 -3.19283 -6.22046 3.64185 -3.06009 -4.91945 4.40673 -2.92959 
-3.56943 5.13609 -2.77059 -2.20701 5.76962 -2.59198 -0.883112 6.30561 -2.42529 
-10.7455 -0.995451 -3.67016 -10.1414 -1.45154 -3.49494 -9.41266 -1.94079 -3.29837 
-8.50307 -2.42216 -3.12609 -7.42018 -2.80031 -2.94132 -6.28058 -3.03202 -2.67042 
-5.18868 -3.14761 -2.33344 -4.11474 -3.1853 -2.03239 -2.97008 -3.17379 -1.82006 
-12.5134 -0.452909 -3.81424 -13.8058 -0.231769 -3.77634 -14.9656 0.18607 -3.66919 
-15.9092 0.77489 -3.47527 -16.6831 1.422 -3.10417 -17.2743 2.02779 -2.51573 
-17.5653 2.56273 -1.82383 -17.5541 3.02754 -1.1596 -17.3821 3.41571 -0.541133 
-12.3987 -1.24949 -3.7701 -13.4109 -2.01234 -3.64545 -14.2747 -2.80813 -3.40441 
-15.0189 -3.64227 -3.07185 -15.6637 -4.54927 -2.62645 -16.1654 -5.51291 -2.04576 
-16.4502 -6.41428 -1.39344 -16.5187 -7.12482 -0.760523 -16.4572 -7.60039 -0.173113 
10.3301 2.0232 -3.32934 9.5384 2.74065 -3.40662 8.62893 3.45517 -3.4472 
7.59341 4.13868 -3.4275 6.49622 4.77016 -3.36196 5.3754 5.33676 -3.27093 
4.17775 5.82907 -3.12998 2.88447 6.23495 -2.90381 1.58058 6.54759 -2.6067 
10.6375 0.913967 -3.24904 10.1456 0.477876 -3.24652 9.45867 0.0185491 -3.2003 
8.4619 -0.426406 -3.04379 7.10371 -0.798029 -2.76528 5.39065 -1.11193 -2.45185 
3.41096 -1.47519 -2.19613 1.39804 -1.96434 -2.00515 -0.367951 -2.54888 -1.83689 
12.3365 1.32466 -3.12758 13.6515 1.35116 -2.95328 14.8294 1.43946 -2.73986 
15.7434 1.56148 -2.48272 16.414 1.70617 -2.1522 16.921 1.94109 -1.73924 
17.2433 2.30827 -1.28716 17.3214 2.73938 -0.842302 17.1945 3.1401 -0.411494 
12.5116 0.550332 -3.07449 13.9194 -0.465726 -2.8057 15.1054 -1.73648 -2.45063 
16.095 -3.20288 -2.12231 16.9788 -4.67729 -1.96119 17.6198 -5.95679 -1.90465 
17.8088 -6.97531 -1.68559 17.6512 -7.74349 -1.1657 17.4499 -8.22901 -0.48748 
-9.96662 0.536132 3.60127 -8.33476 0.754327 3.76912 -6.44177 0.950933 3.74296 
-3.97977 1.27887 3.30276 -0.773487 1.68793 2.62639 2.65786 1.8565 2.28775 
5.51014 1.62871 2.54133 7.60061 1.20661 3.0054 9.30954 0.802537 3.22497 
-11.0313 0.903068 3.59372 -10.4839 1.62518 3.65258 -9.73046 2.39796 3.58404 
-8.75408 3.18975 3.47033 -7.53345 3.95123 3.40799 -6.13965 4.63399 3.35346 
-4.73111 5.20936 3.1717 -3.3868 5.6801 2.82722 -2.06172 6.07516 2.41669 
-10.7349 -0.205622 3.30772 -9.88317 -0.680914 3.15503 -8.93416 -1.20969 3.04132 
-7.96284 -1.77275 2.97971 -6.94946 -2.29088 2.8759 -5.89605 -2.66753 2.65044 
-4.87155 -2.85695 2.37055 -3.8737 -2.89292 2.14793 -2.81584 -2.85294 1.9865 
-12.442 0.348685 3.36906 -13.3447 0.574479 3.21364 -14.1534 0.946298 2.97104 
-14.9968 1.39748 2.73807 -15.8477 1.85694 2.5441 -16.5303 2.33424 2.25337 
-16.9558 2.82632 1.76252 -17.1712 3.25153 1.15427 -17.2295 3.54496 0.566654 
-12.3142 -0.410407 3.21801 -13.1438 -1.15599 3.02926 -13.8806 -1.95916 2.88118 
-14.6767 -2.84634 2.73928 -15.6006 -3.88332 2.56706 -16.4209 -5.04923 2.34391 
-16.8428 -6.18692 2.02011 -16.852 -7.09602 1.5488 -16.6379 -7.65219 0.968112 
10.265 1.13905 3.24068 9.58381 1.93282 3.1959 8.86876 2.75543 2.99158 
8.0317 3.56438 2.73346 6.92874 4.32961 2.55893 5.4915 4.99899 2.4981 
3.81992 5.5201 2.45785 2.126 5.89877 2.35386 0.591887 6.18669 2.19756 
10.5216 0.0228164 3.06439 10.0304 -0.312723 2.93515 9.39858 -0.579214 2.72047 
8.54233 -0.804543 2.44928 7.32411 -1.00279 2.18831 5.64639 -1.1734 1.97123 
3.61487 -1.36984 1.80486 1.54433 -1.69204 1.7213 -0.256367 -2.18575 1.73958 
12.1209 0.43987 3.01744 13.327 0.443754 2.9073 14.4269 0.488415 2.77252 
15.406 0.658894 2.49412 16.2519 0.946066 2.06475 16.8672 1.27696 1.64111 
17.1902 1.6787 1.29471 17.2751 2.22629 0.930999 17.1905 2.87136 0.485872 
12.3192 -0.317409 2.83224 13.7395 -1.28878 2.51946 14.963 -2.52694 2.41236 
15.9161 -3.94783 2.54231 16.6946 -5.37259 2.66185 17.3636 -6.63932 2.50519 
17.8196 -7.63307 2.04588 17.9302 -8.25847 1.42488 17.72 -8.48663 0.766348 
0.379159 7.19566 -1.9958 0.393323 7.63311 -1.65228 0.387626 8.03095 -1.24653 
0.332352 8.26717 -0.723071 0.208243 8.23579 -0.0683142 0.0298354 7.95757 0.593133 
-0.175413 7.56356 1.10622 -0.387989 7.16385 1.46265 -0.579719 6.78767 1.7586 
2.37139 7.11593 -2.38646 4.47754 7.43844 -2.46441 6.51268 7.64166 -2.39949 
8.44784 7.59048 -2.13911 10.372 7.2497 -1.76829 12.236 6.74242 -1.40304 
13.8502 6.17711 -1.06454 15.1387 5.49434 -0.715874 16.1599 4.58678 -0.349786 
-1.62883 6.68325 -2.07392 -3.78448 6.56152 -1.91152 -6.09943 6.43824 -1.76925 
-8.48963 6.31703 -1.58047 -10.7189 6.12312 -1.32583 -12.5959 5.75597 -1.02573 
-14.1516 5.23467 -0.698392 -15.4583 4.68664 -0.38469 -16.4715 4.18927 -0.133783 
1.58768 6.67559 1.84801 4.2062 6.98363 1.75186 6.80764 7.2053 1.68875 
9.07954 7.16982 1.53982 11.0457 6.88973 1.28673 12.841 6.51055 1.01405 
14.3522 6.04421 0.761433 15.4497 5.37578 0.501582 16.2583 4.48351 0.236227 
-2.77492 6.47359 2.15865 -4.90115 6.54995 2.28421 -7.09344 6.56297 2.28451 
-9.21219 6.42268 2.09456 -11.0522 6.13299 1.83332 -12.6259 5.74983 1.62917 
-14.0853 5.30174 1.41286 -15.4026 4.80113 1.05255 -16.4314 4.26842 0.562033 
-1.68032 -3.4869 -1.43737 -1.6073 -3.79384 -1.12162 -1.55741 -4.01342 -0.74846 
-1.53972 -4.12583 -0.371194 -1.54825 -4.1552 0.0261064 -1.58229 -4.10157 0.509499 
-1.62893 -3.91762 1.03723 -1.66214 -3.59324 1.46145 -1.6715 -3.19493 1.70428 
0.561046 -2.80415 -1.65798 3.43292 -2.67887 -1.69996 6.49309 -2.97724 -1.78725 
9.2423 -3.77533 -1.86598 11.426 -4.898 -1.8174 13.1043 -6.01792 -1.56251 
14.4451 -6.9022 -1.16374 15.5764 -7.53629 -0.733795 16.5472 -8.01789 -0.308692 
-3.54258 -3.79738 -1.60222 -5.08979 -4.51334 -1.57946 -6.64263 -5.25893 -1.57683 
-8.41509 -6.01775 -1.52841 -10.2487 -6.70187 -1.3677 -11.8714 -7.21119 -1.09342 
-13.2741 -7.57251 -0.756573 -14.5282 -7.84538 -0.391625 -15.5712 -7.97264 -0.00692183 
0.634082 -2.43129 1.52007 3.57236 -2.36993 1.19616 6.71514 -2.81489 0.997104 
9.47451 -3.73386 0.975304 11.6567 -4.85127 0.966534 13.4647 -5.9005 0.824787 
14.9766 -6.79697 0.631904 16.0809 -7.53801 0.492242 16.8079 -8.08674 0.351884 
-3.46059 -3.57527 1.98454 -5.06855 -4.42854 2.04158 -6.81883 -5.23272 1.98464 
-8.84695 -6.01901 1.91681 -10.8215 -6.85387 1.88519 -12.4235 -7.60917 1.77822 
-13.7197 -8.07111 1.49491 -14.8295 -8.2011 1.09725 -15.7109 -8.10341 0.708218 
17.8642 1.94049 0.135935 18.7469 0.135161 0.37358 19.4475 -1.78939 0.715309 
19.8747 -3.70601 1.02091 20.0516 -5.52217 1.10837 19.9576 -7.07347 0.94959 
19.5365 -8.14025 0.683214 18.8656 -8.62657 0.441852 18.1056 -8.64183 0.262584 
-17.734 2.99235 -0.124936 -18.1558 2.02324 -0.250355 -18.5369 0.783674 -0.274608 
-18.9667 -0.637322 -0.197282 -19.2321 -2.12649 -0.0358692 -19.0204 -3.65718 0.174385 
-18.3957 -5.16946 0.354925 -17.685 -6.46116 0.435847 -17.0267 -7.35509 0.424683 
-8.84778 0.645689 -3.53837 -7.7632 1.5067 -3.38027 -6.875 1.05737 -3.28587 
-6.52162 2.34395 -3.2116 -5.63678 1.86448 -3.1431 -4.75442 1.4397 -3.03681 
-5.22959 3.11803 -3.074 -4.29939 2.61718 -3.01832 -3.37118 2.16873 -2.94725 
-2.28374 1.76664 -2.90169 -3.89458 3.88815 -2.96665 -2.88157 3.35385 -2.9485 
-1.86452 2.86552 -2.91426 -0.703004 2.43188 -2.91865 0.616741 2.04591 -2.94577 
-2.49119 4.67503 -2.8733 -1.36511 4.1441 -2.93504 -0.227243 3.61558 -2.97162 
0.985599 3.1318 -3.01826 2.30385 2.69466 -3.08793 3.59379 2.28802 -3.13213 
-1.06133 5.4019 -2.78468 0.17526 4.93745 -2.94667 1.4309 4.42193 -3.07337 
2.68146 3.90443 -3.17433 3.94299 3.40268 -3.26535 5.1493 2.91195 -3.32573 
6.21563 2.4144 -3.32644 0.316384 6.01878 -2.69702 1.61574 5.63917 -2.94424 
2.92603 5.17876 -3.13861 4.17699 4.66741 -3.27783 5.37615 4.12222 -3.3827 
6.51326 3.54731 -3.44988 7.52641 2.94567 -3.45319 8.41485 2.32353 -3.40028 
-11.9667 0.456337 -3.71048 -13.2472 0.820766 -3.60596 -11.0744 1.47251 -3.49528 
-14.3356 1.31818 -3.42363 -12.2896 1.91943 -3.31743 -9.90214 2.46092 -3.2578 
-15.1978 1.88176 -3.14306 -13.3017 2.39835 -3.0575 -11.0555 2.9216 -3.04059 
-8.60113 3.34293 -3.08364 -15.9032 2.44895 -2.69131 -14.1255 2.88478 -2.70346 
-12.057 3.36786 -2.73584 -9.71252 3.81633 -2.86752 -7.25118 4.15838 -2.95844 
-16.4041 2.992 -2.07929 -14.8001 3.40404 -2.22171 -12.9126 3.84908 -2.33766 
-10.7345 4.2897 -2.53673 -8.29453 4.65622 -2.73551 -5.84652 4.9324 -2.79654 
-16.6189 3.48141 -1.41596 -15.2476 3.9288 -1.64317 -13.5776 4.38998 -1.84773 
-11.6111 4.81556 -2.09191 -9.28314 5.15154 -2.35883 -6.78824 5.40902 -2.52179 
-4.40796 5.61409 -2.55863 -16.6084 3.88393 -0.766268 -15.4413 4.37153 -1.02254 
-13.9762 4.88768 -1.29538 -12.2385 5.34835 -1.57599 -10.1221 5.66502 -1.86194 
-7.69722 5.86621 -2.09233 -5.2599 6.03226 -2.21499 -2.98973 6.18459 -2.29407 
-15.5724 4.78145 0.347611 -14.403 5.36325 0.784763 -14.3901 5.34842 0.0251023 
-13.0035 5.90121 1.10676 -13.0852 5.97485 0.390849 -12.9127 5.94659 -0.369328 
-11.4149 6.36813 1.36645 -11.5457 6.52225 0.717934 -11.4123 6.56888 -0.0380928 
-11.1235 6.44212 -0.73864 -9.55602 6.72964 1.65522 -9.7303 6.96338 1.0663 
-9.64613 7.08344 0.329637 -9.36268 7.01652 -0.407101 -8.97221 6.73343 -1.03884 
-7.38356 6.92099 1.89915 -7.57841 7.23453 1.39545 -7.57584 7.46004 0.711338 
-7.34853 7.49835 -0.0511422 -6.98029 7.2806 -0.726754 -6.55114 6.8791 -1.2855 
-5.06336 6.92446 1.95596 -5.1793 7.28928 1.55744 -5.19575 7.62375 0.98496 
-5.05054 7.82771 0.25112 -4.76462 7.76605 -0.462946 -4.42317 7.43717 -1.0355 
[...]
POINT_DATA 1002
FIELD FieldData 4
_paraPhi 1 1002 double
6.2831853072 3.1415926536 6.2831853072 3.1415926536 4.7123889804 4.7123889804 1.5707963268 1.5707963268 3.6951670125 
5.7296109483 2.5880182947 0.5535743589 6.2831853072 6.2831853072 6.2831853072 6.2831853072 3.1415926536 3.1415926536 
3.1415926536 3.1415926536 3.1415926536 6.1053039672 5.898798347 5.6768734901 5.4599499503 5.2659633393 5.1032165617 
4.9713148346 4.8656852733 4.7809517865 0.17788134 0.38438696014 0.60631181711 0.82323535693 1.0172219679 1.1799687454 
1.3118704726 1.4175000338 1.5022335207 6.1892828907 6.1070320098 6.035312792 5.9728339911 5.9183214791 5.8706119594 
5.8286879411 5.7916808611 5.7588591896 0.093902416448 0.17615329733 0.2478725152 0.31035131605 0.36486382811 0.41257334776 
0.45449736604 0.4915044461 0.52432611754 3.3194739936 3.5259796137 3.7479044707 3.9648280105 4.1588146215 4.321561399 
4.4534631262 4.5590926874 4.6438261743 2.9637113136 2.7572056934 2.5352808365 2.3183572967 2.1243706857 1.9616239082 
1.829722181 1.7240926197 1.6393591329 3.23549507 3.3177459509 3.3894651688 3.4519439696 3.5064564817 3.5541660013 
3.5960900196 3.6330970997 3.6659187711 3.0476902371 2.9654393563 2.8937201384 2.8312413375 2.7767288255 2.7290193058 
2.6870952876 2.6500882075 2.617266536 6.2831853072 6.2831853072 6.2831853072 6.2831853072 3.1415926536 3.1415926536 
3.1415926536 3.1415926536 3.1415926536 6.1053039672 5.898798347 5.6768734901 5.4599499503 5.2659633393 5.1032165617 
4.9713148346 4.8656852733 4.7809517865 0.17788134 0.38438696014 0.60631181711 0.82323535693 1.0172219679 1.1799687454 
1.3118704726 1.4175000338 1.5022335207 6.1892828907 6.1070320098 6.035312792 5.9728339911 5.9183214791 5.8706119594 
5.8286879411 5.7916808611 5.7588591896 0.093902416448 0.17615329733 0.2478725152 0.31035131605 0.36486382811 0.41257334776 
0.45449736604 0.4915044461 0.52432611754 3.3194739936 3.5259796137 3.7479044707 3.9648280105 4.1588146215 4.321561399 
4.4534631262 4.5590926874 4.6438261743 2.9637113136 2.7572056934 2.5352808365 2.3183572967 2.1243706857 1.9616239082 
1.829722181 1.7240926197 1.6393591329 3.23549507 3.3177459509 3.3894651688 3.4519439696 3.5064564817 3.5541660013 
3.5960900196 3.6330970997 3.6659187711 3.0476902371 2.9654393563 2.8937201384 2.8312413375 2.7767288255 2.7290193058 
2.6870952876 2.6500882075 2.617266536 4.7123889804 4.7123889804 4.7123889804 4.7123889804 4.7123889804 4.7123889804 
4.7123889804 4.7123889804 4.7123889804 4.6087898617 4.4991390697 4.3857031936 4.2712800401 4.1588146215 4.0509635631 
3.94975894 3.8564636551 3.7716124825 4.8159880991 4.9256388911 5.0390747672 5.1534979207 5.2659633393 5.3738143976 
5.4750190208 5.5683143056 5.6531654782 4.6087898617 4.4991390697 4.3857031936 4.2712800401 4.1588146215 4.0509635631 
3.94975894 3.8564636551 3.7716124825 4.8159880991 4.9256388911 5.0390747672 5.1534979207 5.2659633393 5.3738143976 
5.4750190208 5.5683143056 5.6531654782 1.5707963268 1.5707963268 1.5707963268 1.5707963268 1.5707963268 1.5707963268 
1.5707963268 1.5707963268 1.5707963268 1.6743954455 1.7840462375 1.8974821136 2.0119052671 2.1243706857 2.232221744 
2.3334263672 2.426721652 2.5115728246 1.4671972081 1.3575464161 1.24411054 1.1296873865 1.0172219679 0.90937090954 
0.80816628637 0.71487100155 0.63001982895 1.6743954455 1.7840462375 1.8974821136 2.0119052671 2.1243706857 2.232221744 
2.3334263672 2.426721652 2.5115728246 1.4671972081 1.3575464161 1.24411054 1.1296873865 1.0172219679 0.90937090954 
0.80816628637 0.71487100155 0.63001982895 3.6007720849 3.4966939854 3.3839471039 3.2645756454 3.1415926536 3.0186096618 
2.8992382033 2.7864913217 2.6824132222 5.8240058758 5.9280839753 6.0408308569 6.1602023154 6.2831853072 0.12298299178 
0.2423544503 0.35510133185 0.45917943135 6.0560271438 5.7885595667 5.9702140275 5.5125918794 5.6029703303 5.7885595667 
5.2659633393 5.2659633393 5.2659633393 5.2659633393 5.0674903122 5.0120975802 4.9155579264 4.7123889804 4.1588146215 
4.9155579264 4.8353719722 4.7123889804 4.5092200343 4.1588146215 3.6362183941 4.8004512023 4.7123889804 4.5894059886 
4.4126803806 4.1588146215 3.8218076305 3.4545639333 4.7123889804 4.6243267584 4.5092200343 4.3572876485 4.1588146215 
3.9121860814 3.6362183941 3.368750817 6.0174235957 5.9434319871 5.8263323547 5.8809213739 5.7674481418 5.6279784266 
5.8278025282 5.718968232 5.5891129425 5.4372443565 5.7823484065 5.678536687 5.5575666702 5.4192596322 5.2659633393 
5.743164462 5.6444075337 5.5314983644 5.4046708639 5.2659633393 5.1195510325 5.7091357773 5.6152775188 5.5096229709 
5.3926039573 5.2659633393 5.1329233157 4.9978930058 5.6793730533 5.5901633916 5.4910209005 5.3824597928 5.2659633393 
5.1440684722 5.0201624502 4.8979782167 5.5683143056 5.4750190208 5.4750190208 5.3738143976 5.3738143976 5.3738143976 
5.2659633393 5.2659633393 5.2659633393 5.2659633393 5.1534979207 5.1534979207 5.1534979207 5.1534979207 5.1534979207 
5.0390747672 5.0390747672 5.0390747672 5.0390747672 5.0390747672 5.0390747672 4.9256388911 4.9256388911 4.9256388911 
4.9256388911 4.9256388911 4.9256388911 4.9256388911 4.8159880991 4.8159880991 4.8159880991 4.8159880991 4.8159880991 
4.8159880991 4.8159880991 4.8159880991 4.6087898617 4.6087898617 4.4991390697 4.6087898617 4.4991390697 4.3857031936 
4.6087898617 4.4991390697 4.3857031936 4.2712800401 4.6087898617 4.4991390697 4.3857031936 4.2712800401 4.1588146215 
4.6087898617 4.4991390697 4.3857031936 4.2712800401 4.1588146215 4.0509635631 4.6087898617 4.4991390697 4.3857031936 
4.2712800401 4.1588146215 4.0509635631 3.94975894 4.6087898617 4.4991390697 4.3857031936 4.2712800401 4.1588146215 
4.0509635631 3.94975894 3.8564636551 4.526799744 4.4046155105 4.426884955 4.2807094886 4.2918546451 4.3052269283 
4.1588146215 4.1588146215 4.1588146215 4.1588146215 4.042318168 4.0321740035 4.0201070968 4.0055183285 3.9875336042 
3.9337570603 3.9151549899 3.8932795963 3.8672112905 3.8356650183 3.7967995342 3.8346145692 3.809500442 3.7803704271 
3.7462412737 3.7058097288 3.657329819 3.5984456061 3.7454049075 3.7156421835 3.6816134988 3.6424295543 3.5969754326 
3.5438565869 3.4813459737 3.4073543651 3.5642842451 3.4524645613 3.5233842518 3.3320300872 3.403123212 3.4773852225 
3.20576226 3.2746326772 3.348015857 3.4255060145 3.0774230472 3.1415926536 3.2112816139 3.2864685043 3.3668817272 
2.95115522 3.00855263 3.0719036933 3.1415926536 3.2178377658 3.3005964304 2.8307207459 2.8800620952 2.9351694502 
2.9967168029 3.0653475414 3.1415926536 3.225752376 2.718901062 2.7598010554 2.8058000847 2.8576792927 2.91630358 
2.9825888767 3.0574329311 3.1415926536 3.5642842451 3.5233842518 3.4524645613 3.4773852225 3.403123212 3.3320300872 
3.4255060145 3.348015857 3.2746326772 3.20576226 3.3668817272 3.2864685043 3.2112816139 3.1415926536 3.0774230472 
3.3005964304 3.2178377658 3.1415926536 3.0719036933 3.00855263 2.95115522 3.225752376 3.1415926536 3.0653475414 
2.9967168029 2.9351694502 2.8800620952 2.8307207459 3.1415926536 3.0574329311 2.9825888767 2.91630358 2.8576792927 
2.8058000847 2.7598010554 2.718901062 4.526799744 4.426884955 4.4046155105 4.3052269283 4.2918546451 4.2807094886 
4.1588146215 4.1588146215 4.1588146215 4.1588146215 3.9875336042 4.0055183285 4.0201070968 4.0321740035 4.042318168 
3.7967995342 3.8356650183 3.8672112905 3.8932795963 3.9151549899 3.9337570603 3.5984456061 3.657329819 3.7058097288 
3.7462412737 3.7803704271 3.809500442 3.8346145692 3.4073543651 3.4813459737 3.5438565869 3.5969754326 3.6424295543 
3.6816134988 3.7156421835 3.7454049075 4.7123889804 4.8004512023 4.6243267584 4.9155579264 4.7123889804 4.5092200343 
5.0674903122 4.8353719722 4.5894059886 4.3572876485 5.2659633393 5.0120975802 4.7123889804 4.4126803806 4.1588146215 
5.5125918794 5.2659633393 4.9155579264 4.5092200343 4.1588146215 3.9121860814 5.7885595667 5.6029703303 5.2659633393 
4.7123889804 4.1588146215 3.8218076305 3.6362183941 6.0560271438 5.9702140275 5.7885595667 5.2659633393 4.1588146215 
3.6362183941 3.4545639333 3.368750817 0.22715816343 0.49462574053 0.3129712797 0.77059342779 0.68021497688 0.49462574053 
1.0172219679 1.0172219679 1.0172219679 1.0172219679 1.2156949949 1.271087727 1.3676273807 1.5707963268 2.1243706857 
1.3676273807 1.447813335 1.5707963268 1.7739652728 2.1243706857 2.6469669131 1.4827341049 1.5707963268 1.6937793186 
1.8705049266 2.1243706857 2.4613776767 2.8286213739 1.5707963268 1.6588585487 1.7739652728 1.9258976586 2.1243706857 
2.3709992258 2.6469669131 2.9144344902 1.7563855631 1.8785697967 1.8563003522 2.0024758186 1.9913306621 1.9779583789 
2.1243706857 2.1243706857 2.1243706857 2.1243706857 2.2408671392 2.2510113037 2.2630782103 2.2776669786 2.295651703 
2.3494282469 2.3680303173 2.3899057108 2.4159740166 2.4475202889 2.486385773 2.448570738 2.4736848652 2.5028148801 
2.5369440334 2.5773755784 2.6258554882 2.6847397011 2.5377803997 2.5675431237 2.6015718084 2.6407557529 2.6862098746 
2.7393287203 2.8018393335 2.8758309421 1.6743954455 1.6743954455 1.7840462375 1.6743954455 1.7840462375 1.8974821136 
1.6743954455 1.7840462375 1.8974821136 2.0119052671 1.6743954455 1.7840462375 1.8974821136 2.0119052671 2.1243706857 
1.6743954455 1.7840462375 1.8974821136 2.0119052671 2.1243706857 2.232221744 1.6743954455 1.7840462375 1.8974821136 
2.0119052671 2.1243706857 2.232221744 2.3334263672 1.6743954455 1.7840462375 1.8974821136 2.0119052671 2.1243706857 
2.232221744 2.3334263672 2.426721652 1.4671972081 1.3575464161 1.4671972081 1.24411054 1.3575464161 1.4671972081 
1.1296873865 1.24411054 1.3575464161 1.4671972081 1.0172219679 1.1296873865 1.24411054 1.3575464161 1.4671972081 
0.90937090954 1.0172219679 1.1296873865 1.24411054 1.3575464161 1.4671972081 0.80816628637 0.90937090954 1.0172219679 
1.1296873865 1.24411054 1.3575464161 1.4671972081 0.71487100155 0.80816628637 0.90937090954 1.0172219679 1.1296873865 
1.24411054 1.3575464161 1.4671972081 0.60381225391 0.57404952988 0.69302191562 0.54002084522 0.66790778838 0.79216440667 
0.50083690068 0.63877777351 0.77356233629 0.90072551443 0.45538277901 0.60464862014 0.75168694275 0.89058134991 1.0172219679 
0.40226393329 0.56421707518 0.72561863695 0.87851444325 1.0172219679 1.139116835 0.33975332011 0.51573716537 0.69407236469 
0.86392567495 1.0172219679 1.1502619915 1.2630228569 0.26576171152 0.45685295248 0.6552068806 0.84594095064 1.0172219679 
1.1636342747 1.2852923014 1.3852070904 0.22715816343 0.3129712797 0.49462574053 0.49462574053 0.68021497688 0.77059342779 
1.0172219679 1.0172219679 1.0172219679 1.0172219679 2.1243706857 1.5707963268 1.3676273807 1.271087727 1.2156949949 
2.6469669131 2.1243706857 1.7739652728 1.5707963268 1.447813335 1.3676273807 2.8286213739 2.4613776767 2.1243706857 
1.8705049266 1.6937793186 1.5707963268 1.4827341049 2.9144344902 2.6469669131 2.3709992258 2.1243706857 1.9258976586 
1.7739652728 1.6588585487 1.5707963268 1.7563855631 1.8563003522 1.8785697967 1.9779583789 1.9913306621 2.0024758186 
2.1243706857 2.1243706857 2.1243706857 2.1243706857 2.295651703 2.2776669786 2.2630782103 2.2510113037 2.2408671392 
2.486385773 2.4475202889 2.4159740166 2.3899057108 2.3680303173 2.3494282469 2.6847397011 2.6258554882 2.5773755784 
2.5369440334 2.5028148801 2.4736848652 2.448570738 2.8758309421 2.8018393335 2.7393287203 2.6862098746 2.6407557529 
2.6015718084 2.5675431237 2.5377803997 5.8604937156 5.901393709 5.9723133995 5.9473927383 6.0216547488 6.0927478736 
5.9992719463 6.0767621038 6.1501452836 6.2190157008 6.0578962336 6.1383094565 6.2134963469 0 0.064169606361 
6.1241815303 6.206940195 6.2831853072 0.069688960264 0.13304002361 0.19043743361 6.1990255847 0 0.07624511221 
0.14487585072 0.20642320337 0.26153055843 0.3108719077 0 0.084159722458 0.15900377685 0.22528907359 0.28391336087 
0.3357925689 0.38179159818 0.42269159155 5.8604937156 5.9723133995 5.901393709 6.0927478736 6.0216547488 5.9473927383 
6.2190157008 6.1501452836 6.0767621038 5.9992719463 0.064169606361 0 6.2134963469 6.1383094565 6.0578962336 
0.19043743361 0.13304002361 0.069688960264 6.2831853072 6.206940195 6.1241815303 0.3108719077 0.26153055843 0.20642320337 
0.14487585072 0.07624511221 6.2831853072 6.1990255847 0.42269159155 0.38179159818 0.3357925689 0.28391336087 0.22528907359 
0.15900377685 0.084159722458 0 5.6793730533 5.7091357773 5.5901633916 5.743164462 5.6152775188 5.4910209005 
5.7823484065 5.6444075337 5.5096229709 5.3824597928 5.8278025282 5.678536687 5.5314983644 5.3926039573 5.2659633393 
5.8809213739 5.718968232 5.5575666702 5.4046708639 5.2659633393 5.1440684722 5.9434319871 5.7674481418 5.5891129425 
5.4192596322 5.2659633393 5.1329233157 5.0201624502 6.0174235957 5.8263323547 5.6279784266 5.4372443565 5.2659633393 
5.1195510325 4.9978930058 4.8979782167 1.3852070904 1.2852923014 1.2630228569 1.1636342747 1.1502619915 1.139116835 
1.0172219679 1.0172219679 1.0172219679 1.0172219679 0.84594095064 0.86392567495 0.87851444325 0.89058134991 0.90072551443 
0.6552068806 0.69407236469 0.72561863695 0.75168694275 0.77356233629 0.79216440667 0.45685295248 0.51573716537 0.56421707518 
0.60464862014 0.63877777351 0.66790778838 0.69302191562 0.26576171152 0.33975332011 0.40226393329 0.45538277901 0.50083690068 
0.54002084522 0.57404952988 0.60381225391 
_paraPhiHalf 1 1002 double
0 3.1415926536 0 3.1415926536 1.5707963268 1.5707963268 1.5707963268 1.5707963268 2.5880182947 
0.5535743589 2.5880182947 0.5535743589 0 0 0 0 3.1415926536 3.1415926536 
3.1415926536 3.1415926536 3.1415926536 0.17788134 0.38438696014 0.60631181711 0.82323535693 1.0172219679 1.1799687454 
1.3118704726 1.4175000338 1.5022335207 0.17788134 0.38438696014 0.60631181711 0.82323535693 1.0172219679 1.1799687454 
1.3118704726 1.4175000338 1.5022335207 0.093902416448 0.17615329733 0.2478725152 0.31035131605 0.36486382811 0.41257334776 
0.45449736604 0.4915044461 0.52432611754 0.093902416448 0.17615329733 0.2478725152 0.31035131605 0.36486382811 0.41257334776 
0.45449736604 0.4915044461 0.52432611754 2.9637113136 2.7572056934 2.5352808365 2.3183572967 2.1243706857 1.9616239082 
1.829722181 1.7240926197 1.6393591329 2.9637113136 2.7572056934 2.5352808365 2.3183572967 2.1243706857 1.9616239082 
1.829722181 1.7240926197 1.6393591329 3.0476902371 2.9654393563 2.8937201384 2.8312413375 2.7767288255 2.7290193058 
2.6870952876 2.6500882075 2.617266536 3.0476902371 2.9654393563 2.8937201384 2.8312413375 2.7767288255 2.7290193058 
2.6870952876 2.6500882075 2.617266536 0 0 0 0 3.1415926536 3.1415926536 
3.1415926536 3.1415926536 3.1415926536 0.17788134 0.38438696014 0.60631181711 0.82323535693 1.0172219679 1.1799687454 
1.3118704726 1.4175000338 1.5022335207 0.17788134 0.38438696014 0.60631181711 0.82323535693 1.0172219679 1.1799687454 
1.3118704726 1.4175000338 1.5022335207 0.093902416448 0.17615329733 0.2478725152 0.31035131605 0.36486382811 0.41257334776 
0.45449736604 0.4915044461 0.52432611754 0.093902416448 0.17615329733 0.2478725152 0.31035131605 0.36486382811 0.41257334776 
0.45449736604 0.4915044461 0.52432611754 2.9637113136 2.7572056934 2.5352808365 2.3183572967 2.1243706857 1.9616239082 
1.829722181 1.7240926197 1.6393591329 2.9637113136 2.7572056934 2.5352808365 2.3183572967 2.1243706857 1.9616239082 
1.829722181 1.7240926197 1.6393591329 3.0476902371 2.9654393563 2.8937201384 2.8312413375 2.7767288255 2.7290193058 
2.6870952876 2.6500882075 2.617266536 3.0476902371 2.9654393563 2.8937201384 2.8312413375 2.7767288255 2.7290193058 
2.6870952876 2.6500882075 2.617266536 1.5707963268 1.5707963268 1.5707963268 1.5707963268 1.5707963268 1.5707963268 
1.5707963268 1.5707963268 1.5707963268 1.6743954455 1.7840462375 1.8974821136 2.0119052671 2.1243706857 2.232221744 
2.3334263672 2.426721652 2.5115728246 1.4671972081 1.3575464161 1.24411054 1.1296873865 1.0172219679 0.90937090954 
0.80816628637 0.71487100155 0.63001982895 1.6743954455 1.7840462375 1.8974821136 2.0119052671 2.1243706857 2.232221744 
2.3334263672 2.426721652 2.5115728246 1.4671972081 1.3575464161 1.24411054 1.1296873865 1.0172219679 0.90937090954 
0.80816628637 0.71487100155 0.63001982895 1.5707963268 1.5707963268 1.5707963268 1.5707963268 1.5707963268 1.5707963268 
1.5707963268 1.5707963268 1.5707963268 1.6743954455 1.7840462375 1.8974821136 2.0119052671 2.1243706857 2.232221744 
2.3334263672 2.426721652 2.5115728246 1.4671972081 1.3575464161 1.24411054 1.1296873865 1.0172219679 0.90937090954 
0.80816628637 0.71487100155 0.63001982895 1.6743954455 1.7840462375 1.8974821136 2.0119052671 2.1243706857 2.232221744 
2.3334263672 2.426721652 2.5115728246 1.4671972081 1.3575464161 1.24411054 1.1296873865 1.0172219679 0.90937090954 
0.80816628637 0.71487100155 0.63001982895 2.6824132222 2.7864913217 2.8992382033 3.0186096618 3.1415926536 3.0186096618 
2.8992382033 2.7864913217 2.6824132222 0.45917943135 0.35510133185 0.2423544503 0.12298299178 0 0.12298299178 
0.2423544503 0.35510133185 0.45917943135 0.22715816343 0.49462574053 0.3129712797 0.77059342779 0.68021497688 0.49462574053 
1.0172219679 1.0172219679 1.0172219679 1.0172219679 1.2156949949 1.271087727 1.3676273807 1.5707963268 2.1243706857 
1.3676273807 1.447813335 1.5707963268 1.7739652728 2.1243706857 2.6469669131 1.4827341049 1.5707963268 1.6937793186 
1.8705049266 2.1243706857 2.4613776767 2.8286213739 1.5707963268 1.6588585487 1.7739652728 1.9258976586 2.1243706857 
2.3709992258 2.6469669131 2.9144344902 0.26576171152 0.33975332011 0.45685295248 0.40226393329 0.51573716537 0.6552068806 
0.45538277901 0.56421707518 0.69407236469 0.84594095064 0.50083690068 0.60464862014 0.72561863695 0.86392567495 1.0172219679 
0.54002084522 0.63877777351 0.75168694275 0.87851444325 1.0172219679 1.1636342747 0.57404952988 0.66790778838 0.77356233629 
0.89058134991 1.0172219679 1.1502619915 1.2852923014 0.60381225391 0.69302191562 0.79216440667 0.90072551443 1.0172219679 
1.139116835 1.2630228569 1.3852070904 0.71487100155 0.80816628637 0.80816628637 0.90937090954 0.90937090954 0.90937090954 
1.0172219679 1.0172219679 1.0172219679 1.0172219679 1.1296873865 1.1296873865 1.1296873865 1.1296873865 1.1296873865 
1.24411054 1.24411054 1.24411054 1.24411054 1.24411054 1.24411054 1.3575464161 1.3575464161 1.3575464161 
1.3575464161 1.3575464161 1.3575464161 1.3575464161 1.4671972081 1.4671972081 1.4671972081 1.4671972081 1.4671972081 
1.4671972081 1.4671972081 1.4671972081 1.6743954455 1.6743954455 1.7840462375 1.6743954455 1.7840462375 1.8974821136 
1.6743954455 1.7840462375 1.8974821136 2.0119052671 1.6743954455 1.7840462375 1.8974821136 2.0119052671 2.1243706857 
1.6743954455 1.7840462375 1.8974821136 2.0119052671 2.1243706857 2.232221744 1.6743954455 1.7840462375 1.8974821136 
2.0119052671 2.1243706857 2.232221744 2.3334263672 1.6743954455 1.7840462375 1.8974821136 2.0119052671 2.1243706857 
2.232221744 2.3334263672 2.426721652 1.7563855631 1.8785697967 1.8563003522 2.0024758186 1.9913306621 1.9779583789 
2.1243706857 2.1243706857 2.1243706857 2.1243706857 2.2408671392 2.2510113037 2.2630782103 2.2776669786 2.295651703 
2.3494282469 2.3680303173 2.3899057108 2.4159740166 2.4475202889 2.486385773 2.448570738 2.4736848652 2.5028148801 
2.5369440334 2.5773755784 2.6258554882 2.6847397011 2.5377803997 2.5675431237 2.6015718084 2.6407557529 2.6862098746 
2.7393287203 2.8018393335 2.8758309421 2.718901062 2.8307207459 2.7598010554 2.95115522 2.8800620952 2.8058000847 
3.0774230472 3.00855263 2.9351694502 2.8576792927 3.0774230472 3.1415926536 3.0719036933 2.9967168029 2.91630358 
2.95115522 3.00855263 3.0719036933 3.1415926536 3.0653475414 2.9825888767 2.8307207459 2.8800620952 2.9351694502 
2.9967168029 3.0653475414 3.1415926536 3.0574329311 2.718901062 2.7598010554 2.8058000847 2.8576792927 2.91630358 
2.9825888767 3.0574329311 3.1415926536 2.718901062 2.7598010554 2.8307207459 2.8058000847 2.8800620952 2.95115522 
2.8576792927 2.9351694502 3.00855263 3.0774230472 2.91630358 2.9967168029 3.0719036933 3.1415926536 3.0774230472 
2.9825888767 3.0653475414 3.1415926536 3.0719036933 3.00855263 2.95115522 3.0574329311 3.1415926536 3.0653475414 