# vtk DataFile Version 5.1
vtk output
ASCII
DATASET POLYDATA
POINTS 1002 float
-10.4744 -0.637646 -4.42098 10.404 2.0267 -2.54322 -11.1476 -0.301847 3.66832 
10.546 1.04028 2.43314 -0.216313 6.9864 -2.23917 -1.44331 6.69758 1.93297 
-3.60315 -3.03283 -2.05483 -3.78738 -1.78723 1.31478 15.8187 2.6039 0.105384 
-15.9893 3.46269 0.367315 16.7875 -9.35787 0.914006 -14.3188 -8.30723 0.7745 
-9.19225 -0.347583 -4.41823 -7.85384 0.00679408 -4.21795 -6.39627 0.443559 -3.86919 
-4.5487 0.93623 -3.49495 -2.07836 1.44709 -3.18041 0.81105 1.97488 -2.94612 
3.61788 2.44498 -2.79598 6.09594 2.66125 -2.70981 8.3333 2.49943 -2.63789 
-10.0068 0.165387 -4.42153 -9.18239 1.12185 -4.29718 -8.08504 2.10364 -4.1207 
-6.96868 2.9784 -3.94121 -5.99013 3.7679 -3.72071 -5.03922 4.57011 -3.41658 
-3.95252 5.35596 -3.06296 -2.72711 6.01947 -2.72557 -1.45511 6.54386 -2.44664 
-10.0006 -1.17372 -4.34356 -9.51435 -1.72906 -4.16575 -8.98936 -2.35665 -3.96234 
-8.29734 -2.999 -3.8243 -7.39555 -3.50325 -3.72671 -6.47802 -3.78234 -3.53127 
-5.74995 -3.85192 -3.18254 -5.14935 -3.73172 -2.77371 -4.46683 -3.4387 -2.39546 
-11.6256 -0.422037 -4.32464 -12.8872 -0.0843494 -4.13578 -14.036 0.418087 -3.89834 
-14.9557 1.04879 -3.58375 -15.6987 1.683 -3.07742 -16.2404 2.20769 -2.35972 
-16.4479 2.61142 -1.58527 -16.3623 2.94392 -0.883925 -16.1798 3.23097 -0.244938 
-11.3681 -1.24751 -4.22319 -12.1101 -1.86058 -3.83096 -12.7083 -2.4942 -3.34003 
-13.2219 -3.198 -2.83346 -13.7208 -4.01182 -2.24192 -14.189 -4.91862 -1.51013 
-14.4961 -5.86064 -0.789068 -14.5616 -6.78584 -0.222254 -14.463 -7.63261 0.257479 
9.54614 2.66809 -2.68241 8.65052 3.33244 -2.80927 7.65785 3.99544 -2.86796 
6.5572 4.61526 -2.87897 5.46548 5.16824 -2.90873 4.44431 5.66654 -2.9467 
3.3724 6.11633 -2.90249 2.1642 6.49273 -2.73418 0.920335 6.77747 -2.49014 
10.0142 1.75705 -2.5094 9.5575 1.45361 -2.55477 8.88566 1.07467 -2.65315 
7.81041 0.664874 -2.66018 6.24376 0.318111 -2.48991 4.22408 -0.00244891 -2.26378 
1.91047 -0.477322 -2.13981 -0.377576 -1.20584 -2.11447 -2.27706 -2.10602 -2.10037 
11.9032 1.81128 -2.48741 13.3967 1.60167 -2.36545 14.6496 1.44334 -2.16374 
15.4877 1.30624 -1.89641 15.9593 1.19747 -1.55953 16.2145 1.2275 -1.1455 
16.2975 1.45914 -0.721829 16.2009 1.81878 -0.379658 16.003 2.21219 -0.122628 
12.2223 1.13227 -2.39111 14.0062 -0.0916473 -2.19889 15.4557 -1.6596 -1.9208 
16.5113 -3.48156 -1.59635 17.3236 -5.3048 -1.37822 17.8294 -6.84872 -1.27499 
17.8001 -8.01175 -1.02056 17.3583 -8.82318 -0.436289 16.9362 -9.27919 0.30536 
-10.1379 0.132728 3.87485 -8.96794 0.465167 4.0344 -7.5408 0.833782 3.89232 
-5.31455 1.5267 3.17124 -1.93059 2.43306 2.12419 1.88807 2.93541 1.53732 
4.96748 2.71698 1.77641 7.07597 2.12808 2.33725 8.80664 1.56138 2.59218 
-11.0376 0.461217 3.92877 -10.6984 1.3018 4.02192 -10.0787 2.20438 3.87982 
-9.16955 3.11968 3.64439 -8.00744 3.99 3.51907 -6.70778 4.76536 3.46152 
-5.4168 5.40813 3.24967 -4.16518 5.91669 2.8248 -2.8611 6.33083 2.33736 
-10.4947 -0.739519 3.46696 -9.654 -1.20056 3.26028 -8.78861 -1.74044 3.12549 
-8.00579 -2.34974 3.01839 -7.28463 -2.88764 2.78698 -6.63702 -3.16324 2.39602 
-6.11512 -3.09838 2.00506 -5.59635 -2.76545 1.73793 -4.84652 -2.29275 1.54261 
-11.9291 -0.276437 3.60524 -12.4839 -0.0964671 3.40143 -12.9559 0.283889 3.08533 
-13.6022 0.765022 2.8311 -14.4177 1.23942 2.70056 -15.1255 1.73795 2.49481 
-15.5737 2.29464 2.05292 -15.8335 2.81747 1.46591 -15.9753 3.20782 0.887219 
-11.6571 -1.11362 3.35533 -12.0086 -2.0105 3.09411 -12.2599 -2.86981 2.93683 
-12.6775 -3.66986 2.86925 -13.4337 -4.56068 2.86589 -14.2603 -5.67585 2.85449 
-14.724 -6.88241 2.65478 -14.7449 -7.83922 2.14945 -14.5514 -8.30539 1.45142 
9.81028 1.70913 2.65824 9.10959 2.4838 2.69101 8.45727 3.31378 2.51996 
7.72322 4.14325 2.29074 6.68173 4.92302 2.19312 5.19908 5.5737 2.25421 
3.38745 6.02587 2.31768 1.53792 6.30643 2.25368 -0.0995333 6.50822 2.0916 
10.1652 0.810963 2.29991 9.70328 0.690815 2.09215 9.11541 0.671511 1.79204 
8.27094 0.696414 1.45143 6.93358 0.724904 1.15597 4.91054 0.728767 0.937407 
2.33566 0.588154 0.81334 -0.279304 0.125198 0.84495 -2.39375 -0.711136 1.04485 
11.8869 0.83936 2.30246 13.2169 0.559143 2.2076 14.3884 0.286764 2.13855 
15.367 0.186883 1.94796 16.1005 0.283011 1.60747 16.4588 0.461144 1.28241 
16.461 0.7336 1.04415 16.2983 1.22085 0.790788 16.0869 1.90047 0.462431 
12.1752 0.204274 1.98675 13.8137 -0.988088 1.57497 15.1362 -2.61481 1.55339 
16.0408 -4.51527 1.98837 16.6875 -6.37293 2.50256 17.1926 -7.95252 2.67752 
17.4728 -9.11631 2.45214 17.4396 -9.73043 2.00007 17.1602 -9.76043 1.4643 
-0.123419 7.37481 -1.95827 -0.00866921 7.80088 -1.66023 0.127511 8.20835 -1.36214 
0.212327 8.45637 -0.967925 0.130464 8.42599 -0.359806 -0.148362 8.15391 0.369596 
-0.533514 7.78309 0.972499 -0.915661 7.40814 1.35974 -1.22938 7.04557 1.64533 
1.78475 7.30883 -2.27129 3.91861 7.6339 -2.34806 5.91461 7.82835 -2.2914 
7.71731 7.69597 -1.99028 9.51149 7.19311 -1.55423 11.3154 6.52394 -1.17238 
12.8967 5.85099 -0.876096 14.1316 5.06151 -0.578681 15.0812 3.97453 -0.241436 
-2.0351 6.89622 -2.15776 -3.88344 6.76816 -2.13866 -5.86811 6.5977 -2.04565 
-8.04137 6.39218 -1.79182 -10.1631 6.11307 -1.45902 -11.9522 5.6822 -1.11806 
-13.4155 5.11345 -0.715072 -14.628 4.52416 -0.263067 -15.5078 3.98315 0.115573 
1.05789 6.9817 1.7278 3.97429 7.31457 1.62427 6.80835 7.50275 1.52146 
9.13635 7.34411 1.29982 11.0398 6.89475 0.975194 12.7253 6.37809 0.671741 
14.0321 5.80464 0.450398 14.8155 4.98791 0.284598 15.3112 3.87415 0.162304 
-3.5176 6.70801 2.06501 -5.51871 6.76594 2.24655 -7.49242 6.74826 2.3195 
-9.35115 6.53096 2.16878 -10.9017 6.12212 1.89458 -12.1896 5.61734 1.68124 
-13.4291 5.07952 1.5181 -14.5887 4.53239 1.2539 -15.46 3.99186 0.841501 
-3.64409 -3.30737 -1.7609 -3.66603 -3.52109 -1.35509 -3.67022 -3.61355 -0.890636 
-3.61639 -3.55626 -0.467809 -3.49993 -3.39928 -0.0926128 -3.40873 -3.20559 0.327277 
-3.42557 -2.95852 0.781163 -3.53738 -2.6146 1.12622 -3.67737 -2.19967 1.28437 
-1.52322 -2.02402 -1.78013 1.53007 -1.23038 -1.60293 5.09539 -1.07343 -1.56141 
8.34878 -1.75982 -1.52868 10.7634 -3.05965 -1.28227 12.4544 -4.51703 -0.779965 
13.8083 -5.85972 -0.228991 15.0163 -7.09458 0.200962 16.0332 -8.2811 0.547125 
-4.88208 -4.25161 -2.20263 -5.59126 -5.41905 -2.2872 -6.26041 -6.38246 -2.1822 
-7.38958 -7.12591 -1.83529 -8.87094 -7.66603 -1.34075 -10.2977 -8.003 -0.856241 
-11.5639 -8.21435 -0.449065 -12.7133 -8.38463 -0.072462 -13.6569 -8.4565 0.33417 
-1.35231 -0.65853 0.815504 2.16112 0.00366363 0.322022 6.00064 -0.237443 0.149973 
9.21782 -1.37223 0.368719 11.6022 -2.91541 0.63528 13.5344 -4.43908 0.70358 
15.0673 -5.8801 0.752599 15.9892 -7.26164 0.922478 16.4347 -8.46914 1.0351 
-5.13072 -3.34951 1.67317 -5.8267 -4.89347 1.83008 -6.65872 -6.13936 1.85113 
-8.16812 -7.19984 1.97243 -9.91566 -8.30153 2.23984 -11.2332 -9.26473 2.36148 
-12.1563 -9.69465 2.10829 -12.9926 -9.52627 1.60732 -13.7482 -8.99526 1.12054 
16.6277 0.674416 0.352447 17.5049 -1.61354 0.728736 18.3027 -4.03282 1.20937 
18.9391 -6.38192 1.63146 19.3694 -8.48702 1.78925 19.4117 -10.0916 1.6473 
18.9481 -10.9329 1.37563 18.1936 -10.9488 1.15008 17.4465 -10.3233 1.01213 
-16.2822 2.72619 0.184057 -16.3356 1.77256 0.0406069 -16.3602 0.620152 0.0660221 
-16.5455 -0.599637 0.310322 -16.6932 -1.83905 0.67621 -16.4522 -3.24102 0.984436 
-15.8947 -4.83559 1.10832 -15.3465 -6.35349 1.04965 -14.8701 -7.52236 0.905324 
-8.45234 0.500151 -4.34713 -7.40365 1.4407 -4.19461 -6.8905 0.877169 -4.09425 
-6.24658 2.34062 -4.01287 -5.73195 1.76095 -3.92439 -5.25027 1.29288 -3.73018 
-5.20422 3.15277 -3.77394 -4.58343 2.57638 -3.69943 -4.00217 2.10428 -3.53267 
-3.17535 1.72432 -3.35992 -4.23295 3.97691 -3.43634 -3.4676 3.38581 -3.38717 
-2.70949 2.89518 -3.26631 -1.72955 2.50133 -3.14673 -0.474301 2.18955 -3.06599 
-3.11707 4.84575 -3.07164 -2.20297 4.27531 -3.05688 -1.24893 3.76013 -3.00768 
-0.157881 3.33486 -2.94138 1.13823 2.97567 -2.91969 2.45691 2.68401 -2.89855 
-1.79851 5.63635 -2.78991 -0.733751 5.15649 -2.84031 0.386893 4.66413 -2.87142 
1.5403 4.21823 -2.86326 2.77356 3.80399 -2.86264 4.00689 3.40622 -2.88009 
5.10552 3.03199 -2.83443 -0.405153 6.26736 -2.61146 0.77964 5.89703 -2.76142 
1.98515 5.46355 -2.8678 3.13334 5.01754 -2.89928 4.27528 4.5638 -2.89429 
5.42216 4.07502 -2.90488 6.47414 3.55481 -2.88669 7.41434 3.02767 -2.78286 
-11.173 0.526474 -4.28648 -12.3963 1.00084 -4.02751 -10.2865 1.61408 -4.10912 
-13.453 1.54344 -3.68396 -11.4261 2.13409 -3.76938 -9.11775 2.64984 -3.89871 
-14.2979 2.08537 -3.23171 -12.4191 2.58514 -3.31688 -10.2159 3.12816 -3.51305 
-7.95506 3.53012 -3.72802 -14.9916 2.58712 -2.61953 -13.2584 2.98209 -2.7673 
-11.2355 3.49295 -3.00203 -9.02392 3.99134 -3.35572 -6.88431 4.34052 -3.55127 
-15.4574 3.03739 -1.90529 -13.9433 3.41298 -2.15163 -12.1322 3.86927 -2.41909 
-10.0553 4.38544 -2.83131 -7.82487 4.82919 -3.21745 -5.76969 5.14278 -3.28229 
-15.625 3.42514 -1.20216 -14.3765 3.86795 -1.53092 -12.8145 4.33988 -1.84149 
-10.9536 4.82996 -2.22247 -8.75141 5.26503 -2.67819 -6.51996 5.60777 -2.95531 
-4.55065 5.85566 -2.9072 -15.6058 3.74105 -0.534821 -14.5695 4.25373 -0.911084 
-13.2136 4.79634 -1.29334 -11.588 5.30896 -1.64607 -9.56908 5.70975 -2.0382 
-7.30189 6.00789 -2.40493 -5.17843 6.24592 -2.55469 -3.28988 6.42465 -2.50022 
-14.7735 4.56883 0.526722 -13.7651 5.17515 0.871903 -13.7065 5.19426 0.0486156 
-12.5474 5.77085 1.12285 -12.5603 5.8549 0.331588 -12.3057 5.84507 -0.477112 
-11.1965 6.33111 1.36383 -11.2126 6.4638 0.614539 -10.9507 6.5045 -0.214955 
-10.5866 6.39456 -0.904384 -9.62193 6.80808 1.66195 -9.65294 6.99935 0.952176 
-9.38353 7.08728 0.0965049 -8.96529 7.01636 -0.659958 -8.52439 6.7601 -1.24494 
-7.73192 7.09439 1.89282 -7.79724 7.37052 1.2837 -7.58262 7.55661 0.443976 
-7.16139 7.57804 -0.398709 -6.70466 7.36889 -1.0302 -6.27431 6.9959 -1.53642 
-5.63735 7.14226 1.90609 -5.64495 7.48586 1.44953 -5.459 7.78964 0.733664 
-5.09288 7.98046 -0.134085 -4.69176 7.92311 -0.843371 -4.36105 7.6014 -1.31651 
[...]
POINT_DATA 1002
FIELD FieldData 4
_paraPhi 1 1002 double
6.2831853072 3.1415926536 6.2831853072 3.1415926536 4.7123889804 4.7123889804 1.5707963268 1.5707963268 3.6951670125 
5.7296109483 2.5880182947 0.5535743589 6.2831853072 6.2831853072 6.2831853072 6.2831853072 3.1415926536 3.1415926536 
3.1415926536 3.1415926536 3.1415926536 6.1053039672 5.898798347 5.6768734901 5.4599499503 5.2659633393 5.1032165617 
4.9713148346 4.8656852733 4.7809517865 0.17788134 0.38438696014 0.60631181711 0.82323535693 1.0172219679 1.1799687454 
1.3118704726 1.4175000338 1.5022335207 6.1892828907 6.1070320098 6.035312792 5.9728339911 5.9183214791 5.8706119594 
5.8286879411 5.7916808611 5.7588591896 0.093902416448 0.17615329733 0.2478725152 0.31035131605 0.36486382811 0.41257334776 
0.45449736604 0.4915044461 0.52432611754 3.3194739936 3.5259796137 3.7479044707 3.9648280105 4.1588146215 4.321561399 
4.4534631262 4.5590926874 4.6438261743 2.9637113136 2.7572056934 2.5352808365 2.3183572967 2.1243706857 1.9616239082 
1.829722181 1.7240926197 1.6393591329 3.23549507 3.3177459509 3.3894651688 3.4519439696 3.5064564817 3.5541660013 
3.5960900196 3.6330970997 3.6659187711 3.0476902371 2.9654393563 2.8937201384 2.8312413375 2.7767288255 2.7290193058 
2.6870952876 2.6500882075 2.617266536 6.2831853072 6.2831853072 6.2831853072 6.2831853072 3.1415926536 3.1415926536 
3.1415926536 3.1415926536 3.1415926536 6.1053039672 5.898798347 5.6768734901 5.4599499503 5.2659633393 5.1032165617 
4.9713148346 4.8656852733 4.7809517865 0.17788134 0.38438696014 0.60631181711 0.82323535693 1.0172219679 1.1799687454 
1.3118704726 1.4175000338 1.5022335207 6.1892828907 6.1070320098 6.035312792 5.9728339911 5.9183214791 5.8706119594 
5.8286879411 5.7916808611 5.7588591896 0.093902416448 0.17615329733 0.2478725152 0.31035131605 0.36486382811 0.41257334776 
0.45449736604 0.4915044461 0.52432611754 3.3194739936 3.5259796137 3.7479044707 3.9648280105 4.1588146215 4.321561399 
4.4534631262 4.5590926874 4.6438261743 2.9637113136 2.7572056934 2.5352808365 2.3183572967 2.1243706857 1.9616239082 
1.829722181 1.7240926197 1.6393591329 3.23549507 3.3177459509 3.3894651688 3.4519439696 3.5064564817 3.5541660013 
3.5960900196 3.6330970997 3.6659187711 3.0476902371 2.9654393563 2.8937201384 2.8312413375 2.7767288255 2.7290193058 
2.6870952876 2.6500882075 2.617266536 4.7123889804 4.7123889804 4.7123889804 4.7123889804 4.7123889804 4.7123889804 
4.7123889804 4.7123889804 4.7123889804 4.6087898617 4.4991390697 4.3857031936 4.2712800401 4.1588146215 4.0509635631 
3.94975894 3.8564636551 3.7716124825 4.8159880991 4.9256388911 5.0390747672 5.1534979207 5.2659633393 5.3738143976 
5.4750190208 5.5683143056 5.6531654782 4.6087898617 4.4991390697 4.3857031936 4.2712800401 4.1588146215 4.0509635631 
3.94975894 3.8564636551 3.7716124825 4.8159880991 4.9256388911 5.0390747672 5.1534979207 5.2659633393 5.3738143976 
5.4750190208 5.5683143056 5.6531654782 1.5707963268 1.5707963268 1.5707963268 1.5707963268 1.5707963268 1.5707963268 
1.5707963268 1.5707963268 1.5707963268 1.6743954455 1.7840462375 1.8974821136 2.0119052671 2.1243706857 2.232221744 
2.3334263672 2.426721652 2.5115728246 1.4671972081 1.3575464161 1.24411054 1.1296873865 1.0172219679 0.90937090954 
0.80816628637 0.71487100155 0.63001982895 1.6743954455 1.7840462375 1.8974821136 2.0119052671 2.1243706857 2.232221744 
2.3334263672 2.426721652 2.5115728246 1.4671972081 1.3575464161 1.24411054 1.1296873865 1.0172219679 0.90937090954 
0.80816628637 0.71487100155 0.63001982895 3.6007720849 3.4966939854 3.3839471039 3.2645756454 3.1415926536 3.0186096618 
2.8992382033 2.7864913217 2.6824132222 5.8240058758 5.9280839753 6.0408308569 6.1602023154 6.2831853072 0.12298299178 
0.2423544503 0.35510133185 0.45917943135 6.0560271438 5.7885595667 5.9702140275 5.5125918794 5.6029703303 5.7885595667 
5.2659633393 5.2659633393 5.2659633393 5.2659633393 5.0674903122 5.0120975802 4.9155579264 4.7123889804 4.1588146215 
4.9155579264 4.8353719722 4.7123889804 4.5092200343 4.1588146215 3.6362183941 4.8004512023 4.7123889804 4.5894059886 
4.4126803806 4.1588146215 3.8218076305 3.4545639333 4.7123889804 4.6243267584 4.5092200343 4.3572876485 4.1588146215 
3.9121860814 3.6362183941 3.368750817 6.0174235957 5.9434319871 5.8263323547 5.8809213739 5.7674481418 5.6279784266 
5.8278025282 5.718968232 5.5891129425 5.4372443565 5.7823484065 5.678536687 5.5575666702 5.4192596322 5.2659633393 
5.743164462 5.6444075337 5.5314983644 5.4046708639 5.2659633393 5.1195510325 5.7091357773 5.6152775188 5.5096229709 
5.3926039573 5.2659633393 5.1329233157 4.9978930058 5.6793730533 5.5901633916 5.4910209005 5.3824597928 5.2659633393 
5.1440684722 5.0201624502 4.8979782167 5.5683143056 5.4750190208 5.4750190208 5.3738143976 5.3738143976 5.3738143976 
5.2659633393 5.2659633393 5.2659633393 5.2659633393 5.1534979207 5.1534979207 5.1534979207 5.1534979207 5.1534979207 
5.0390747672 5.0390747672 5.0390747672 5.0390747672 5.0390747672 5.0390747672 4.9256388911 4.9256388911 4.9256388911 
4.9256388911 4.9256388911 4.9256388911 4.9256388911 4.8159880991 4.8159880991 4.8159880991 4.8159880991 4.8159880991 
4.8159880991 4.8159880991 4.8159880991 4.6087898617 4.6087898617 4.4991390697 4.6087898617 4.4991390697 4.3857031936 
4.6087898617 4.4991390697 4.3857031936 4.2712800401 4.6087898617 4.4991390697 4.3857031936 4.2712800401 4.1588146215 
4.6087898617 4.4991390697 4.3857031936 4.2712800401 4.1588146215 4.0509635631 4.6087898617 4.4991390697 4.3857031936 
4.2712800401 4.1588146215 4.0509635631 3.94975894 4.6087898617 4.4991390697 4.3857031936 4.2712800401 4.1588146215 
4.0509635631 3.94975894 3.8564636551 4.526799744 4.4046155105 4.426884955 4.2807094886 4.2918546451 4.3052269283 
4.1588146215 4.1588146215 4.1588146215 4.1588146215 4.042318168 4.0321740035 4.0201070968 4.0055183285 3.9875336042 
3.9337570603 3.9151549899 3.8932795963 3.8672112905 3.8356650183 3.7967995342 3.8346145692 3.809500442 3.7803704271 
3.7462412737 3.7058097288 3.657329819 3.5984456061 3.7454049075 3.7156421835 3.6816134988 3.6424295543 3.5969754326 
3.5438565869 3.4813459737 3.4073543651 3.5642842451 3.4524645613 3.5233842518 3.3320300872 3.403123212 3.4773852225 
3.20576226 3.2746326772 3.348015857 3.4255060145 3.0774230472 3.1415926536 3.2112816139 3.2864685043 3.3668817272 
2.95115522 3.00855263 3.0719036933 3.1415926536 3.2178377658 3.3005964304 2.8307207459 2.8800620952 2.9351694502 
2.9967168029 3.0653475414 3.1415926536 3.225752376 2.718901062 2.7598010554 2.8058000847 2.8576792927 2.91630358 
2.9825888767 3.0574329311 3.1415926536 3.5642842451 3.5233842518 3.4524645613 3.4773852225 3.403123212 3.3320300872 
3.4255060145 3.348015857 3.2746326772 3.20576226 3.3668817272 3.2864685043 3.2112816139 3.1415926536 3.0774230472 
3.3005964304 3.2178377658 3.1415926536 3.0719036933 3.00855263 2.95115522 3.225752376 3.1415926536 3.0653475414 
2.9967168029 2.9351694502 2.8800620952 2.8307207459 3.1415926536 3.0574329311 2.9825888767 2.91630358 2.8576792927 
2.8058000847 2.7598010554 2.718901062 4.526799744 4.426884955 4.4046155105 4.3052269283 4.2918546451 4.2807094886 
4.1588146215 4.1588146215 4.1588146215 4.1588146215 3.9875336042 4.0055183285 4.0201070968 4.0321740035 4.042318168 
3.7967995342 3.8356650183 3.8672112905 3.8932795963 3.9151549899 3.9337570603 3.5984456061 3.657329819 3.7058097288 
3.7462412737 3.7803704271 3.809500442 3.8346145692 3.4073543651 3.4813459737 3.5438565869 3.5969754326 3.6424295543 
3.6816134988 3.7156421835 3.7454049075 4.7123889804 4.8004512023 4.6243267584 4.9155579264 4.7123889804 4.5092200343 
5.0674903122 4.8353719722 4.5894059886 4.3572876485 5.2659633393 5.0120975802 4.7123889804 4.4126803806 4.1588146215 
5.5125918794 5.2659633393 4.9155579264 4.5092200343 4.1588146215 3.9121860814 5.7885595667 5.6029703303 5.2659633393 
4.7123889804 4.1588146215 3.8218076305 3.6362183941 6.0560271438 5.9702140275 5.7885595667 5.2659633393 4.1588146215 
3.6362183941 3.4545639333 3.368750817 0.22715816343 0.49462574053 0.3129712797 0.77059342779 0.68021497688 0.49462574053 
1.0172219679 1.0172219679 1.0172219679 1.0172219679 1.2156949949 1.271087727 1.3676273807 1.5707963268 2.1243706857 
1.3676273807 1.447813335 1.5707963268 1.7739652728 2.1243706857 2.6469669131 1.4827341049 1.5707963268 1.6937793186 
1.8705049266 2.1243706857 2.4613776767 2.8286213739 1.5707963268 1.6588585487 1.7739652728 1.9258976586 2.1243706857 
2.3709992258 2.6469669131 2.9144344902 1.7563855631 1.8785697967 1.8563003522 2.0024758186 1.9913306621 1.9779583789 
2.1243706857 2.1243706857 2.1243706857 2.1243706857 2.2408671392 2.2510113037 2.2630782103 2.2776669786 2.295651703 
2.3494282469 2.3680303173 2.3899057108 2.4159740166 2.4475202889 2.486385773 2.448570738 2.4736848652 2.5028148801 
2.5369440334 2.5773755784 2.6258554882 2.6847397011 2.5377803997 2.5675431237 2.6015718084 2.6407557529 2.6862098746 
2.7393287203 2.8018393335 2.8758309421 1.6743954455 1.6743954455 1.7840462375 1.6743954455 1.7840462375 1.8974821136 
1.6743954455 1.7840462375 1.8974821136 2.0119052671 1.6743954455 1.7840462375 1.8974821136 2.0119052671 2.1243706857 
1.6743954455 1.7840462375 1.8974821136 2.0119052671 2.1243706857 2.232221744 1.6743954455 1.7840462375 1.8974821136 
2.0119052671 2.1243706857 2.232221744 2.3334263672 1.6743954455 1.7840462375 1.8974821136 2.0119052671 2.1243706857 
2.232221744 2.3334263672 2.426721652 1.4671972081 1.3575464161 1.4671972081 1.24411054 1.3575464161 1.4671972081 
1.1296873865 1.24411054 1.3575464161 1.4671972081 1.0172219679 1.1296873865 1.24411054 1.3575464161 1.4671972081 
0.90937090954 1.0172219679 1.1296873865 1.24411054 1.3575464161 1.4671972081 0.80816628637 0.90937090954 1.0172219679 
1.1296873865 1.24411054 1.3575464161 1.4671972081 0.71487100155 0.80816628637 0.90937090954 1.0172219679 1.1296873865 
1.24411054 1.3575464161 1.4671972081 0.60381225391 0.57404952988 0.69302191562 0.54002084522 0.66790778838 0.79216440667 
0.50083690068 0.63877777351 0.77356233629 0.90072551443 0.45538277901 0.60464862014 0.75168694275 0.89058134991 1.0172219679 
0.40226393329 0.56421707518 0.72561863695 0.87851444325 1.0172219679 1.139116835 0.33975332011 0.51573716537 0.69407236469 
0.86392567495 1.0172219679 1.1502619915 1.2630228569 0.26576171152 0.45685295248 0.6552068806 0.84594095064 1.0172219679 
1.1636342747 1.2852923014 1.3852070904 0.22715816343 0.3129712797 0.49462574053 0.49462574053 0.68021497688 0.77059342779 
1.0172219679 1.0172219679 1.0172219679 1.0172219679 2.1243706857 1.5707963268 1.3676273807 1.271087727 1.2156949949 
2.6469669131 2.1243706857 1.7739652728 1.5707963268 1.447813335 1.3676273807 2.8286213739 2.4613776767 2.1243706857 
1.8705049266 1.6937793186 1.5707963268 1.4827341049 2.9144344902 2.6469669131 2.3709992258 2.1243706857 1.9258976586 
1.7739652728 1.6588585487 1.5707963268 1.7563855631 1.8563003522 1.8785697967 1.9779583789 1.9913306621 2.0024758186 
2.1243706857 2.1243706857 2.1243706857 2.1243706857 2.295651703 2.2776669786 2.2630782103 2.2510113037 2.2408671392 
2.486385773 2.4475202889 2.4159740166 2.3899057108 2.3680303173 2.3494282469 2.6847397011 2.6258554882 2.5773755784 
2.5369440334 2.5028148801 2.4736848652 2.448570738 2.8758309421 2.8018393335 2.7393287203 2.6862098746 2.6407557529 
2.6015718084 2.5675431237 2.5377803997 5.8604937156 5.901393709 5.9723133995 5.9473927383 6.0216547488 6.0927478736 
5.9992719463 6.0767621038 6.1501452836 6.2190157008 6.0578962336 6.1383094565 6.2134963469 0 0.064169606361 
6.1241815303 6.206940195 6.2831853072 0.069688960264 0.13304002361 0.19043743361 6.1990255847 0 0.07624511221 
0.14487585072 0.20642320337 0.26153055843 0.3108719077 0 0.084159722458 0.15900377685 0.22528907359 0.28391336087 
0.3357925689 0.38179159818 0.42269159155 5.8604937156 5.9723133995 5.901393709 6.0927478736 6.0216547488 5.9473927383 
6.2190157008 6.1501452836 6.0767621038 5.9992719463 0.064169606361 0 6.2134963469 6.1383094565 6.0578962336 
0.19043743361 0.13304002361 0.069688960264 6.2831853072 6.206940195 6.1241815303 0.3108719077 0.26153055843 0.20642320337 
0.14487585072 0.07624511221 6.2831853072 6.1990255847 0.42269159155 0.38179159818 0.3357925689 0.28391336087 0.22528907359 
0.15900377685 0.084159722458 0 5.6793730533 5.7091357773 5.5901633916 5.743164462 5.6152775188 5.4910209005 
5.7823484065 5.6444075337 5.5096229709 5.3824597928 5.8278025282 5.678536687 5.5314983644 5.3926039573 5.2659633393 
5.8809213739 5.718968232 5.5575666702 5.4046708639 5.2659633393 5.1440684722 5.9434319871 5.7674481418 5.5891129425 
5.4192596322 5.2659633393 5.1329233157 5.0201624502 6.0174235957 5.8263323547 5.6279784266 5.4372443565 5.2659633393 
5.1195510325 4.9978930058 4.8979782167 1.3852070904 1.2852923014 1.2630228569 1.1636342747 1.1502619915 1.139116835 
1.0172219679 1.0172219679 1.0172219679 1.0172219679 0.84594095064 0.86392567495 0.87851444325 0.89058134991 0.90072551443 
0.6552068806 0.69407236469 0.72561863695 0.75168694275 0.77356233629 0.79216440667 0.45685295248 0.51573716537 0.56421707518 
0.60464862014 0.63877777351 0.66790778838 0.69302191562 0.26576171152 0.33975332011 0.40226393329 0.45538277901 0.50083690068 
0.54002084522 0.57404952988 0.60381225391 
_paraPhiHalf 1 1002 double
0 3.1415926536 0 3.1415926536 1.5707963268 1.5707963268 1.5707963268 1.5707963268 2.5880182947 
0.5535743589 2.5880182947 0.5535743589 0 0 0 0 3.1415926536 3.1415926536 
3.1415926536 3.1415926536 3.1415926536 0.17788134 0.38438696014 0.60631181711 0.82323535693 1.0172219679 1.1799687454 
1.3118704726 1.4175000338 1.5022335207 0.17788134 0.38438696014 0.60631181711 0.82323535693 1.0172219679 1.1799687454 
1.3118704726 1.4175000338 1.5022335207 0.093902416448 0.17615329733 0.2478725152 0.31035131605 0.36486382811 0.41257334776 
0.45449736604 0.4915044461 0.52432611754 0.093902416448 0.17615329733 0.2478725152 0.31035131605 0.36486382811 0.41257334776 
0.45449736604 0.4915044461 0.52432611754 2.9637113136 2.7572056934 2.5352808365 2.3183572967 2.1243706857 1.9616239082 
1.829722181 1.7240926197 1.6393591329 2.9637113136 2.7572056934 2.5352808365 2.3183572967 2.1243706857 1.9616239082 
1.829722181 1.7240926197 1.6393591329 3.0476902371 2.9654393563 2.8937201384 2.8312413375 2.7767288255 2.7290193058 
2.6870952876 2.6500882075 2.617266536 3.0476902371 2.9654393563 2.8937201384 2.8312413375 2.7767288255 2.7290193058 
2.6870952876 2.6500882075 2.617266536 0 0 0 0 3.1415926536 3.1415926536 
3.1415926536 3.1415926536 3.1415926536 0.17788134 0.38438696014 0.60631181711 0.82323535693 1.0172219679 1.1799687454 
1.3118704726 1.4175000338 1.5022335207 0.17788134 0.38438696014 0.60631181711 0.82323535693 1.0172219679 1.1799687454 
1.3118704726 1.4175000338 1.5022335207 0.093902416448 0.17615329733 0.2478725152 0.31035131605 0.36486382811 0.41257334776 
0.45449736604 0.4915044461 0.52432611754 0.093902416448 0.17615329733 0.2478725152 0.31035131605 0.36486382811 0.41257334776 
0.45449736604 0.4915044461 0.52432611754 2.9637113136 2.7572056934 2.5352808365 2.3183572967 2.1243706857 1.9616239082 
1.829722181 1.7240926197 1.6393591329 2.9637113136 2.7572056934 2.5352808365 2.3183572967 2.1243706857 1.9616239082 
1.829722181 1.7240926197 1.6393591329 3.0476902371 2.9654393563 2.8937201384 2.8312413375 2.7767288255 2.7290193058 
2.6870952876 2.6500882075 2.617266536 3.0476902371 2.9654393563 2.8937201384 2.8312413375 2.7767288255 2.7290193058 
2.6870952876 2.6500882075 2.617266536 1.5707963268 1.5707963268 1.5707963268 1.5707963268 1.5707963268 1.5707963268 
1.5707963268 1.5707963268 1.5707963268 1.6743954455 1.7840462375 1.8974821136 2.0119052671 2.1243706857 2.232221744 
2.3334263672 2.426721652 2.5115728246 1.4671972081 1.3575464161 1.24411054 1.1296873865 1.0172219679 0.90937090954 
0.80816628637 0.71487100155 0.63001982895 1.6743954455 1.7840462375 1.8974821136 2.0119052671 2.1243706857 2.232221744 
2.3334263672 2.426721652 2.5115728246 1.4671972081 1.3575464161 1.24411054 1.1296873865 1.0172219679 0.90937090954 
0.80816628637 0.71487100155 0.63001982895 1.5707963268 1.5707963268 1.5707963268 1.5707963268 1.5707963268 1.5707963268 
1.5707963268 1.5707963268 1.5707963268 1.6743954455 1.7840462375 1.8974821136 2.0119052671 2.1243706857 2.232221744 
2.3334263672 2.426721652 2.5115728246 1.4671972081 1.3575464161 1.24411054 1.1296873865 1.0172219679 0.90937090954 
0.80816628637 0.71487100155 0.63001982895 1.6743954455 1.7840462375 1.8974821136 2.0119052671 2.1243706857 2.232221744 
2.3334263672 2.426721652 2.5115728246 1.4671972081 1.3575464161 1.24411054 1.1296873865 1.0172219679 0.90937090954 
0.80816628637 0.71487100155 0.63001982895 2.6824132222 2.7864913217 2.8992382033 3.0186096618 3.1415926536 3.0186096618 
2.8992382033 2.7864913217 2.6824132222 0.45917943135 0.35510133185 0.2423544503 0.12298299178 0 0.12298299178 
0.2423544503 0.35510133185 0.45917943135 0.22715816343 0.49462574053 0.3129712797 0.77059342779 0.68021497688 0.49462574053 
1.0172219679 1.0172219679 1.0172219679 1.0172219679 1.2156949949 1.271087727 1.3676273807 1.5707963268 2.1243706857 
1.3676273807 1.447813335 1.5707963268 1.7739652728 2.1243706857 2.6469669131 1.4827341049 1.5707963268 1.6937793186 
1.8705049266 2.1243706857 2.4613776767 2.8286213739 1.5707963268 1.6588585487 1.7739652728 1.9258976586 2.1243706857 
2.3709992258 2.6469669131 2.9144344902 0.26576171152 0.33975332011 0.45685295248 0.40226393329 0.51573716537 0.6552068806 
0.45538277901 0.56421707518 0.69407236469 0.84594095064 0.50083690068 0.60464862014 0.72561863695 0.86392567495 1.0172219679 
0.54002084522 0.63877777351 0.75168694275 0.87851444325 1.0172219679 1.1636342747 0.57404952988 0.66790778838 0.77356233629 
0.89058134991 1.0172219679 1.1502619915 1.2852923014 0.60381225391 0.69302191562 0.79216440667 0.90072551443 1.0172219679 
1.139116835 1.2630228569 1.3852070904 0.71487100155 0.80816628637 0.80816628637 0.90937090954 0.90937090954 0.90937090954 
1.0172219679 1.0172219679 1.0172219679 1.0172219679 1.1296873865 1.1296873865 1.1296873865 1.1296873865 1.1296873865 
1.24411054 1.24411054 1.24411054 1.24411054 1.24411054 1.24411054 1.3575464161 1.3575464161 1.3575464161 
1.3575464161 1.3575464161 1.3575464161 1.3575464161 1.4671972081 1.4671972081 1.4671972081 1.4671972081 1.4671972081 
1.4671972081 1.4671972081 1.4671972081 1.6743954455 1.6743954455 1.7840462375 1.6743954455 1.7840462375 1.8974821136 
1.6743954455 1.7840462375 1.8974821136 2.0119052671 1.6743954455 1.7840462375 1.8974821136 2.0119052671 2.1243706857 
1.6743954455 1.7840462375 1.8974821136 2.0119052671 2.1243706857 2.232221744 1.6743954455 1.7840462375 1.8974821136 
2.0119052671 2.1243706857 2.232221744 2.3334263672 1.6743954455 1.7840462375 1.8974821136 2.0119052671 2.1243706857 
2.232221744 2.3334263672 2.426721652 1.7563855631 1.8785697967 1.8563003522 2.0024758186 1.9913306621 1.9779583789 
2.1243706857 2.1243706857 2.1243706857 2.1243706857 2.2408671392 2.2510113037 2.2630782103 2.2776669786 2.295651703 
2.3494282469 2.3680303173 2.3899057108 2.4159740166 2.4475202889 2.486385773 2.448570738 2.4736848652 2.5028148801 
2.5369440334 2.5773755784 2.6258554882 2.6847397011 2.5377803997 2.5675431237 2.6015718084 2.6407557529 2.6862098746 
2.7393287203 2.8018393335 2.8758309421 2.718901062 2.8307207459 2.7598010554 2.95115522 2.8800620952 2.8058000847 
3.0774230472 3.00855263 2.9351694502 2.8576792927 3.0774230472 3.1415926536 3.0719036933 2.9967168029 2.91630358 
2.95115522 3.00855263 3.0719036933 3.1415926536 3.0653475414 2.9825888767 2.8307207459 2.8800620952 2.9351694502 
2.9967168029 3.0653475414 3.1415926536 3.0574329311 2.718901062 2.7598010554 2.8058000847 2.8576792927 2.91630358 
2.9825888767 3.0574329311 3.1415926536 2.718901062 2.7598010554 2.8307207459 2.8058000847 2.8800620952 2.95115522 
2.8576792927 2.9351694502 3.00855263 3.0774230472 2.91630358 2.9967168029 3.0719036933 3.1415926536 3.0774230472 
2.9825888767 3.0653475414 3.1415926536 3.0719036933 3.00855263 2.95115522 3.0574329311 3.1415926536 3.0653475414 