# vtk DataFile Version 5.1
vtk output
ASCII
DATASET POLYDATA
POINTS 1002 float
-12.0371 -0.445426 -3.11557 11.6693 0.635857 -3.94979 -11.6174 0.781486 3.19551 
11.2745 -0.192502 3.82715 0.938051 6.57181 -2.3411 0.0151587 6.15978 2.16319 
0.118672 -3.25895 -1.27986 0.462523 -3.81714 2.31412 18.1157 4.34275 -0.0889706 
-18.3008 3.97648 -0.253353 17.9073 -7.43435 -0.653049 -18.367 -7.40721 -0.0163534 
-10.1558 0.0572225 -2.8411 -7.9777 0.519704 -2.57562 -5.56865 0.908926 -2.3851 
-2.92312 1.21214 -2.3372 -0.0082689 1.39575 -2.50569 3.03105 1.42491 -2.91797 
5.86128 1.31794 -3.45008 8.23574 1.12766 -3.86894 10.1389 0.893086 -4.02744 
-11.3529 0.294442 -3.00411 -10.4567 1.10678 -2.82393 -9.34141 1.94292 -2.60894 
-7.99919 2.75059 -2.44446 -6.4508 3.5158 -2.39948 -4.79968 4.24336 -2.4426 
-3.18635 4.91623 -2.47822 -1.68691 5.51978 -2.4584 -0.311116 6.06737 -2.40394 
-11.4904 -0.817184 -2.99677 -10.7684 -1.17401 -2.82412 -9.83596 -1.52493 -2.6344 
-8.7088 -1.84532 -2.42788 -7.44481 -2.09737 -2.15592 -6.08314 -2.2817 -1.80958 
-4.62742 -2.44329 -1.48433 -3.08013 -2.63888 -1.29107 -1.47333 -2.90888 -1.24466 
-13.4012 -0.483782 -3.30385 -14.7245 -0.379188 -3.4169 -15.8953 -0.0459476 -3.44003 
-16.8628 0.500985 -3.3668 -17.6674 1.16101 -3.13093 -18.3082 1.8479 -2.67174 
-18.6826 2.51405 -2.0624 -18.7458 3.11115 -1.43527 -18.5844 3.60044 -0.837328 
-13.4292 -1.25148 -3.31701 -14.7117 -2.16411 -3.45994 -15.841 -3.12206 -3.4688 
-16.8159 -4.08653 -3.31025 -17.6067 -5.08671 -3.01098 -18.1418 -6.10721 -2.58139 
-18.4043 -6.96792 -1.9978 -18.4758 -7.4638 -1.29879 -18.4514 -7.56816 -0.603705 
11.1141 1.37831 -3.97628 10.4263 2.14886 -4.00396 9.60003 2.91489 -4.02644 
8.62962 3.66211 -3.97604 7.52697 4.37209 -3.81519 6.30649 5.00698 -3.59516 
4.98309 5.54181 -3.35748 3.60474 5.97717 -3.07345 2.24082 6.31772 -2.72325 
11.2607 0.0708879 -3.98869 10.7338 -0.497854 -3.93827 10.0317 -1.03758 -3.74746 
9.11338 -1.51769 -3.42739 7.96365 -1.91417 -3.04065 6.55721 -2.22142 -2.63991 
4.91145 -2.47305 -2.25244 3.17366 -2.72285 -1.89583 1.54116 -2.99174 -1.57341 
12.7698 0.838051 -3.76775 13.9064 1.10065 -3.5411 15.0093 1.43558 -3.31598 
15.9992 1.81673 -3.06903 16.8688 2.21488 -2.74487 17.6276 2.65468 -2.33297 
18.1892 3.15741 -1.8525 18.4419 3.65998 -1.30495 18.386 4.06801 -0.70036 
12.8009 -0.0316105 -3.75786 13.8325 -0.839805 -3.41251 14.7551 -1.81336 -2.98047 
15.6787 -2.9242 -2.64828 16.634 -4.04978 -2.54416 17.4102 -5.06486 -2.53431 
17.8175 -5.93887 -2.35062 17.9441 -6.6638 -1.89511 17.9637 -7.17884 -1.28032 
-9.79538 0.939536 3.3277 -7.70158 1.04349 3.50384 -5.34274 1.06808 3.5936 
-2.64499 1.03105 3.43427 0.383619 0.942808 3.12858 3.42764 0.77759 3.03818 
6.05279 0.540449 3.30626 8.12524 0.285143 3.67355 9.81244 0.0436973 3.85776 
-11.025 1.34492 3.25867 -10.2694 1.94856 3.28324 -9.38221 2.59153 3.28826 
-8.33861 3.25981 3.29626 -7.05946 3.91247 3.29692 -5.57152 4.50261 3.2454 
-4.04542 5.01058 3.09372 -2.60842 5.44352 2.82964 -1.26235 5.8195 2.49602 
-10.9751 0.328275 3.14848 -10.1123 -0.16127 3.04978 -9.07972 -0.678934 2.95715 
-7.9199 -1.19577 2.94104 -6.61428 -1.69411 2.96481 -5.15509 -2.17181 2.90486 
-3.62797 -2.61552 2.73605 -2.15104 -3.0204 2.55793 -0.785159 -3.41312 2.43039 
-12.9549 0.973808 3.13288 -14.2055 1.24543 3.02584 -15.3509 1.60871 2.85674 
-16.3914 2.02993 2.64504 -17.2778 2.47445 2.38764 -17.9351 2.93053 2.01192 
-18.3379 3.358 1.47213 -18.5089 3.68559 0.842639 -18.4837 3.8821 0.24609 
-12.9712 0.292803 3.08069 -14.2789 -0.30147 2.9644 -15.5013 -1.04852 2.82553 
-16.6758 -2.02282 2.60932 -17.7676 -3.20595 2.26823 -18.5815 -4.4226 1.83333 
-18.9615 -5.49143 1.38544 -18.9591 -6.35282 0.948155 -18.7245 -6.999 0.484805 
10.7197 0.568975 3.82313 10.058 1.38185 3.7008 9.28025 2.19708 3.4632 
8.34018 2.98551 3.17618 7.17576 3.7362 2.92475 5.78393 4.42428 2.74199 
4.25238 5.01434 2.59802 2.71408 5.4911 2.45404 1.28331 5.86516 2.30352 
10.878 -0.76533 3.82887 10.3575 -1.31626 3.77814 9.68175 -1.82994 3.64889 
8.81371 -2.3055 3.44713 7.71465 -2.73049 3.22064 6.38224 -3.07557 3.00504 
4.89407 -3.32783 2.79637 3.36796 -3.50928 2.59766 1.88101 -3.66037 2.4343 
12.3548 0.0403811 3.73241 13.4371 0.328366 3.607 14.4654 0.690067 3.40648 
15.445 1.13091 3.04027 16.4033 1.60912 2.52204 17.2755 2.09277 1.99982 
17.9195 2.62381 1.54527 18.2519 3.23174 1.07121 18.2941 3.84224 0.509313 
12.4631 -0.839092 3.67774 13.6654 -1.58947 3.46396 14.7898 -2.43907 3.27133 
15.7914 -3.38039 3.09625 16.7018 -4.37224 2.82115 17.5347 -5.32613 2.33286 
18.1664 -6.14984 1.63962 18.4209 -6.78651 0.849693 18.2798 -7.21283 0.0683939 
0.881737 7.01651 -2.03332 0.795316 7.46534 -1.64432 0.64774 7.85356 -1.13091 
0.452377 8.07797 -0.478217 0.286021 8.04559 0.223177 0.208033 7.76124 0.816669 
0.182689 7.34404 1.23994 0.139683 6.91956 1.56557 0.0699374 6.52977 1.87186 
2.95804 6.92302 -2.50164 5.03646 7.24299 -2.58075 7.11075 7.45498 -2.50757 
9.17837 7.48499 -2.28793 11.2324 7.3063 -1.98235 13.1565 6.96089 -1.6337 
14.8036 6.50323 -1.25298 16.1459 5.92718 -0.853066 17.2387 5.19902 -0.458135 
-1.22256 6.47028 -1.99007 -3.68551 6.35488 -1.68437 -6.33074 6.27879 -1.49285 
-8.93788 6.24188 -1.36912 -11.2746 6.13316 -1.19264 -13.2397 5.82974 -0.933403 
-14.8876 5.35589 -0.681712 -16.2885 4.84912 -0.506314 -17.4353 4.39538 -0.383139 
2.11747 6.36947 1.96822 4.4381 6.6527 1.87945 6.80692 6.90784 1.85603 
9.02273 6.99552 1.77982 11.0516 6.88472 1.59828 12.9566 6.64301 1.35637 
14.6723 6.28379 1.07247 16.0839 5.76364 0.718566 17.2055 5.09286 0.310149 
-2.03223 6.23917 2.2523 -4.28359 6.33396 2.32187 -6.69446 6.37768 2.24952 
-9.07323 6.3144 2.02035 -11.2027 6.14387 1.77206 -13.0622 5.88232 1.5771 
-14.7415 5.52395 1.30761 -16.2164 5.06988 0.851205 -17.4027 4.54499 0.282565 
0.283449 -3.66643 -1.11383 0.451431 -4.06659 -0.888139 0.555404 -4.41328 -0.606285 
0.536941 -4.69539 -0.274579 0.403426 -4.91111 0.144826 0.244148 -4.99755 0.691722 
0.167712 -4.87672 1.29329 0.213103 -4.57188 1.79669 0.334374 -4.19019 2.12419 
2.64531 -3.58427 -1.53584 5.33577 -4.12736 -1.797 7.89079 -4.88105 -2.01309 
10.1358 -5.79085 -2.20329 12.0886 -6.73634 -2.35253 13.7543 -7.51881 -2.34506 
15.0819 -7.94468 -2.09848 16.1365 -7.97801 -1.66855 17.0612 -7.75468 -1.16451 
-2.20307 -3.34315 -1.0018 -4.58833 -3.60763 -0.871711 -7.02484 -4.1354 -0.971461 
-9.44059 -4.9096 -1.22152 -11.6265 -5.7377 -1.39466 -13.4452 -6.41939 -1.3306 
-14.9842 -6.93067 -1.06408 -16.3431 -7.30613 -0.710789 -17.4855 -7.48878 -0.348013 
2.62047 -4.20405 2.22464 4.98359 -4.74353 2.0703 7.42965 -5.39234 1.84424 
9.73119 -6.09549 1.58189 11.7111 -6.78713 1.29779 13.3949 -7.36192 0.945994 
14.886 -7.71385 0.511209 16.1726 -7.81437 0.0620063 17.181 -7.70434 -0.331331 
-1.79045 -3.80102 2.29591 -4.3104 -3.96361 2.25308 -6.97894 -4.32607 2.11815 
-9.52578 -4.83817 1.86119 -11.7273 -5.40621 1.53053 -13.6138 -5.95361 1.19496 
-15.2831 -6.44756 0.881528 -16.6665 -6.87592 0.587177 -17.6735 -7.21156 0.295901 
19.1007 3.20656 -0.0805777 19.9889 1.88387 0.0184238 20.5923 0.454034 0.221244 
20.8102 -1.0301 0.410362 20.7338 -2.55731 0.427496 20.5035 -4.0553 0.251882 
20.1249 -5.34764 -0.00920089 19.5377 -6.30431 -0.266376 18.7646 -6.96031 -0.486962 
-19.1858 3.25851 -0.433929 -19.9759 2.27391 -0.541316 -20.7136 0.947196 -0.615238 
-21.3879 -0.675007 -0.704885 -21.7709 -2.41394 -0.747948 -21.5886 -4.07333 -0.635667 
-20.8967 -5.50333 -0.398472 -20.0235 -6.56884 -0.177951 -19.1833 -7.18782 -0.0559575 
-9.24321 0.791227 -2.7296 -8.12276 1.5727 -2.56593 -6.8595 1.23757 -2.4775 
-6.79666 2.34729 -2.41034 -5.54162 1.96801 -2.36181 -4.25857 1.58652 -2.34344 
-5.25497 3.08328 -2.37406 -4.01534 2.65798 -2.3372 -2.7402 2.23317 -2.36184 
-1.39213 1.80896 -2.44346 -3.55621 3.79938 -2.49696 -2.29553 3.32189 -2.50984 
-1.01954 2.83585 -2.56221 0.323538 2.36243 -2.69057 1.70778 1.90228 -2.82555 
-1.86532 4.50431 -2.67497 -0.527251 4.01289 -2.8132 0.794445 3.47102 -2.93556 
2.12908 2.92875 -3.09513 3.46947 2.41365 -3.25618 4.73067 1.89202 -3.36571 
-0.324156 5.16745 -2.77944 1.08427 4.71841 -3.05303 2.47491 4.17973 -3.27533 
3.82262 3.59063 -3.4854 5.11241 3.00138 -3.66806 6.29171 2.41768 -3.77136 
7.32573 1.79681 -3.81844 1.03792 5.7702 -2.78259 2.45184 5.38132 -3.12706 
3.86692 4.89397 -3.40942 5.22063 4.31728 -3.65637 6.47703 3.68064 -3.87111 
7.60435 3.01961 -3.99488 8.57867 2.33653 -4.0197 9.41535 1.6194 -4.0177 
-12.7604 0.3862 -3.13449 -14.0981 0.640694 -3.1844 -11.8622 1.33093 -2.88145 
-15.2182 1.09293 -3.1633 -13.153 1.70476 -2.86547 -10.6865 2.27201 -2.6169 
-16.0977 1.67816 -3.05441 -14.1844 2.21157 -2.79812 -11.8951 2.71504 -2.56813 
-9.2472 3.15574 -2.43926 -16.8147 2.31078 -2.76309 -14.9925 2.78748 -2.63962 
-12.8786 3.24276 -2.46964 -10.4011 3.64132 -2.37932 -7.61804 3.97623 -2.36561 
-17.3507 2.94662 -2.2533 -15.657 3.39509 -2.29178 -13.6931 3.82889 -2.25623 
-11.4137 4.19396 -2.24215 -8.76419 4.48325 -2.25356 -5.92336 4.72202 -2.3108 
-17.6127 3.53768 -1.62976 -16.1186 3.98964 -1.75541 -14.3407 4.44007 -1.85397 
-12.2687 4.80116 -1.96134 -9.81487 5.03805 -2.03947 -7.05652 5.21028 -2.08827 
-4.26528 5.37252 -2.21005 -17.611 4.02681 -0.997715 -16.3131 4.48934 -1.134 
-14.7387 4.97903 -1.29743 -12.889 5.38775 -1.50591 -10.6751 5.6203 -1.68567 
-8.09255 5.72452 -1.77974 -5.34137 5.8186 -1.87529 -2.68959 5.94453 -2.08792 
-16.3713 4.99407 0.1685 -15.0408 5.55135 0.697623 -15.0738 5.50258 0.00158894 
-13.4597 6.03156 1.09067 -13.6101 6.09481 0.45011 -13.5196 6.04811 -0.261544 
-11.6333 6.40515 1.36907 -11.8787 6.58071 0.821329 -11.874 6.63326 0.138769 
-11.6604 6.48968 -0.572897 -9.49012 6.6512 1.64849 -9.80765 6.9274 1.18042 
-9.90872 7.0796 0.562769 -9.76007 7.01667 -0.154244 -9.42004 6.70676 -0.832735 
-7.0352 6.7476 1.90547 -7.35958 7.09854 1.5072 -7.56905 7.36347 0.978701 
-7.53566 7.41866 0.296425 -7.25592 7.19232 -0.423307 -6.82798 6.7623 -1.03458 
-4.48938 6.70665 2.00583 -4.71365 7.09269 1.66534 -4.93251 7.45787 1.23626 
-5.0082 7.67495 0.636326 -4.83748 7.60899 -0.0825214 -4.48528 7.27294 -0.754492 
[...]
POINT_DATA 1002
FIELD FieldData 4
_paraPhi 1 1002 double
6.2831853072 3.1415926536 6.2831853072 3.1415926536 4.7123889804 4.7123889804 1.5707963268 1.5707963268 3.6951670125 
5.7296109483 2.5880182947 0.5535743589 6.2831853072 6.2831853072 6.2831853072 6.2831853072 3.1415926536 3.1415926536 
3.1415926536 3.1415926536 3.1415926536 6.1053039672 5.898798347 5.6768734901 5.4599499503 5.2659633393 5.1032165617 
4.9713148346 4.8656852733 4.7809517865 0.17788134 0.38438696014 0.60631181711 0.82323535693 1.0172219679 1.1799687454 
1.3118704726 1.4175000338 1.5022335207 6.1892828907 6.1070320098 6.035312792 5.9728339911 5.9183214791 5.8706119594 
5.8286879411 5.7916808611 5.7588591896 0.093902416448 0.17615329733 0.2478725152 0.31035131605 0.36486382811 0.41257334776 
0.45449736604 0.4915044461 0.52432611754 3.3194739936 3.5259796137 3.7479044707 3.9648280105 4.1588146215 4.321561399 
4.4534631262 4.5590926874 4.6438261743 2.9637113136 2.7572056934 2.5352808365 2.3183572967 2.1243706857 1.9616239082 
1.829722181 1.7240926197 1.6393591329 3.23549507 3.3177459509 3.3894651688 3.4519439696 3.5064564817 3.5541660013 
3.5960900196 3.6330970997 3.6659187711 3.0476902371 2.9654393563 2.8937201384 2.8312413375 2.7767288255 2.7290193058 
2.6870952876 2.6500882075 2.617266536 6.2831853072 6.2831853072 6.2831853072 6.2831853072 3.1415926536 3.1415926536 
3.1415926536 3.1415926536 3.1415926536 6.1053039672 5.898798347 5.6768734901 5.4599499503 5.2659633393 5.1032165617 
4.9713148346 4.8656852733 4.7809517865 0.17788134 0.38438696014 0.60631181711 0.82323535693 1.0172219679 1.1799687454 
1.3118704726 1.4175000338 1.5022335207 6.1892828907 6.1070320098 6.035312792 5.9728339911 5.9183214791 5.8706119594 
5.8286879411 5.7916808611 5.7588591896 0.093902416448 0.17615329733 0.2478725152 0.31035131605 0.36486382811 0.41257334776 
0.45449736604 0.4915044461 0.52432611754 3.3194739936 3.5259796137 3.7479044707 3.9648280105 4.1588146215 4.321561399 
4.4534631262 4.5590926874 4.6438261743 2.9637113136 2.7572056934 2.5352808365 2.3183572967 2.1243706857 1.9616239082 
1.829722181 1.7240926197 1.6393591329 3.23549507 3.3177459509 3.3894651688 3.4519439696 3.5064564817 3.5541660013 
3.5960900196 3.6330970997 3.6659187711 3.0476902371 2.9654393563 2.8937201384 2.8312413375 2.7767288255 2.7290193058 
2.6870952876 2.6500882075 2.617266536 4.7123889804 4.7123889804 4.7123889804 4.7123889804 4.7123889804 4.7123889804 
4.7123889804 4.7123889804 4.7123889804 4.6087898617 4.4991390697 4.3857031936 4.2712800401 4.1588146215 4.0509635631 
3.94975894 3.8564636551 3.7716124825 4.8159880991 4.9256388911 5.0390747672 5.1534979207 5.2659633393 5.3738143976 
5.4750190208 5.5683143056 5.6531654782 4.6087898617 4.4991390697 4.3857031936 4.2712800401 4.1588146215 4.0509635631 
3.94975894 3.8564636551 3.7716124825 4.8159880991 4.9256388911 5.0390747672 5.1534979207 5.2659633393 5.3738143976 
5.4750190208 5.5683143056 5.6531654782 1.5707963268 1.5707963268 1.5707963268 1.5707963268 1.5707963268 1.5707963268 
1.5707963268 1.5707963268 1.5707963268 1.6743954455 1.7840462375 1.8974821136 2.0119052671 2.1243706857 2.232221744 
2.3334263672 2.426721652 2.5115728246 1.4671972081 1.3575464161 1.24411054 1.1296873865 1.0172219679 0.90937090954 
0.80816628637 0.71487100155 0.63001982895 1.6743954455 1.7840462375 1.8974821136 2.0119052671 2.1243706857 2.232221744 
2.3334263672 2.426721652 2.5115728246 1.4671972081 1.3575464161 1.24411054 1.1296873865 1.0172219679 0.90937090954 
0.80816628637 0.71487100155 0.63001982895 3.6007720849 3.4966939854 3.3839471039 3.2645756454 3.1415926536 3.0186096618 
2.8992382033 2.7864913217 2.6824132222 5.8240058758 5.9280839753 6.0408308569 6.1602023154 6.2831853072 0.12298299178 
0.2423544503 0.35510133185 0.45917943135 6.0560271438 5.7885595667 5.9702140275 5.5125918794 5.6029703303 5.7885595667 
5.2659633393 5.2659633393 5.2659633393 5.2659633393 5.0674903122 5.0120975802 4.9155579264 4.7123889804 4.1588146215 
4.9155579264 4.8353719722 4.7123889804 4.5092200343 4.1588146215 3.6362183941 4.8004512023 4.7123889804 4.5894059886 
4.4126803806 4.1588146215 3.8218076305 3.4545639333 4.7123889804 4.6243267584 4.5092200343 4.3572876485 4.1588146215 
3.9121860814 3.6362183941 3.368750817 6.0174235957 5.9434319871 5.8263323547 5.8809213739 5.7674481418 5.6279784266 
5.8278025282 5.718968232 5.5891129425 5.4372443565 5.7823484065 5.678536687 5.5575666702 5.4192596322 5.2659633393 
5.743164462 5.6444075337 5.5314983644 5.4046708639 5.2659633393 5.1195510325 5.7091357773 5.6152775188 5.5096229709 
5.3926039573 5.2659633393 5.1329233157 4.9978930058 5.6793730533 5.5901633916 5.4910209005 5.3824597928 5.2659633393 
5.1440684722 5.0201624502 4.8979782167 5.5683143056 5.4750190208 5.4750190208 5.3738143976 5.3738143976 5.3738143976 
5.2659633393 5.2659633393 5.2659633393 5.2659633393 5.1534979207 5.1534979207 5.1534979207 5.1534979207 5.1534979207 
5.0390747672 5.0390747672 5.0390747672 5.0390747672 5.0390747672 5.0390747672 4.9256388911 4.9256388911 4.9256388911 
4.9256388911 4.9256388911 4.9256388911 4.9256388911 4.8159880991 4.8159880991 4.8159880991 4.8159880991 4.8159880991 
4.8159880991 4.8159880991 4.8159880991 4.6087898617 4.6087898617 4.4991390697 4.6087898617 4.4991390697 4.3857031936 
4.6087898617 4.4991390697 4.3857031936 4.2712800401 4.6087898617 4.4991390697 4.3857031936 4.2712800401 4.1588146215 
4.6087898617 4.4991390697 4.3857031936 4.2712800401 4.1588146215 4.0509635631 4.6087898617 4.4991390697 4.3857031936 
4.2712800401 4.1588146215 4.0509635631 3.94975894 4.6087898617 4.4991390697 4.3857031936 4.2712800401 4.1588146215 
4.0509635631 3.94975894 3.8564636551 4.526799744 4.4046155105 4.426884955 4.2807094886 4.2918546451 4.3052269283 
4.1588146215 4.1588146215 4.1588146215 4.1588146215 4.042318168 4.0321740035 4.0201070968 4.0055183285 3.9875336042 
3.9337570603 3.9151549899 3.8932795963 3.8672112905 3.8356650183 3.7967995342 3.8346145692 3.809500442 3.7803704271 
3.7462412737 3.7058097288 3.657329819 3.5984456061 3.7454049075 3.7156421835 3.6816134988 3.6424295543 3.5969754326 
3.5438565869 3.4813459737 3.4073543651 3.5642842451 3.4524645613 3.5233842518 3.3320300872 3.403123212 3.4773852225 
3.20576226 3.2746326772 3.348015857 3.4255060145 3.0774230472 3.1415926536 3.2112816139 3.2864685043 3.3668817272 
2.95115522 3.00855263 3.0719036933 3.1415926536 3.2178377658 3.3005964304 2.8307207459 2.8800620952 2.9351694502 
2.9967168029 3.0653475414 3.1415926536 3.225752376 2.718901062 2.7598010554 2.8058000847 2.8576792927 2.91630358 
2.9825888767 3.0574329311 3.1415926536 3.5642842451 3.5233842518 3.4524645613 3.4773852225 3.403123212 3.3320300872 
3.4255060145 3.348015857 3.2746326772 3.20576226 3.3668817272 3.2864685043 3.2112816139 3.1415926536 3.0774230472 
3.3005964304 3.2178377658 3.1415926536 3.0719036933 3.00855263 2.95115522 3.225752376 3.1415926536 3.0653475414 
2.9967168029 2.9351694502 2.8800620952 2.8307207459 3.1415926536 3.0574329311 2.9825888767 2.91630358 2.8576792927 
2.8058000847 2.7598010554 2.718901062 4.526799744 4.426884955 4.4046155105 4.3052269283 4.2918546451 4.2807094886 
4.1588146215 4.1588146215 4.1588146215 4.1588146215 3.9875336042 4.0055183285 4.0201070968 4.0321740035 4.042318168 
3.7967995342 3.8356650183 3.8672112905 3.8932795963 3.9151549899 3.9337570603 3.5984456061 3.657329819 3.7058097288 
3.7462412737 3.7803704271 3.809500442 3.8346145692 3.4073543651 3.4813459737 3.5438565869 3.5969754326 3.6424295543 
3.6816134988 3.7156421835 3.7454049075 4.7123889804 4.8004512023 4.6243267584 4.9155579264 4.7123889804 4.5092200343 
5.0674903122 4.8353719722 4.5894059886 4.3572876485 5.2659633393 5.0120975802 4.7123889804 4.4126803806 4.1588146215 
5.5125918794 5.2659633393 4.9155579264 4.5092200343 4.1588146215 3.9121860814 5.7885595667 5.6029703303 5.2659633393 
4.7123889804 4.1588146215 3.8218076305 3.6362183941 6.0560271438 5.9702140275 5.7885595667 5.2659633393 4.1588146215 
3.6362183941 3.4545639333 3.368750817 0.22715816343 0.49462574053 0.3129712797 0.77059342779 0.68021497688 0.49462574053 
1.0172219679 1.0172219679 1.0172219679 1.0172219679 1.2156949949 1.271087727 1.3676273807 1.5707963268 2.1243706857 
1.3676273807 1.447813335 1.5707963268 1.7739652728 2.1243706857 2.6469669131 1.4827341049 1.5707963268 1.6937793186 
1.8705049266 2.1243706857 2.4613776767 2.8286213739 1.5707963268 1.6588585487 1.7739652728 1.9258976586 2.1243706857 
2.3709992258 2.6469669131 2.9144344902 1.7563855631 1.8785697967 1.8563003522 2.0024758186 1.9913306621 1.9779583789 
2.1243706857 2.1243706857 2.1243706857 2.1243706857 2.2408671392 2.2510113037 2.2630782103 2.2776669786 2.295651703 
2.3494282469 2.3680303173 2.3899057108 2.4159740166 2.4475202889 2.486385773 2.448570738 2.4736848652 2.5028148801 
2.5369440334 2.5773755784 2.6258554882 2.6847397011 2.5377803997 2.5675431237 2.6015718084 2.6407557529 2.6862098746 
2.7393287203 2.8018393335 2.8758309421 1.6743954455 1.6743954455 1.7840462375 1.6743954455 1.7840462375 1.8974821136 
1.6743954455 1.7840462375 1.8974821136 2.0119052671 1.6743954455 1.7840462375 1.8974821136 2.0119052671 2.1243706857 
1.6743954455 1.7840462375 1.8974821136 2.0119052671 2.1243706857 2.232221744 1.6743954455 1.7840462375 1.8974821136 
2.0119052671 2.1243706857 2.232221744 2.3334263672 1.6743954455 1.7840462375 1.8974821136 2.0119052671 2.1243706857 
2.232221744 2.3334263672 2.426721652 1.4671972081 1.3575464161 1.4671972081 1.24411054 1.3575464161 1.4671972081 
1.1296873865 1.24411054 1.3575464161 1.4671972081 1.0172219679 1.1296873865 1.24411054 1.3575464161 1.4671972081 
0.90937090954 1.0172219679 1.1296873865 1.24411054 1.3575464161 1.4671972081 0.80816628637 0.90937090954 1.0172219679 
1.1296873865 1.24411054 1.3575464161 1.4671972081 0.71487100155 0.80816628637 0.90937090954 1.0172219679 1.1296873865 
1.24411054 1.3575464161 1.4671972081 0.60381225391 0.57404952988 0.69302191562 0.54002084522 0.66790778838 0.79216440667 
0.50083690068 0.63877777351 0.77356233629 0.90072551443 0.45538277901 0.60464862014 0.75168694275 0.89058134991 1.0172219679 
0.40226393329 0.56421707518 0.72561863695 0.87851444325 1.0172219679 1.139116835 0.33975332011 0.51573716537 0.69407236469 
0.86392567495 1.0172219679 1.1502619915 1.2630228569 0.26576171152 0.45685295248 0.6552068806 0.84594095064 1.0172219679 
1.1636342747 1.2852923014 1.3852070904 0.22715816343 0.3129712797 0.49462574053 0.49462574053 0.68021497688 0.77059342779 
1.0172219679 1.0172219679 1.0172219679 1.0172219679 2.1243706857 1.5707963268 1.3676273807 1.271087727 1.2156949949 
2.6469669131 2.1243706857 1.7739652728 1.5707963268 1.447813335 1.3676273807 2.8286213739 2.4613776767 2.1243706857 
1.8705049266 1.6937793186 1.5707963268 1.4827341049 2.9144344902 2.6469669131 2.3709992258 2.1243706857 1.9258976586 
1.7739652728 1.6588585487 1.5707963268 1.7563855631 1.8563003522 1.8785697967 1.9779583789 1.9913306621 2.0024758186 
2.1243706857 2.1243706857 2.1243706857 2.1243706857 2.295651703 2.2776669786 2.2630782103 2.2510113037 2.2408671392 
2.486385773 2.4475202889 2.4159740166 2.3899057108 2.3680303173 2.3494282469 2.6847397011 2.6258554882 2.5773755784 
2.5369440334 2.5028148801 2.4736848652 2.448570738 2.8758309421 2.8018393335 2.7393287203 2.6862098746 2.6407557529 
2.6015718084 2.5675431237 2.5377803997 5.8604937156 5.901393709 5.9723133995 5.9473927383 6.0216547488 6.0927478736 
5.9992719463 6.0767621038 6.1501452836 6.2190157008 6.0578962336 6.1383094565 6.2134963469 0 0.064169606361 
6.1241815303 6.206940195 6.2831853072 0.069688960264 0.13304002361 0.19043743361 6.1990255847 0 0.07624511221 
0.14487585072 0.20642320337 0.26153055843 0.3108719077 0 0.084159722458 0.15900377685 0.22528907359 0.28391336087 
0.3357925689 0.38179159818 0.42269159155 5.8604937156 5.9723133995 5.901393709 6.0927478736 6.0216547488 5.9473927383 
6.2190157008 6.1501452836 6.0767621038 5.9992719463 0.064169606361 0 6.2134963469 6.1383094565 6.0578962336 
0.19043743361 0.13304002361 0.069688960264 6.2831853072 6.206940195 6.1241815303 0.3108719077 0.26153055843 0.20642320337 
0.14487585072 0.07624511221 6.2831853072 6.1990255847 0.42269159155 0.38179159818 0.3357925689 0.28391336087 0.22528907359 
0.15900377685 0.084159722458 0 5.6793730533 5.7091357773 5.5901633916 5.743164462 5.6152775188 5.4910209005 
5.7823484065 5.6444075337 5.5096229709 5.3824597928 5.8278025282 5.678536687 5.5314983644 5.3926039573 5.2659633393 
5.8809213739 5.718968232 5.5575666702 5.4046708639 5.2659633393 5.1440684722 5.9434319871 5.7674481418 5.5891129425 
5.4192596322 5.2659633393 5.1329233157 5.0201624502 6.0174235957 5.8263323547 5.6279784266 5.4372443565 5.2659633393 
5.1195510325 4.9978930058 4.8979782167 1.3852070904 1.2852923014 1.2630228569 1.1636342747 1.1502619915 1.139116835 
1.0172219679 1.0172219679 1.0172219679 1.0172219679 0.84594095064 0.86392567495 0.87851444325 0.89058134991 0.90072551443 
0.6552068806 0.69407236469 0.72561863695 0.75168694275 0.77356233629 0.79216440667 0.45685295248 0.51573716537 0.56421707518 
0.60464862014 0.63877777351 0.66790778838 0.69302191562 0.26576171152 0.33975332011 0.40226393329 0.45538277901 0.50083690068 
0.54002084522 0.57404952988 0.60381225391 
_paraPhiHalf 1 1002 double
0 3.1415926536 0 3.1415926536 1.5707963268 1.5707963268 1.5707963268 1.5707963268 2.5880182947 
0.5535743589 2.5880182947 0.5535743589 0 0 0 0 3.1415926536 3.1415926536 
3.1415926536 3.1415926536 3.1415926536 0.17788134 0.38438696014 0.60631181711 0.82323535693 1.0172219679 1.1799687454 
1.3118704726 1.4175000338 1.5022335207 0.17788134 0.38438696014 0.60631181711 0.82323535693 1.0172219679 1.1799687454 
1.3118704726 1.4175000338 1.5022335207 0.093902416448 0.17615329733 0.2478725152 0.31035131605 0.36486382811 0.41257334776 
0.45449736604 0.4915044461 0.52432611754 0.093902416448 0.17615329733 0.2478725152 0.31035131605 0.36486382811 0.41257334776 
0.45449736604 0.4915044461 0.52432611754 2.9637113136 2.7572056934 2.5352808365 2.3183572967 2.1243706857 1.9616239082 
1.829722181 1.7240926197 1.6393591329 2.9637113136 2.7572056934 2.5352808365 2.3183572967 2.1243706857 1.9616239082 
1.829722181 1.7240926197 1.6393591329 3.0476902371 2.9654393563 2.8937201384 2.8312413375 2.7767288255 2.7290193058 
2.6870952876 2.6500882075 2.617266536 3.0476902371 2.9654393563 2.8937201384 2.8312413375 2.7767288255 2.7290193058 
2.6870952876 2.6500882075 2.617266536 0 0 0 0 3.1415926536 3.1415926536 
3.1415926536 3.1415926536 3.1415926536 0.17788134 0.38438696014 0.60631181711 0.82323535693 1.0172219679 1.1799687454 
1.3118704726 1.4175000338 1.5022335207 0.17788134 0.38438696014 0.60631181711 0.82323535693 1.0172219679 1.1799687454 
1.3118704726 1.4175000338 1.5022335207 0.093902416448 0.17615329733 0.2478725152 0.31035131605 0.36486382811 0.41257334776 
0.45449736604 0.4915044461 0.52432611754 0.093902416448 0.17615329733 0.2478725152 0.31035131605 0.36486382811 0.41257334776 
0.45449736604 0.4915044461 0.52432611754 2.9637113136 2.7572056934 2.5352808365 2.3183572967 2.1243706857 1.9616239082 
1.829722181 1.7240926197 1.6393591329 2.9637113136 2.7572056934 2.5352808365 2.3183572967 2.1243706857 1.9616239082 
1.829722181 1.7240926197 1.6393591329 3.0476902371 2.9654393563 2.8937201384 2.8312413375 2.7767288255 2.7290193058 
2.6870952876 2.6500882075 2.617266536 3.0476902371 2.9654393563 2.8937201384 2.8312413375 2.7767288255 2.7290193058 
2.6870952876 2.6500882075 2.617266536 1.5707963268 1.5707963268 1.5707963268 1.5707963268 1.5707963268 1.5707963268 
1.5707963268 1.5707963268 1.5707963268 1.6743954455 1.7840462375 1.8974821136 2.0119052671 2.1243706857 2.232221744 
2.3334263672 2.426721652 2.5115728246 1.4671972081 1.3575464161 1.24411054 1.1296873865 1.0172219679 0.90937090954 
0.80816628637 0.71487100155 0.63001982895 1.6743954455 1.7840462375 1.8974821136 2.0119052671 2.1243706857 2.232221744 
2.3334263672 2.426721652 2.5115728246 1.4671972081 1.3575464161 1.24411054 1.1296873865 1.0172219679 0.90937090954 
0.80816628637 0.71487100155 0.63001982895 1.5707963268 1.5707963268 1.5707963268 1.5707963268 1.5707963268 1.5707963268 
1.5707963268 1.5707963268 1.5707963268 1.6743954455 1.7840462375 1.8974821136 2.0119052671 2.1243706857 2.232221744 
2.3334263672 2.426721652 2.5115728246 1.4671972081 1.3575464161 1.24411054 1.1296873865 1.0172219679 0.90937090954 
0.80816628637 0.71487100155 0.63001982895 1.6743954455 1.7840462375 1.8974821136 2.0119052671 2.1243706857 2.232221744 
2.3334263672 2.426721652 2.5115728246 1.4671972081 1.3575464161 1.24411054 1.1296873865 1.0172219679 0.90937090954 
0.80816628637 0.71487100155 0.63001982895 2.6824132222 2.7864913217 2.8992382033 3.0186096618 3.1415926536 3.0186096618 
2.8992382033 2.7864913217 2.6824132222 0.45917943135 0.35510133185 0.2423544503 0.12298299178 0 0.12298299178 
0.2423544503 0.35510133185 0.45917943135 0.22715816343 0.49462574053 0.3129712797 0.77059342779 0.68021497688 0.49462574053 
1.0172219679 1.0172219679 1.0172219679 1.0172219679 1.2156949949 1.271087727 1.3676273807 1.5707963268 2.1243706857 
1.3676273807 1.447813335 1.5707963268 1.7739652728 2.1243706857 2.6469669131 1.4827341049 1.5707963268 1.6937793186 
1.8705049266 2.1243706857 2.4613776767 2.8286213739 1.5707963268 1.6588585487 1.7739652728 1.9258976586 2.1243706857 
2.3709992258 2.6469669131 2.9144344902 0.26576171152 0.33975332011 0.45685295248 0.40226393329 0.51573716537 0.6552068806 
0.45538277901 0.56421707518 0.69407236469 0.84594095064 0.50083690068 0.60464862014 0.72561863695 0.86392567495 1.0172219679 
0.54002084522 0.63877777351 0.75168694275 0.87851444325 1.0172219679 1.1636342747 0.57404952988 0.66790778838 0.77356233629 
0.89058134991 1.0172219679 1.1502619915 1.2852923014 0.60381225391 0.69302191562 0.79216440667 0.90072551443 1.0172219679 
1.139116835 1.2630228569 1.3852070904 0.71487100155 0.80816628637 0.80816628637 0.90937090954 0.90937090954 0.90937090954 
1.0172219679 1.0172219679 1.0172219679 1.0172219679 1.1296873865 1.1296873865 1.1296873865 1.1296873865 1.1296873865 
1.24411054 1.24411054 1.24411054 1.24411054 1.24411054 1.24411054 1.3575464161 1.3575464161 1.3575464161 
1.3575464161 1.3575464161 1.3575464161 1.3575464161 1.4671972081 1.4671972081 1.4671972081 1.4671972081 1.4671972081 
1.4671972081 1.4671972081 1.4671972081 1.6743954455 1.6743954455 1.7840462375 1.6743954455 1.7840462375 1.8974821136 
1.6743954455 1.7840462375 1.8974821136 2.0119052671 1.6743954455 1.7840462375 1.8974821136 2.0119052671 2.1243706857 
1.6743954455 1.7840462375 1.8974821136 2.0119052671 2.1243706857 2.232221744 1.6743954455 1.7840462375 1.8974821136 
2.0119052671 2.1243706857 2.232221744 2.3334263672 1.6743954455 1.7840462375 1.8974821136 2.0119052671 2.1243706857 
2.232221744 2.3334263672 2.426721652 1.7563855631 1.8785697967 1.8563003522 2.0024758186 1.9913306621 1.9779583789 
2.1243706857 2.1243706857 2.1243706857 2.1243706857 2.2408671392 2.2510113037 2.2630782103 2.2776669786 2.295651703 
2.3494282469 2.3680303173 2.3899057108 2.4159740166 2.4475202889 2.486385773 2.448570738 2.4736848652 2.5028148801 
2.5369440334 2.5773755784 2.6258554882 2.6847397011 2.5377803997 2.5675431237 2.6015718084 2.6407557529 2.6862098746 
2.7393287203 2.8018393335 2.8758309421 2.718901062 2.8307207459 2.7598010554 2.95115522 2.8800620952 2.8058000847 
3.0774230472 3.00855263 2.9351694502 2.8576792927 3.0774230472 3.1415926536 3.0719036933 2.9967168029 2.91630358 
2.95115522 3.00855263 3.0719036933 3.1415926536 3.0653475414 2.9825888767 2.8307207459 2.8800620952 2.9351694502 
2.9967168029 3.0653475414 3.1415926536 3.0574329311 2.718901062 2.7598010554 2.8058000847 2.8576792927 2.91630358 
2.9825888767 3.0574329311 3.1415926536 2.718901062 2.7598010554 2.8307207459 2.8058000847 2.8800620952 2.95115522 
2.8576792927 2.9351694502 3.00855263 3.0774230472 2.91630358 2.9967168029 3.0719036933 3.1415926536 3.0774230472 
2.9825888767 3.0653475414 3.1415926536 3.0719036933 3.00855263 2.95115522 3.0574329311 3.1415926536 3.0653475414 