# vtk DataFile Version 5.1
vtk output
ASCII
DATASET POLYDATA
POINTS 1002 float
-9.69299 -0.733756 -5.07368 9.77135 2.72212 -1.83993 -10.9127 -0.843514 3.90472 
10.1817 1.65666 1.73614 -0.793495 7.1937 -2.18821 -2.17255 6.96647 1.81786 
-5.46406 -2.91978 -2.44232 -5.91233 -0.772279 0.815111 14.6703 1.73448 0.202561 
-14.8336 3.2058 0.677649 16.2276 -10.3196 1.69753 -12.2946 -8.75725 1.16993 
-8.71049 -0.549986 -5.20679 -7.79191 -0.249661 -5.03912 -6.81007 0.210875 -4.61123 
-5.36149 0.798274 -4.07382 -3.1134 1.47276 -3.51777 -0.298948 2.24986 -2.9602 
2.49618 3.00851 -2.46893 5.02604 3.42805 -2.13024 7.43051 3.3026 -1.94311 
-9.33379 0.100859 -5.13024 -8.54526 1.12938 -5.0338 -7.45685 2.184 -4.87659 
-6.45343 3.09231 -4.68958 -5.75979 3.89395 -4.38132 -5.15899 4.73348 -3.90356 
-4.3356 5.57582 -3.35533 -3.24721 6.26931 -2.85915 -2.0271 6.7821 -2.46799 
-9.25565 -1.35198 -5.01695 -8.88731 -2.00659 -4.83657 -8.56606 -2.7725 -4.62631 
-8.09162 -3.57585 -4.52251 -7.37092 -4.20619 -4.51211 -6.67546 -4.53266 -4.39211 
-6.31121 -4.55624 -4.03165 -6.18396 -4.27814 -3.51503 -5.96358 -3.70362 -2.97085 
-10.7378 -0.391164 -4.83503 -11.9685 0.0630699 -4.49521 -13.1063 0.650104 -4.1275 
-14.0022 1.3227 -3.69222 -14.7143 1.944 -3.05067 -15.2064 2.38758 -2.20371 
-15.3305 2.6601 -1.34671 -15.1705 2.8603 -0.608254 -14.9775 3.04624 0.0512562 
-10.3375 -1.24553 -4.67628 -10.8093 -1.70882 -4.01646 -11.142 -2.18027 -3.27565 
-11.4249 -2.75373 -2.59506 -11.7778 -3.47438 -1.85739 -12.2127 -4.32433 -0.974504 
-12.542 -5.307 -0.184701 -12.6046 -6.44686 0.316014 -12.4688 -7.66484 0.68807 
8.76215 3.31298 -2.03547 7.76265 3.92423 -2.21193 6.68676 4.53571 -2.28872 
5.52099 5.09184 -2.33044 4.43473 5.56632 -2.45551 3.51322 5.99632 -2.62247 
2.56705 6.40359 -2.675 1.44394 6.75052 -2.56455 0.260091 7.00734 -2.37359 
9.39093 2.60012 -1.76975 8.96935 2.42934 -1.86302 8.31264 2.1308 -2.10599 
7.15893 1.75615 -2.27658 5.38382 1.43425 -2.21455 3.05752 1.10704 -2.07571 
0.409985 0.520543 -2.08349 -2.15319 -0.447328 -2.22378 -4.18618 -1.66316 -2.36385 
11.4699 2.29789 -1.84725 13.1418 1.85218 -1.77763 14.4697 1.44722 -1.58762 
15.2319 1.05099 -1.3101 15.5045 0.688767 -0.966859 15.508 0.513906 -0.551772 
15.3517 0.610009 -0.156495 15.0804 0.898173 0.0829857 14.8115 1.28427 0.166238 
11.933 1.71422 -1.70773 14.093 0.282431 -1.59209 15.8059 -1.58272 -1.39097 
16.9275 -3.76025 -1.07039 17.6684 -5.93231 -0.79525 18.0391 -7.74065 -0.645332 
17.7915 -9.04819 -0.355526 17.0653 -9.90287 0.293123 16.4224 -10.3294 1.0982 
-10.3091 -0.270676 4.14843 -9.60112 0.176006 4.29968 -8.63983 0.71663 4.04169 
-6.64933 1.77452 3.03972 -3.0877 3.17819 1.622 1.11829 4.01432 0.786893 
4.42483 3.80524 1.01148 6.55134 3.04954 1.66911 8.30374 2.32022 1.95939 
-11.0438 0.0193667 4.26382 -10.9128 0.978426 4.39127 -10.4269 2.01081 4.1756 
-9.58502 3.04961 3.81846 -8.48143 4.02877 3.63014 -7.27592 4.89674 3.56958 
-6.10249 5.60691 3.32765 -4.94356 6.15328 2.82239 -3.66048 6.58649 2.25802 
-10.2545 -1.27342 3.62621 -9.42482 -1.7202 3.36552 -8.64305 -2.27119 3.20966 
-8.04873 -2.92672 3.05706 -7.6198 -3.4844 2.69807 -7.37799 -3.65895 2.14161 
-7.3587 -3.33981 1.63957 -7.31901 -2.63797 1.32794 -6.8772 -1.73257 1.09872 
-11.4161 -0.90156 3.84142 -11.6231 -0.767413 3.58922 -11.7584 -0.37852 3.19963 
-12.2076 0.132567 2.92413 -12.9876 0.621905 2.85703 -13.7207 1.14167 2.73625 
-14.1916 1.76296 2.34332 -14.4958 2.38341 1.77754 -14.7212 2.87068 1.20778 
-11.0001 -1.81683 3.49264 -10.8734 -2.86502 3.15897 -10.6392 -3.78045 2.99248 
-10.6784 -4.49338 2.99921 -11.2668 -5.23804 3.16471 -12.0996 -6.30248 3.36507 
-12.6052 -7.5779 3.28945 -12.6379 -8.58241 2.75009 -12.4649 -8.95859 1.93473 
9.35559 2.2792 2.0758 8.63536 3.03478 2.18612 8.04577 3.87213 2.04834 
7.41473 4.72212 1.84802 6.43471 5.51643 1.82731 4.90666 6.14842 2.01031 
2.95499 6.53163 2.17751 0.949843 6.7141 2.15349 -0.790954 6.82975 1.98564 
9.80885 1.59911 1.53543 9.37619 1.69435 1.24916 8.83224 1.92224 0.863618 
7.99955 2.19737 0.453587 6.54304 2.4526 0.123637 4.17469 2.63094 -0.0964116 
1.05646 2.54615 -0.178177 -2.10294 1.94244 -0.0314026 -4.53113 0.763481 0.350122 
11.6529 1.23885 1.58749 13.1068 0.674531 1.5079 14.3499 0.0851124 1.50459 
15.328 -0.285129 1.40181 15.9491 -0.380043 1.15018 16.0505 -0.354668 0.923699 
15.7318 -0.211504 0.793583 15.3215 0.215413 0.650578 14.9833 0.929587 0.438989 
12.0313 0.725957 1.14126 13.8878 -0.687395 0.630478 15.3094 -2.70268 0.694412 
16.1655 -5.0827 1.43442 16.6803 -7.37328 2.34326 17.0215 -9.26571 2.84986 
17.1259 -10.5995 2.8584 16.9489 -11.2024 2.57526 16.6004 -11.0342 2.16226 
-0.625997 7.55396 -1.92074 -0.410662 7.96866 -1.66818 -0.132603 8.38575 -1.47776 
0.0923029 8.64557 -1.21278 0.0526862 8.61619 -0.651297 -0.32656 8.35024 0.14606 
-0.891616 8.00261 0.838777 -1.44333 7.65244 1.25682 -1.87903 7.30347 1.53207 
1.19811 7.50174 -2.15611 3.35968 7.82935 -2.23171 5.31654 8.01503 -2.18331 
6.98678 7.80147 -1.84145 8.65102 7.13651 -1.34017 10.3949 6.30547 -0.94172 
11.9433 5.52487 -0.687654 13.1244 4.62868 -0.441489 14.0025 3.36229 -0.133087 
-2.44136 7.10919 -2.24161 -3.9824 6.9748 -2.36581 -5.6368 6.75715 -2.32205 
-7.59311 6.46733 -2.00317 -9.60742 6.10303 -1.59221 -11.3084 5.60843 -1.21039 
-12.6794 4.99223 -0.731753 -13.7977 4.36169 -0.141444 -14.5441 3.77704 0.364929 
0.528105 7.28781 1.60758 3.74238 7.6455 1.49669 6.80907 7.8002 1.35417 
9.19315 7.5184 1.05983 11.034 6.89976 0.663653 12.6097 6.24563 0.329427 
13.7121 5.56506 0.139364 14.1814 4.60005 0.0676135 14.3641 3.2648 0.0883818 
-4.26029 6.94243 1.97137 -6.13627 6.98193 2.20889 -7.89139 6.93356 2.35448 
-9.49012 6.63924 2.24299 -10.7511 6.11125 1.95584 -11.7533 5.48486 1.73331 
-12.7729 4.85731 1.62334 -13.7748 4.26365 1.45525 -14.4886 3.71529 1.12097 
-5.60786 -3.12783 -2.08443 -5.72476 -3.24834 -1.58857 -5.78304 -3.21369 -1.03281 
-5.69305 -2.98669 -0.564424 -5.45161 -2.64336 -0.211332 -5.23516 -2.30961 0.145054 
-5.2222 -1.99942 0.525099 -5.41262 -1.63595 0.790989 -5.68324 -1.20441 0.86446 
-3.60748 -1.2439 -1.90227 -0.372782 0.218118 -1.50589 3.69769 0.83038 -1.33556 
7.45527 0.255693 -1.19138 10.1008 -1.22131 -0.747137 11.8044 -3.01614 0.00258484 
13.1715 -4.81724 0.705755 14.4562 -6.65286 1.13572 15.5191 -8.54431 1.40294 
-6.22159 -4.70584 -2.80305 -6.09273 -6.32476 -2.99495 -5.87819 -7.506 -2.78757 
-6.36407 -8.23406 -2.14218 -7.49315 -8.63019 -1.31379 -8.72389 -8.7948 -0.619061 
-9.85379 -8.85619 -0.141557 -10.8983 -8.92388 0.246701 -11.7426 -8.94036 0.675261 
-3.3387 1.11423 0.110937 0.749892 2.37726 -0.55212 5.28614 2.34 -0.697159 
8.96114 0.989399 -0.237865 11.5478 -0.979555 0.304025 13.6042 -2.97766 0.582372 
15.1579 -4.96323 0.873295 15.8975 -6.98528 1.35271 16.0615 -8.85154 1.71832 
-6.80086 -3.12376 1.36179 -6.58485 -5.3584 1.61859 -6.49861 -7.046 1.71762 
-7.48929 -8.38067 2.02806 -9.00984 -9.74919 2.59449 -10.0428 -10.9203 2.94475 
-10.5929 -11.3182 2.72167 -11.1556 -10.8514 2.11739 -11.7855 -9.88711 1.53285 
15.3912 -0.591656 0.56896 16.2629 -3.36225 1.08389 17.1579 -6.27624 1.70344 
18.0036 -9.05783 2.24201 18.6872 -11.4519 2.47013 18.8659 -13.1098 2.34501 
18.3597 -13.7255 2.06804 17.5215 -13.2711 1.85831 16.7874 -12.0049 1.76168 
-14.8304 2.46003 0.493051 -14.5155 1.52189 0.331569 -14.1835 0.45663 0.406652 
-14.1243 -0.561952 0.817926 -14.1544 -1.5516 1.38829 -13.8841 -2.82487 1.79449 
-13.3937 -4.50173 1.86172 -13.008 -6.24581 1.66344 -12.7135 -7.68962 1.38596 
-8.05691 0.354613 -5.1559 -7.0441 1.3747 -5.00894 -6.906 0.696968 -4.90262 
-5.97154 2.33728 -4.81413 -5.82711 1.65743 -4.70568 -5.74612 1.14606 -4.42356 
-5.17885 3.18752 -4.47388 -4.86748 2.53558 -4.38055 -4.63315 2.03984 -4.11808 
-4.06696 1.682 -3.81815 -4.57131 4.06568 -3.90604 -4.05364 3.41777 -3.82583 
-3.55446 2.92485 -3.61837 -2.75609 2.57079 -3.37481 -1.56534 2.33318 -3.18621 
-3.74295 5.01647 -3.26997 -3.04083 4.40651 -3.17873 -2.27062 3.90469 -3.04374 
-1.30136 3.53791 -2.86451 -0.0273876 3.25668 -2.75144 1.32003 3.08001 -2.66497 
-2.53569 5.8708 -2.79515 -1.64276 5.37553 -2.73395 -0.657117 4.90633 -2.66946 
0.399132 4.53203 -2.5522 1.60413 4.20529 -2.45994 2.86448 3.90049 -2.43445 
3.99542 3.64958 -2.34242 -1.12669 6.51594 -2.52589 -0.0564584 6.15488 -2.5786 
1.04426 5.74834 -2.59698 2.0897 5.36767 -2.52073 3.1744 5.00538 -2.40588 
4.33107 4.60273 -2.35987 5.42188 4.16395 -2.32018 6.41384 3.73181 -2.16545 
-10.3793 0.59661 -4.86247 -11.5455 1.18091 -4.44907 -9.49868 1.75566 -4.72295 
-12.5704 1.76869 -3.9443 -10.5627 2.34876 -4.22133 -8.33337 2.83875 -4.53961 
-13.398 2.28897 -3.32035 -11.5365 2.77192 -3.57626 -9.37627 3.33472 -3.98552 
-7.30899 3.71731 -4.37239 -14.0801 2.72529 -2.54775 -12.3914 3.07939 -2.83113 
-10.4139 3.61805 -3.26822 -8.33532 4.16635 -3.84392 -6.51745 4.52267 -4.1441 
-14.5108 3.08277 -1.73128 -13.0865 3.42192 -2.08155 -11.3517 3.88946 -2.50052 
-9.37613 4.48117 -3.12589 -7.35521 5.00215 -3.6994 -5.69285 5.35317 -3.76803 
-14.6312 3.36887 -0.988355 -13.5055 3.8071 -1.41868 -12.0514 4.28978 -1.83525 
-10.296 4.84436 -2.35304 -8.21968 5.37852 -2.99754 -6.25168 5.80651 -3.38882 
-4.69334 6.09723 -3.25577 -14.6031 3.59818 -0.303374 -13.6976 4.13592 -0.799625 
-12.451 4.705 -1.2913 -10.9375 5.26956 -1.71615 -9.01608 5.75448 -2.21447 
-6.90656 6.14958 -2.71752 -5.09695 6.45958 -2.89439 -3.59003 6.66471 -2.70636 
-13.9746 4.3562 0.705833 -13.1273 4.98705 0.959042 -13.0228 5.04011 0.0721289 
-12.0912 5.6405 1.13894 -12.0354 5.73495 0.272327 -11.6987 5.74355 -0.584896 
-10.9782 6.29409 1.36122 -10.8796 6.40535 0.511144 -10.4891 6.44012 -0.391817 
-10.0497 6.347 -1.07013 -9.68784 6.88652 1.66868 -9.57559 7.03533 0.838054 
-9.12094 7.09112 -0.136627 -8.56789 7.0162 -0.912815 -8.07656 6.78677 -1.45104 
-8.08028 7.26778 1.8865 -8.01608 7.50651 1.17195 -7.5894 7.65318 0.176613 
-6.97425 7.65773 -0.746276 -6.42903 7.45717 -1.33365 -5.99747 7.11269 -1.78733 
-6.21134 7.36007 1.85622 -6.1106 7.68244 1.34163 -5.72225 7.95553 0.482368 
-5.13522 8.13322 -0.519291 -4.6189 8.08017 -1.2238 -4.29893 7.76563 -1.59752 
[...]
POINT_DATA 1002
FIELD FieldData 4
_paraPhi 1 1002 double
6.2831853072 3.1415926536 6.2831853072 3.1415926536 4.7123889804 4.7123889804 1.5707963268 1.5707963268 3.6951670125 
5.7296109483 2.5880182947 0.5535743589 6.2831853072 6.2831853072 6.2831853072 6.2831853072 3.1415926536 3.1415926536 
3.1415926536 3.1415926536 3.1415926536 6.1053039672 5.898798347 5.6768734901 5.4599499503 5.2659633393 5.1032165617 
4.9713148346 4.8656852733 4.7809517865 0.17788134 0.38438696014 0.60631181711 0.82323535693 1.0172219679 1.1799687454 
1.3118704726 1.4175000338 1.5022335207 6.1892828907 6.1070320098 6.035312792 5.9728339911 5.9183214791 5.8706119594 
5.8286879411 5.7916808611 5.7588591896 0.093902416448 0.17615329733 0.2478725152 0.31035131605 0.36486382811 0.41257334776 
0.45449736604 0.4915044461 0.52432611754 3.3194739936 3.5259796137 3.7479044707 3.9648280105 4.1588146215 4.321561399 
4.4534631262 4.5590926874 4.6438261743 2.9637113136 2.7572056934 2.5352808365 2.3183572967 2.1243706857 1.9616239082 
1.829722181 1.7240926197 1.6393591329 3.23549507 3.3177459509 3.3894651688 3.4519439696 3.5064564817 3.5541660013 
3.5960900196 3.6330970997 3.6659187711 3.0476902371 2.9654393563 2.8937201384 2.8312413375 2.7767288255 2.7290193058 
2.6870952876 2.6500882075 2.617266536 6.2831853072 6.2831853072 6.2831853072 6.2831853072 3.1415926536 3.1415926536 
3.1415926536 3.1415926536 3.1415926536 6.1053039672 5.898798347 5.6768734901 5.4599499503 5.2659633393 5.1032165617 
4.9713148346 4.8656852733 4.7809517865 0.17788134 0.38438696014 0.60631181711 0.82323535693 1.0172219679 1.1799687454 
1.3118704726 1.4175000338 1.5022335207 6.1892828907 6.1070320098 6.035312792 5.9728339911 5.9183214791 5.8706119594 
5.8286879411 5.7916808611 5.7588591896 0.093902416448 0.17615329733 0.2478725152 0.31035131605 0.36486382811 0.41257334776 
0.45449736604 0.4915044461 0.52432611754 3.3194739936 3.5259796137 3.7479044707 3.9648280105 4.1588146215 4.321561399 
4.4534631262 4.5590926874 4.6438261743 2.9637113136 2.7572056934 2.5352808365 2.3183572967 2.1243706857 1.9616239082 
1.829722181 1.7240926197 1.6393591329 3.23549507 3.3177459509 3.3894651688 3.4519439696 3.5064564817 3.5541660013 
3.5960900196 3.6330970997 3.6659187711 3.0476902371 2.9654393563 2.8937201384 2.8312413375 2.7767288255 2.7290193058 
2.6870952876 2.6500882075 2.617266536 4.7123889804 4.7123889804 4.7123889804 4.7123889804 4.7123889804 4.7123889804 
4.7123889804 4.7123889804 4.7123889804 4.6087898617 4.4991390697 4.3857031936 4.2712800401 4.1588146215 4.0509635631 
3.94975894 3.8564636551 3.7716124825 4.8159880991 4.9256388911 5.0390747672 5.1534979207 5.2659633393 5.3738143976 
5.4750190208 5.5683143056 5.6531654782 4.6087898617 4.4991390697 4.3857031936 4.2712800401 4.1588146215 4.0509635631 
3.94975894 3.8564636551 3.7716124825 4.8159880991 4.9256388911 5.0390747672 5.1534979207 5.2659633393 5.3738143976 
5.4750190208 5.5683143056 5.6531654782 1.5707963268 1.5707963268 1.5707963268 1.5707963268 1.5707963268 1.5707963268 
1.5707963268 1.5707963268 1.5707963268 1.6743954455 1.7840462375 1.8974821136 2.0119052671 2.1243706857 2.232221744 
2.3334263672 2.426721652 2.5115728246 1.4671972081 1.3575464161 1.24411054 1.1296873865 1.0172219679 0.90937090954 
0.80816628637 0.71487100155 0.63001982895 1.6743954455 1.7840462375 1.8974821136 2.0119052671 2.1243706857 2.232221744 
2.3334263672 2.426721652 2.5115728246 1.4671972081 1.3575464161 1.24411054 1.1296873865 1.0172219679 0.90937090954 
0.80816628637 0.71487100155 0.63001982895 3.6007720849 3.4966939854 3.3839471039 3.2645756454 3.1415926536 3.0186096618 
2.8992382033 2.7864913217 2.6824132222 5.8240058758 5.9280839753 6.0408308569 6.1602023154 6.2831853072 0.12298299178 
0.2423544503 0.35510133185 0.45917943135 6.0560271438 5.7885595667 5.9702140275 5.5125918794 5.6029703303 5.7885595667 
5.2659633393 5.2659633393 5.2659633393 5.2659633393 5.0674903122 5.0120975802 4.9155579264 4.7123889804 4.1588146215 
4.9155579264 4.8353719722 4.7123889804 4.5092200343 4.1588146215 3.6362183941 4.8004512023 4.7123889804 4.5894059886 
4.4126803806 4.1588146215 3.8218076305 3.4545639333 4.7123889804 4.6243267584 4.5092200343 4.3572876485 4.1588146215 
3.9121860814 3.6362183941 3.368750817 6.0174235957 5.9434319871 5.8263323547 5.8809213739 5.7674481418 5.6279784266 
5.8278025282 5.718968232 5.5891129425 5.4372443565 5.7823484065 5.678536687 5.5575666702 5.4192596322 5.2659633393 
5.743164462 5.6444075337 5.5314983644 5.4046708639 5.2659633393 5.1195510325 5.7091357773 5.6152775188 5.5096229709 
5.3926039573 5.2659633393 5.1329233157 4.9978930058 5.6793730533 5.5901633916 5.4910209005 5.3824597928 5.2659633393 
5.1440684722 5.0201624502 4.8979782167 5.5683143056 5.4750190208 5.4750190208 5.3738143976 5.3738143976 5.3738143976 
5.2659633393 5.2659633393 5.2659633393 5.2659633393 5.1534979207 5.1534979207 5.1534979207 5.1534979207 5.1534979207 
5.0390747672 5.0390747672 5.0390747672 5.0390747672 5.0390747672 5.0390747672 4.9256388911 4.9256388911 4.9256388911 
4.9256388911 4.9256388911 4.9256388911 4.9256388911 4.8159880991 4.8159880991 4.8159880991 4.8159880991 4.8159880991 
4.8159880991 4.8159880991 4.8159880991 4.6087898617 4.6087898617 4.4991390697 4.6087898617 4.4991390697 4.3857031936 
4.6087898617 4.4991390697 4.3857031936 4.2712800401 4.6087898617 4.4991390697 4.3857031936 4.2712800401 4.1588146215 
4.6087898617 4.4991390697 4.3857031936 4.2712800401 4.1588146215 4.0509635631 4.6087898617 4.4991390697 4.3857031936 
4.2712800401 4.1588146215 4.0509635631 3.94975894 4.6087898617 4.4991390697 4.3857031936 4.2712800401 4.1588146215 
4.0509635631 3.94975894 3.8564636551 4.526799744 4.4046155105 4.426884955 4.2807094886 4.2918546451 4.3052269283 
4.1588146215 4.1588146215 4.1588146215 4.1588146215 4.042318168 4.0321740035 4.0201070968 4.0055183285 3.9875336042 
3.9337570603 3.9151549899 3.8932795963 3.8672112905 3.8356650183 3.7967995342 3.8346145692 3.809500442 3.7803704271 
3.7462412737 3.7058097288 3.657329819 3.5984456061 3.7454049075 3.7156421835 3.6816134988 3.6424295543 3.5969754326 
3.5438565869 3.4813459737 3.4073543651 3.5642842451 3.4524645613 3.5233842518 3.3320300872 3.403123212 3.4773852225 
3.20576226 3.2746326772 3.348015857 3.4255060145 3.0774230472 3.1415926536 3.2112816139 3.2864685043 3.3668817272 
2.95115522 3.00855263 3.0719036933 3.1415926536 3.2178377658 3.3005964304 2.8307207459 2.8800620952 2.9351694502 
2.9967168029 3.0653475414 3.1415926536 3.225752376 2.718901062 2.7598010554 2.8058000847 2.8576792927 2.91630358 
2.9825888767 3.0574329311 3.1415926536 3.5642842451 3.5233842518 3.4524645613 3.4773852225 3.403123212 3.3320300872 
3.4255060145 3.348015857 3.2746326772 3.20576226 3.3668817272 3.2864685043 3.2112816139 3.1415926536 3.0774230472 
3.3005964304 3.2178377658 3.1415926536 3.0719036933 3.00855263 2.95115522 3.225752376 3.1415926536 3.0653475414 
2.9967168029 2.9351694502 2.8800620952 2.8307207459 3.1415926536 3.0574329311 2.9825888767 2.91630358 2.8576792927 
2.8058000847 2.7598010554 2.718901062 4.526799744 4.426884955 4.4046155105 4.3052269283 4.2918546451 4.2807094886 
4.1588146215 4.1588146215 4.1588146215 4.1588146215 3.9875336042 4.0055183285 4.0201070968 4.0321740035 4.042318168 
3.7967995342 3.8356650183 3.8672112905 3.8932795963 3.9151549899 3.9337570603 3.5984456061 3.657329819 3.7058097288 
3.7462412737 3.7803704271 3.809500442 3.8346145692 3.4073543651 3.4813459737 3.5438565869 3.5969754326 3.6424295543 
3.6816134988 3.7156421835 3.7454049075 4.7123889804 4.8004512023 4.6243267584 4.9155579264 4.7123889804 4.5092200343 
5.0674903122 4.8353719722 4.5894059886 4.3572876485 5.2659633393 5.0120975802 4.7123889804 4.4126803806 4.1588146215 
5.5125918794 5.2659633393 4.9155579264 4.5092200343 4.1588146215 3.9121860814 5.7885595667 5.6029703303 5.2659633393 
4.7123889804 4.1588146215 3.8218076305 3.6362183941 6.0560271438 5.9702140275 5.7885595667 5.2659633393 4.1588146215 
3.6362183941 3.4545639333 3.368750817 0.22715816343 0.49462574053 0.3129712797 0.77059342779 0.68021497688 0.49462574053 
1.0172219679 1.0172219679 1.0172219679 1.0172219679 1.2156949949 1.271087727 1.3676273807 1.5707963268 2.1243706857 
1.3676273807 1.447813335 1.5707963268 1.7739652728 2.1243706857 2.6469669131 1.4827341049 1.5707963268 1.6937793186 
1.8705049266 2.1243706857 2.4613776767 2.8286213739 1.5707963268 1.6588585487 1.7739652728 1.9258976586 2.1243706857 
2.3709992258 2.6469669131 2.9144344902 1.7563855631 1.8785697967 1.8563003522 2.0024758186 1.9913306621 1.9779583789 
2.1243706857 2.1243706857 2.1243706857 2.1243706857 2.2408671392 2.2510113037 2.2630782103 2.2776669786 2.295651703 
2.3494282469 2.3680303173 2.3899057108 2.4159740166 2.4475202889 2.486385773 2.448570738 2.4736848652 2.5028148801 
2.5369440334 2.5773755784 2.6258554882 2.6847397011 2.5377803997 2.5675431237 2.6015718084 2.6407557529 2.6862098746 
2.7393287203 2.8018393335 2.8758309421 1.6743954455 1.6743954455 1.7840462375 1.6743954455 1.7840462375 1.8974821136 
1.6743954455 1.7840462375 1.8974821136 2.0119052671 1.6743954455 1.7840462375 1.8974821136 2.0119052671 2.1243706857 
1.6743954455 1.7840462375 1.8974821136 2.0119052671 2.1243706857 2.232221744 1.6743954455 1.7840462375 1.8974821136 
2.0119052671 2.1243706857 2.232221744 2.3334263672 1.6743954455 1.7840462375 1.8974821136 2.0119052671 2.1243706857 
2.232221744 2.3334263672 2.426721652 1.4671972081 1.3575464161 1.4671972081 1.24411054 1.3575464161 1.4671972081 
1.1296873865 1.24411054 1.3575464161 1.4671972081 1.0172219679 1.1296873865 1.24411054 1.3575464161 1.4671972081 
0.90937090954 1.0172219679 1.1296873865 1.24411054 1.3575464161 1.4671972081 0.80816628637 0.90937090954 1.0172219679 
1.1296873865 1.24411054 1.3575464161 1.4671972081 0.71487100155 0.80816628637 0.90937090954 1.0172219679 1.1296873865 
1.24411054 1.3575464161 1.4671972081 0.60381225391 0.57404952988 0.69302191562 0.54002084522 0.66790778838 0.79216440667 
0.50083690068 0.63877777351 0.77356233629 0.90072551443 0.45538277901 0.60464862014 0.75168694275 0.89058134991 1.0172219679 
0.40226393329 0.56421707518 0.72561863695 0.87851444325 1.0172219679 1.139116835 0.33975332011 0.51573716537 0.69407236469 
0.86392567495 1.0172219679 1.1502619915 1.2630228569 0.26576171152 0.45685295248 0.6552068806 0.84594095064 1.0172219679 
1.1636342747 1.2852923014 1.3852070904 0.22715816343 0.3129712797 0.49462574053 0.49462574053 0.68021497688 0.77059342779 
1.0172219679 1.0172219679 1.0172219679 1.0172219679 2.1243706857 1.5707963268 1.3676273807 1.271087727 1.2156949949 
2.6469669131 2.1243706857 1.7739652728 1.5707963268 1.447813335 1.3676273807 2.8286213739 2.4613776767 2.1243706857 
1.8705049266 1.6937793186 1.5707963268 1.4827341049 2.9144344902 2.6469669131 2.3709992258 2.1243706857 1.9258976586 
1.7739652728 1.6588585487 1.5707963268 1.7563855631 1.8563003522 1.8785697967 1.9779583789 1.9913306621 2.0024758186 
2.1243706857 2.1243706857 2.1243706857 2.1243706857 2.295651703 2.2776669786 2.2630782103 2.2510113037 2.2408671392 
2.486385773 2.4475202889 2.4159740166 2.3899057108 2.3680303173 2.3494282469 2.6847397011 2.6258554882 2.5773755784 
2.5369440334 2.5028148801 2.4736848652 2.448570738 2.8758309421 2.8018393335 2.7393287203 2.6862098746 2.6407557529 
2.6015718084 2.5675431237 2.5377803997 5.8604937156 5.901393709 5.9723133995 5.9473927383 6.0216547488 6.0927478736 
5.9992719463 6.0767621038 6.1501452836 6.2190157008 6.0578962336 6.1383094565 6.2134963469 0 0.064169606361 
6.1241815303 6.206940195 6.2831853072 0.069688960264 0.13304002361 0.19043743361 6.1990255847 0 0.07624511221 
0.14487585072 0.20642320337 0.26153055843 0.3108719077 0 0.084159722458 0.15900377685 0.22528907359 0.28391336087 
0.3357925689 0.38179159818 0.42269159155 5.8604937156 5.9723133995 5.901393709 6.0927478736 6.0216547488 5.9473927383 
6.2190157008 6.1501452836 6.0767621038 5.9992719463 0.064169606361 0 6.2134963469 6.1383094565 6.0578962336 
0.19043743361 0.13304002361 0.069688960264 6.2831853072 6.206940195 6.1241815303 0.3108719077 0.26153055843 0.20642320337 
0.14487585072 0.07624511221 6.2831853072 6.1990255847 0.42269159155 0.38179159818 0.3357925689 0.28391336087 0.22528907359 
0.15900377685 0.084159722458 0 5.6793730533 5.7091357773 5.5901633916 5.743164462 5.6152775188 5.4910209005 
5.7823484065 5.6444075337 5.5096229709 5.3824597928 5.8278025282 5.678536687 5.5314983644 5.3926039573 5.2659633393 
5.8809213739 5.718968232 5.5575666702 5.4046708639 5.2659633393 5.1440684722 5.9434319871 5.7674481418 5.5891129425 
5.4192596322 5.2659633393 5.1329233157 5.0201624502 6.0174235957 5.8263323547 5.6279784266 5.4372443565 5.2659633393 
5.1195510325 4.9978930058 4.8979782167 1.3852070904 1.2852923014 1.2630228569 1.1636342747 1.1502619915 1.139116835 
1.0172219679 1.0172219679 1.0172219679 1.0172219679 0.84594095064 0.86392567495 0.87851444325 0.89058134991 0.90072551443 
0.6552068806 0.69407236469 0.72561863695 0.75168694275 0.77356233629 0.79216440667 0.45685295248 0.51573716537 0.56421707518 
0.60464862014 0.63877777351 0.66790778838 0.69302191562 0.26576171152 0.33975332011 0.40226393329 0.45538277901 0.50083690068 
0.54002084522 0.57404952988 0.60381225391 
_paraPhiHalf 1 1002 double
0 3.1415926536 0 3.1415926536 1.5707963268 1.5707963268 1.5707963268 1.5707963268 2.5880182947 
0.5535743589 2.5880182947 0.5535743589 0 0 0 0 3.1415926536 3.1415926536 
3.1415926536 3.1415926536 3.1415926536 0.17788134 0.38438696014 0.60631181711 0.82323535693 1.0172219679 1.1799687454 
1.3118704726 1.4175000338 1.5022335207 0.17788134 0.38438696014 0.60631181711 0.82323535693 1.0172219679 1.1799687454 
1.3118704726 1.4175000338 1.5022335207 0.093902416448 0.17615329733 0.2478725152 0.31035131605 0.36486382811 0.41257334776 
0.45449736604 0.4915044461 0.52432611754 0.093902416448 0.17615329733 0.2478725152 0.31035131605 0.36486382811 0.41257334776 
0.45449736604 0.4915044461 0.52432611754 2.9637113136 2.7572056934 2.5352808365 2.3183572967 2.1243706857 1.9616239082 
1.829722181 1.7240926197 1.6393591329 2.9637113136 2.7572056934 2.5352808365 2.3183572967 2.1243706857 1.9616239082 
1.829722181 1.7240926197 1.6393591329 3.0476902371 2.9654393563 2.8937201384 2.8312413375 2.7767288255 2.7290193058 
2.6870952876 2.6500882075 2.617266536 3.0476902371 2.9654393563 2.8937201384 2.8312413375 2.7767288255 2.7290193058 
2.6870952876 2.6500882075 2.617266536 0 0 0 0 3.1415926536 3.1415926536 
3.1415926536 3.1415926536 3.1415926536 0.17788134 0.38438696014 0.60631181711 0.82323535693 1.0172219679 1.1799687454 
1.3118704726 1.4175000338 1.5022335207 0.17788134 0.38438696014 0.60631181711 0.82323535693 1.0172219679 1.1799687454 
1.3118704726 1.4175000338 1.5022335207 0.093902416448 0.17615329733 0.2478725152 0.31035131605 0.36486382811 0.41257334776 
0.45449736604 0.4915044461 0.52432611754 0.093902416448 0.17615329733 0.2478725152 0.31035131605 0.36486382811 0.41257334776 
0.45449736604 0.4915044461 0.52432611754 2.9637113136 2.7572056934 2.5352808365 2.3183572967 2.1243706857 1.9616239082 
1.829722181 1.7240926197 1.6393591329 2.9637113136 2.7572056934 2.5352808365 2.3183572967 2.1243706857 1.9616239082 
1.829722181 1.7240926197 1.6393591329 3.0476902371 2.9654393563 2.8937201384 2.8312413375 2.7767288255 2.7290193058 
2.6870952876 2.6500882075 2.617266536 3.0476902371 2.9654393563 2.8937201384 2.8312413375 2.7767288255 2.7290193058 
2.6870952876 2.6500882075 2.617266536 1.5707963268 1.5707963268 1.5707963268 1.5707963268 1.5707963268 1.5707963268 
1.5707963268 1.5707963268 1.5707963268 1.6743954455 1.7840462375 1.8974821136 2.0119052671 2.1243706857 2.232221744 
2.3334263672 2.426721652 2.5115728246 1.4671972081 1.3575464161 1.24411054 1.1296873865 1.0172219679 0.90937090954 
0.80816628637 0.71487100155 0.63001982895 1.6743954455 1.7840462375 1.8974821136 2.0119052671 2.1243706857 2.232221744 
2.3334263672 2.426721652 2.5115728246 1.4671972081 1.3575464161 1.24411054 1.1296873865 1.0172219679 0.90937090954 
0.80816628637 0.71487100155 0.63001982895 1.5707963268 1.5707963268 1.5707963268 1.5707963268 1.5707963268 1.5707963268 
1.5707963268 1.5707963268 1.5707963268 1.6743954455 1.7840462375 1.8974821136 2.0119052671 2.1243706857 2.232221744 
2.3334263672 2.426721652 2.5115728246 1.4671972081 1.3575464161 1.24411054 1.1296873865 1.0172219679 0.90937090954 
0.80816628637 0.71487100155 0.63001982895 1.6743954455 1.7840462375 1.8974821136 2.0119052671 2.1243706857 2.232221744 
2.3334263672 2.426721652 2.5115728246 1.4671972081 1.3575464161 1.24411054 1.1296873865 1.0172219679 0.90937090954 
0.80816628637 0.71487100155 0.63001982895 2.6824132222 2.7864913217 2.8992382033 3.0186096618 3.1415926536 3.0186096618 
2.8992382033 2.7864913217 2.6824132222 0.45917943135 0.35510133185 0.2423544503 0.12298299178 0 0.12298299178 
0.2423544503 0.35510133185 0.45917943135 0.22715816343 0.49462574053 0.3129712797 0.77059342779 0.68021497688 0.49462574053 
1.0172219679 1.0172219679 1.0172219679 1.0172219679 1.2156949949 1.271087727 1.3676273807 1.5707963268 2.1243706857 
1.3676273807 1.447813335 1.5707963268 1.7739652728 2.1243706857 2.6469669131 1.4827341049 1.5707963268 1.6937793186 
1.8705049266 2.1243706857 2.4613776767 2.8286213739 1.5707963268 1.6588585487 1.7739652728 1.9258976586 2.1243706857 
2.3709992258 2.6469669131 2.9144344902 0.26576171152 0.33975332011 0.45685295248 0.40226393329 0.51573716537 0.6552068806 
0.45538277901 0.56421707518 0.69407236469 0.84594095064 0.50083690068 0.60464862014 0.72561863695 0.86392567495 1.0172219679 
0.54002084522 0.63877777351 0.75168694275 0.87851444325 1.0172219679 1.1636342747 0.57404952988 0.66790778838 0.77356233629 
0.89058134991 1.0172219679 1.1502619915 1.2852923014 0.60381225391 0.69302191562 0.79216440667 0.90072551443 1.0172219679 
1.139116835 1.2630228569 1.3852070904 0.71487100155 0.80816628637 0.80816628637 0.90937090954 0.90937090954 0.90937090954 
1.0172219679 1.0172219679 1.0172219679 1.0172219679 1.1296873865 1.1296873865 1.1296873865 1.1296873865 1.1296873865 
1.24411054 1.24411054 1.24411054 1.24411054 1.24411054 1.24411054 1.3575464161 1.3575464161 1.3575464161 
1.3575464161 1.3575464161 1.3575464161 1.3575464161 1.4671972081 1.4671972081 1.4671972081 1.4671972081 1.4671972081 
1.4671972081 1.4671972081 1.4671972081 1.6743954455 1.6743954455 1.7840462375 1.6743954455 1.7840462375 1.8974821136 
1.6743954455 1.7840462375 1.8974821136 2.0119052671 1.6743954455 1.7840462375 1.8974821136 2.0119052671 2.1243706857 
1.6743954455 1.7840462375 1.8974821136 2.0119052671 2.1243706857 2.232221744 1.6743954455 1.7840462375 1.8974821136 
2.0119052671 2.1243706857 2.232221744 2.3334263672 1.6743954455 1.7840462375 1.8974821136 2.0119052671 2.1243706857 
2.232221744 2.3334263672 2.426721652 1.7563855631 1.8785697967 1.8563003522 2.0024758186 1.9913306621 1.9779583789 
2.1243706857 2.1243706857 2.1243706857 2.1243706857 2.2408671392 2.2510113037 2.2630782103 2.2776669786 2.295651703 
2.3494282469 2.3680303173 2.3899057108 2.4159740166 2.4475202889 2.486385773 2.448570738 2.4736848652 2.5028148801 
2.5369440334 2.5773755784 2.6258554882 2.6847397011 2.5377803997 2.5675431237 2.6015718084 2.6407557529 2.6862098746 
2.7393287203 2.8018393335 2.8758309421 2.718901062 2.8307207459 2.7598010554 2.95115522 2.8800620952 2.8058000847 
3.0774230472 3.00855263 2.9351694502 2.8576792927 3.0774230472 3.1415926536 3.0719036933 2.9967168029 2.91630358 
2.95115522 3.00855263 3.0719036933 3.1415926536 3.0653475414 2.9825888767 2.8307207459 2.8800620952 2.9351694502 
2.9967168029 3.0653475414 3.1415926536 3.0574329311 2.718901062 2.7598010554 2.8058000847 2.8576792927 2.91630358 
2.9825888767 3.0574329311 3.1415926536 2.718901062 2.7598010554 2.8307207459 2.8058000847 2.8800620952 2.95115522 
2.8576792927 2.9351694502 3.00855263 3.0774230472 2.91630358 2.9967168029 3.0719036933 3.1415926536 3.0774230472 
2.9825888767 3.0653475414 3.1415926536 3.0719036933 3.00855263 2.95115522 3.0574329311 3.1415926536 3.0653475414 