# vtk DataFile Version 5.1
vtk output
ASCII
DATASET POLYDATA
POINTS 1002 float
-12.8185 -0.349316 -2.46286 12.302 -0.0595624 -4.65308 -11.8524 1.32315 2.9591 
11.6388 -0.808891 4.52416 1.51523 6.36451 -2.39206 0.744394 5.89088 2.2783 
1.97958 -3.372 -0.892378 2.58747 -4.83209 2.81379 19.2642 5.21218 -0.186148 
-19.4566 4.23337 -0.563688 18.4672 -6.47259 -1.43658 -20.3911 -6.9572 -0.41178 
-10.6375 0.259625 -2.05253 -8.03963 0.77616 -1.75445 -5.15485 1.14161 -1.64306 
-2.11033 1.3501 -1.75832 1.02678 1.37008 -2.16832 4.14104 1.14992 -2.90389 
6.98298 0.754413 -3.77713 9.30564 0.360859 -4.4485 11.0417 0.0899138 -4.72222 
-12.0259 0.358969 -2.2954 -11.0938 1.09925 -2.08731 -9.96959 1.86257 -1.85305 
-8.51444 2.63668 -1.69608 -6.68114 3.38976 -1.73886 -4.67991 4.07999 -1.95561 
-2.80327 4.69636 -2.18586 -1.16682 5.26994 -2.32481 0.260879 5.82912 -2.38259 
-12.2354 -0.638917 -2.32337 -11.3955 -0.89649 -2.1533 -10.2593 -1.10907 -1.97044 
-8.91453 -1.26847 -1.72967 -7.46944 -1.39443 -1.37053 -5.8857 -1.53138 -0.948733 
-4.06615 -1.73898 -0.63523 -2.04552 -2.09246 -0.549748 0.0234248 -2.64396 -0.669267 
-14.289 -0.514655 -2.79346 -15.6432 -0.526607 -3.05746 -16.825 -0.277965 -3.21087 
-17.8163 0.22708 -3.25832 -18.6518 0.900011 -3.15768 -19.3421 1.66801 -2.82775 
-19.8 2.46537 -2.30096 -19.9376 3.19477 -1.71094 -19.7867 3.78517 -1.13352 
-14.4598 -1.25346 -2.86392 -16.0125 -2.31587 -3.27444 -17.4073 -3.43599 -3.53318 
-18.6129 -4.5308 -3.54865 -19.5496 -5.62416 -3.39551 -20.1181 -6.7015 -3.11702 
-20.3585 -7.52156 -2.60217 -20.4329 -7.80277 -1.83706 -20.4455 -7.53593 -1.0343 
11.8981 0.733421 -4.62321 11.3141 1.55707 -4.6013 10.5711 2.37462 -4.60568 
9.66583 3.18553 -4.52457 8.55771 3.97401 -4.26842 7.23757 4.6772 -3.91939 
5.78844 5.25455 -3.58497 4.325 5.71938 -3.24308 2.90107 6.08785 -2.83981 
11.884 -0.772191 -4.72833 11.3219 -1.47358 -4.63002 10.6047 -2.0937 -4.29461 
9.76486 -2.60897 -3.81099 8.8236 -3.03031 -3.31602 7.72378 -3.3309 -2.82798 
6.41194 -3.47092 -2.30876 4.94927 -3.48136 -1.78652 3.45027 -3.4346 -1.30993 
13.2031 0.351437 -4.40791 14.1612 0.850138 -4.12893 15.1891 1.4317 -3.8921 
16.255 2.07197 -3.65534 17.3235 2.72358 -3.33755 18.3341 3.36827 -2.9267 
19.135 4.00654 -2.41783 19.5624 4.58059 -1.76759 19.5774 4.99593 -0.989226 
13.0902 -0.613553 -4.44124 13.7457 -1.21388 -4.01931 14.4048 -1.89024 -3.5103 
15.2624 -2.64551 -3.17424 16.2892 -3.42227 -3.12713 17.2006 -4.17292 -3.16397 
17.8262 -4.90243 -3.01565 18.237 -5.5841 -2.62453 18.4774 -6.12867 -2.07316 
-9.62414 1.34294 3.05412 -7.0684 1.33265 3.23856 -4.24371 1.18524 3.44424 
-1.31021 0.783228 3.56579 1.54072 0.197681 3.63077 4.19743 -0.30132 3.7886 
6.59544 -0.547815 4.07118 8.64988 -0.636323 4.34169 10.3153 -0.715142 4.49054 
-11.0188 1.78677 2.92362 -10.055 2.27194 2.91389 -9.03397 2.7851 2.99248 
-7.92314 3.32988 3.12219 -6.58547 3.8737 3.18584 -5.00338 4.37123 3.13733 
-3.35973 4.8118 3.01575 -1.83004 5.20693 2.83205 -0.462971 5.56384 2.57536 
-11.2153 0.862171 2.98924 -10.3415 0.358375 2.94454 -9.22527 -0.148183 2.87298 
-7.87695 -0.61878 2.90236 -6.27911 -1.09735 3.05372 -4.41412 -1.6761 3.15928 
-2.3844 -2.37409 3.10154 -0.428377 -3.14788 2.96793 1.24552 -3.9733 2.87428 
-13.4678 1.59893 2.8967 -15.0663 1.91637 2.83805 -16.5483 2.27112 2.74244 
-17.7861 2.66239 2.552 -18.7078 3.09197 2.23118 -19.3399 3.52681 1.77048 
-19.72 3.88968 1.18173 -19.8466 4.11965 0.531004 -19.7378 4.21925 -0.074475 
-13.6283 0.996013 2.94338 -15.4141 0.553046 2.89954 -17.122 -0.137873 2.76988 
-18.675 -1.19929 2.47935 -19.9345 -2.52859 1.9694 -20.7421 -3.79597 1.32275 
-21.0803 -4.79595 0.750773 -21.0662 -5.60963 0.34751 -20.811 -6.3458 0.0014973 
11.1744 -0.00110096 4.40557 10.5323 0.830868 4.20569 9.69174 1.63872 3.93482 
8.64866 2.40664 3.6189 7.42278 3.14279 3.29056 6.07635 3.84957 2.98588 
4.68485 4.50857 2.73819 3.30215 5.08343 2.55423 1.97473 5.54364 2.40948 
11.2344 -1.55348 4.59335 10.6846 -2.3198 4.62113 9.96492 -3.08066 4.57731 
9.0851 -3.80645 4.44498 8.10518 -4.45819 4.25298 7.11809 -4.97774 4.03886 
6.17328 -5.28582 3.78789 5.19159 -5.32652 3.47401 4.01839 -5.13499 3.12903 
12.5888 -0.359108 4.44739 13.5473 0.212977 4.30669 14.5039 0.891719 4.04045 
15.4839 1.60292 3.58643 16.5547 2.27217 2.97933 17.6838 2.90858 2.35853 
18.6487 3.56891 1.79583 19.2287 4.23718 1.21142 19.3977 4.81313 0.532754 
12.607 -1.36078 4.52323 13.5912 -1.89016 4.40845 14.6166 -2.3512 4.13031 
15.6666 -2.81295 3.6502 16.709 -3.3719 2.98045 17.7058 -4.01294 2.16052 
18.5133 -4.6666 1.23336 18.9115 -5.31455 0.274504 18.8395 -5.93904 -0.62956 
1.38431 6.83736 -2.07085 1.19731 7.29756 -1.63637 0.907854 7.67616 -1.0153 
0.572401 7.88877 -0.233363 0.363799 7.85539 0.514669 0.386231 7.56491 1.04021 
0.540791 7.12451 1.37367 0.667355 6.67526 1.66849 0.719594 6.27187 1.98512 
3.54468 6.73012 -2.61682 5.59539 7.04753 -2.6971 7.70882 7.2683 -2.61566 
9.9089 7.37949 -2.43676 12.0929 7.36289 -2.19641 14.077 7.17937 -1.86435 
15.7571 6.82936 -1.44142 17.1531 6.36001 -0.990258 18.3174 5.81126 -0.566484 
-0.816292 6.25731 -1.90623 -3.58655 6.14823 -1.45722 -6.56206 6.11933 -1.21645 
-9.38614 6.16674 -1.15777 -11.8303 6.1432 -1.05945 -13.8834 5.90351 -0.841073 
-15.6237 5.47711 -0.665031 -17.1188 5.0116 -0.627937 -18.399 4.6015 -0.632495 
2.64726 6.06336 2.08844 4.67001 6.32177 2.00703 6.8062 6.61039 2.02332 
8.96593 6.82123 2.01981 11.0575 6.87971 1.90982 13.0722 6.77547 1.69868 
14.9923 6.52337 1.3835 16.7181 6.1515 0.93555 18.1526 5.70222 0.384072 
-1.28955 6.00474 2.34594 -3.66603 6.11796 2.35953 -6.29548 6.19238 2.21453 
-8.93426 6.20612 1.94613 -11.3532 6.15474 1.7108 -13.4985 6.0148 1.52503 
-15.3977 5.74616 1.20237 -17.0303 5.33862 0.649857 -18.3741 4.82156 0.00309756 
2.24722 -3.84596 -0.790303 2.51016 -4.33933 -0.654661 2.66822 -4.81314 -0.46411 
2.6136 -5.26496 -0.177964 2.3551 -5.66703 0.263545 2.07058 -5.89353 0.873945 
1.96435 -5.83582 1.54935 2.08834 -5.55052 2.13192 2.34024 -5.18545 2.5441 
4.72957 -4.3644 -1.41369 7.23862 -5.57586 -1.89403 9.28849 -6.78485 -2.23893 
11.0293 -7.80636 -2.54059 12.7513 -8.57468 -2.88766 14.4043 -9.01969 -3.12761 
15.7187 -8.98716 -3.03323 16.6965 -8.41972 -2.60331 17.5753 -7.49147 -2.02032 
-0.863566 -2.88891 -0.401391 -4.08686 -2.70192 -0.163966 -7.40706 -3.01187 -0.366092 
-10.4661 -3.80145 -0.91463 -13.0043 -4.77354 -1.42162 -15.0189 -5.62759 -1.56778 
-16.6943 -6.28883 -1.37159 -18.158 -6.76687 -1.02995 -19.3998 -7.00492 -0.689105 
4.60687 -5.97681 2.92921 6.39482 -7.11712 2.94445 8.14415 -7.96978 2.69137 
9.98787 -8.45712 2.18847 11.7656 -8.72299 1.62904 13.3252 -8.82334 1.0672 
14.7953 -8.63072 0.390514 16.2643 -8.09073 -0.36823 17.5542 -7.32193 -1.01455 
-0.12031 -4.02677 2.60728 -3.55225 -3.49868 2.46458 -7.13905 -3.41943 2.25166 
-10.2046 -3.65734 1.80557 -12.6331 -3.95855 1.17588 -14.8041 -4.29804 0.611694 
-16.8465 -4.82401 0.268147 -18.5034 -5.55075 0.0771057 -19.6362 -6.31971 -0.116417 
20.3372 4.47264 -0.29709 21.2309 3.63257 -0.336732 21.7371 2.69746 -0.272821 
21.7458 1.64581 -0.200189 21.416 0.407541 -0.25338 21.0493 -1.03713 -0.445827 
20.7133 -2.55504 -0.701615 20.2097 -3.98205 -0.974605 19.4237 -5.2788 -1.23651 
-20.6376 3.52467 -0.742923 -21.796 2.52458 -0.832278 -22.8902 1.11072 -0.955868 
-23.8091 -0.712692 -1.21249 -24.3097 -2.70139 -1.46003 -24.1568 -4.48949 -1.44572 
-23.3977 -5.83719 -1.15187 -22.362 -6.67651 -0.791749 -21.3399 -7.02055 -0.536598 
-9.63865 0.936765 -1.92084 -8.48231 1.63871 -1.75159 -6.84399 1.41777 -1.66913 
-7.0717 2.35063 -1.60908 -5.44646 2.07153 -1.58052 -3.76273 1.73334 -1.65007 
-5.28034 3.04853 -1.67412 -3.7313 2.69878 -1.65608 -2.10921 2.29762 -1.77642 
-0.500519 1.85128 -1.98524 -3.21784 3.71062 -2.02726 -1.70949 3.28993 -2.07118 
-0.174568 2.80618 -2.21016 1.35008 2.29297 -2.46248 2.79882 1.75864 -2.70533 
-1.23944 4.33359 -2.47664 0.310608 3.88169 -2.69136 1.81613 3.32646 -2.8995 
3.27256 2.7257 -3.172 4.63509 2.13264 -3.42443 5.86755 1.49603 -3.5993 
0.413023 4.933 -2.7742 1.99328 4.49937 -3.15938 3.51893 3.93752 -3.47729 
4.96379 3.27683 -3.79647 6.28184 2.60007 -4.07077 7.43411 1.92341 -4.217 
8.43583 1.17921 -4.31045 1.75946 5.52162 -2.86815 3.28794 5.12346 -3.30989 
4.8078 4.60918 -3.68024 6.26428 3.96715 -4.03492 7.5779 3.23905 -4.35952 
8.69545 2.4919 -4.53988 9.63093 1.72739 -4.5862 10.4159 0.915258 -4.63511 
-13.554 0.316063 -2.5585 -14.9489 0.460622 -2.76284 -12.6501 1.18935 -2.26762 
-16.1007 0.867671 -2.90296 -14.0164 1.49009 -2.41352 -11.4709 2.08309 -1.97599 
-16.9975 1.47455 -2.96576 -15.067 2.02478 -2.53874 -12.7347 2.50848 -2.09566 
-9.89326 2.96854 -1.79489 -17.7262 2.17261 -2.83487 -15.8596 2.69018 -2.57578 
-13.7001 3.11767 -2.20345 -11.0897 3.46631 -1.89112 -7.98491 3.79409 -1.77278 
-18.2973 2.90124 -2.4273 -16.5138 3.38615 -2.36186 -14.4735 3.8087 -2.1748 
-12.0929 4.09823 -1.94757 -9.23385 4.31029 -1.77161 -6.00019 4.51163 -1.82506 
-18.6066 3.59395 -1.84356 -16.9896 4.05049 -1.86765 -15.1038 4.49017 -1.86021 
-12.9262 4.78676 -1.83078 -10.3466 4.92456 -1.72012 -7.32481 5.01153 -1.65476 
-4.12259 5.13095 -1.86148 -18.6137 4.16969 -1.22916 -17.185 4.60714 -1.24546 
-15.5013 5.07037 -1.29947 -13.5395 5.42715 -1.43583 -11.2281 5.57557 -1.5094 
-8.48787 5.58284 -1.46714 -5.42285 5.60495 -1.53559 -2.38944 5.70447 -1.88177 
-17.1702 5.20669 -0.010611 -15.6787 5.73945 0.610483 -15.7575 5.65673 -0.0219244 
-13.9158 6.16191 1.07459 -14.135 6.21476 0.509372 -14.1266 6.14963 -0.15376 
-11.8517 6.44216 1.37169 -12.2117 6.63916 0.924724 -12.3356 6.69764 0.315631 
-12.1973 6.53724 -0.407154 -9.42421 6.57275 1.64177 -9.885 6.89142 1.29454 
-10.1713 7.07576 0.795901 -10.1575 7.01683 0.0986133 -9.86786 6.68009 -0.626634 
-6.68684 6.57421 1.9118 -7.14074 6.96254 1.61895 -7.56227 7.26689 1.24606 
-7.7228 7.33896 0.643991 -7.53155 7.10404 -0.119859 -7.10481 6.64551 -0.783669 
-3.91539 6.48884 2.0557 -4.24801 6.89611 1.77324 -4.66926 7.29198 1.48755 
-4.96586 7.52219 1.02153 -4.91035 7.45192 0.297903 -4.5474 7.10871 -0.473482 
[...]
POINT_DATA 1002
FIELD FieldData 4
_paraPhi 1 1002 double
6.2831853072 3.1415926536 6.2831853072 3.1415926536 4.7123889804 4.7123889804 1.5707963268 1.5707963268 3.6951670125 
5.7296109483 2.5880182947 0.5535743589 6.2831853072 6.2831853072 6.2831853072 6.2831853072 3.1415926536 3.1415926536 
3.1415926536 3.1415926536 3.1415926536 6.1053039672 5.898798347 5.6768734901 5.4599499503 5.2659633393 5.1032165617 
4.9713148346 4.8656852733 4.7809517865 0.17788134 0.38438696014 0.60631181711 0.82323535693 1.0172219679 1.1799687454 
1.3118704726 1.4175000338 1.5022335207 6.1892828907 6.1070320098 6.035312792 5.9728339911 5.9183214791 5.8706119594 
5.8286879411 5.7916808611 5.7588591896 0.093902416448 0.17615329733 0.2478725152 0.31035131605 0.36486382811 0.41257334776 
0.45449736604 0.4915044461 0.52432611754 3.3194739936 3.5259796137 3.7479044707 3.9648280105 4.1588146215 4.321561399 
4.4534631262 4.5590926874 4.6438261743 2.9637113136 2.7572056934 2.5352808365 2.3183572967 2.1243706857 1.9616239082 
1.829722181 1.7240926197 1.6393591329 3.23549507 3.3177459509 3.3894651688 3.4519439696 3.5064564817 3.5541660013 
3.5960900196 3.6330970997 3.6659187711 3.0476902371 2.9654393563 2.8937201384 2.8312413375 2.7767288255 2.7290193058 
2.6870952876 2.6500882075 2.617266536 6.2831853072 6.2831853072 6.2831853072 6.2831853072 3.1415926536 3.1415926536 
3.1415926536 3.1415926536 3.1415926536 6.1053039672 5.898798347 5.6768734901 5.4599499503 5.2659633393 5.1032165617 
4.9713148346 4.8656852733 4.7809517865 0.17788134 0.38438696014 0.60631181711 0.82323535693 1.0172219679 1.1799687454 
1.3118704726 1.4175000338 1.5022335207 6.1892828907 6.1070320098 6.035312792 5.9728339911 5.9183214791 5.8706119594 
5.8286879411 5.7916808611 5.7588591896 0.093902416448 0.17615329733 0.2478725152 0.31035131605 0.36486382811 0.41257334776 
0.45449736604 0.4915044461 0.52432611754 3.3194739936 3.5259796137 3.7479044707 3.9648280105 4.1588146215 4.321561399 
4.4534631262 4.5590926874 4.6438261743 2.9637113136 2.7572056934 2.5352808365 2.3183572967 2.1243706857 1.9616239082 
1.829722181 1.7240926197 1.6393591329 3.23549507 3.3177459509 3.3894651688 3.4519439696 3.5064564817 3.5541660013 
3.5960900196 3.6330970997 3.6659187711 3.0476902371 2.9654393563 2.8937201384 2.8312413375 2.7767288255 2.7290193058 
2.6870952876 2.6500882075 2.617266536 4.7123889804 4.7123889804 4.7123889804 4.7123889804 4.7123889804 4.7123889804 
4.7123889804 4.7123889804 4.7123889804 4.6087898617 4.4991390697 4.3857031936 4.2712800401 4.1588146215 4.0509635631 
3.94975894 3.8564636551 3.7716124825 4.8159880991 4.9256388911 5.0390747672 5.1534979207 5.2659633393 5.3738143976 
5.4750190208 5.5683143056 5.6531654782 4.6087898617 4.4991390697 4.3857031936 4.2712800401 4.1588146215 4.0509635631 
3.94975894 3.8564636551 3.7716124825 4.8159880991 4.9256388911 5.0390747672 5.1534979207 5.2659633393 5.3738143976 
5.4750190208 5.5683143056 5.6531654782 1.5707963268 1.5707963268 1.5707963268 1.5707963268 1.5707963268 1.5707963268 
1.5707963268 1.5707963268 1.5707963268 1.6743954455 1.7840462375 1.8974821136 2.0119052671 2.1243706857 2.232221744 
2.3334263672 2.426721652 2.5115728246 1.4671972081 1.3575464161 1.24411054 1.1296873865 1.0172219679 0.90937090954 
0.80816628637 0.71487100155 0.63001982895 1.6743954455 1.7840462375 1.8974821136 2.0119052671 2.1243706857 2.232221744 
2.3334263672 2.426721652 2.5115728246 1.4671972081 1.3575464161 1.24411054 1.1296873865 1.0172219679 0.90937090954 
0.80816628637 0.71487100155 0.63001982895 3.6007720849 3.4966939854 3.3839471039 3.2645756454 3.1415926536 3.0186096618 
2.8992382033 2.7864913217 2.6824132222 5.8240058758 5.9280839753 6.0408308569 6.1602023154 6.2831853072 0.12298299178 
0.2423544503 0.35510133185 0.45917943135 6.0560271438 5.7885595667 5.9702140275 5.5125918794 5.6029703303 5.7885595667 
5.2659633393 5.2659633393 5.2659633393 5.2659633393 5.0674903122 5.0120975802 4.9155579264 4.7123889804 4.1588146215 
4.9155579264 4.8353719722 4.7123889804 4.5092200343 4.1588146215 3.6362183941 4.8004512023 4.7123889804 4.5894059886 
4.4126803806 4.1588146215 3.8218076305 3.4545639333 4.7123889804 4.6243267584 4.5092200343 4.3572876485 4.1588146215 
3.9121860814 3.6362183941 3.368750817 6.0174235957 5.9434319871 5.8263323547 5.8809213739 5.7674481418 5.6279784266 
5.8278025282 5.718968232 5.5891129425 5.4372443565 5.7823484065 5.678536687 5.5575666702 5.4192596322 5.2659633393 
5.743164462 5.6444075337 5.5314983644 5.4046708639 5.2659633393 5.1195510325 5.7091357773 5.6152775188 5.5096229709 
5.3926039573 5.2659633393 5.1329233157 4.9978930058 5.6793730533 5.5901633916 5.4910209005 5.3824597928 5.2659633393 
5.1440684722 5.0201624502 4.8979782167 5.5683143056 5.4750190208 5.4750190208 5.3738143976 5.3738143976 5.3738143976 
5.2659633393 5.2659633393 5.2659633393 5.2659633393 5.1534979207 5.1534979207 5.1534979207 5.1534979207 5.1534979207 
5.0390747672 5.0390747672 5.0390747672 5.0390747672 5.0390747672 5.0390747672 4.9256388911 4.9256388911 4.9256388911 
4.9256388911 4.9256388911 4.9256388911 4.9256388911 4.8159880991 4.8159880991 4.8159880991 4.8159880991 4.8159880991 
4.8159880991 4.8159880991 4.8159880991 4.6087898617 4.6087898617 4.4991390697 4.6087898617 4.4991390697 4.3857031936 
4.6087898617 4.4991390697 4.3857031936 4.2712800401 4.6087898617 4.4991390697 4.3857031936 4.2712800401 4.1588146215 
4.6087898617 4.4991390697 4.3857031936 4.2712800401 4.1588146215 4.0509635631 4.6087898617 4.4991390697 4.3857031936 
4.2712800401 4.1588146215 4.0509635631 3.94975894 4.6087898617 4.4991390697 4.3857031936 4.2712800401 4.1588146215 
4.0509635631 3.94975894 3.8564636551 4.526799744 4.4046155105 4.426884955 4.2807094886 4.2918546451 4.3052269283 
4.1588146215 4.1588146215 4.1588146215 4.1588146215 4.042318168 4.0321740035 4.0201070968 4.0055183285 3.9875336042 
3.9337570603 3.9151549899 3.8932795963 3.8672112905 3.8356650183 3.7967995342 3.8346145692 3.809500442 3.7803704271 
3.7462412737 3.7058097288 3.657329819 3.5984456061 3.7454049075 3.7156421835 3.6816134988 3.6424295543 3.5969754326 
3.5438565869 3.4813459737 3.4073543651 3.5642842451 3.4524645613 3.5233842518 3.3320300872 3.403123212 3.4773852225 
3.20576226 3.2746326772 3.348015857 3.4255060145 3.0774230472 3.1415926536 3.2112816139 3.2864685043 3.3668817272 
2.95115522 3.00855263 3.0719036933 3.1415926536 3.2178377658 3.3005964304 2.8307207459 2.8800620952 2.9351694502 
2.9967168029 3.0653475414 3.1415926536 3.225752376 2.718901062 2.7598010554 2.8058000847 2.8576792927 2.91630358 
2.9825888767 3.0574329311 3.1415926536 3.5642842451 3.5233842518 3.4524645613 3.4773852225 3.403123212 3.3320300872 
3.4255060145 3.348015857 3.2746326772 3.20576226 3.3668817272 3.2864685043 3.2112816139 3.1415926536 3.0774230472 
3.3005964304 3.2178377658 3.1415926536 3.0719036933 3.00855263 2.95115522 3.225752376 3.1415926536 3.0653475414 
2.9967168029 2.9351694502 2.8800620952 2.8307207459 3.1415926536 3.0574329311 2.9825888767 2.91630358 2.8576792927 
2.8058000847 2.7598010554 2.718901062 4.526799744 4.426884955 4.4046155105 4.3052269283 4.2918546451 4.2807094886 
4.1588146215 4.1588146215 4.1588146215 4.1588146215 3.9875336042 4.0055183285 4.0201070968 4.0321740035 4.042318168 
3.7967995342 3.8356650183 3.8672112905 3.8932795963 3.9151549899 3.9337570603 3.5984456061 3.657329819 3.7058097288 
3.7462412737 3.7803704271 3.809500442 3.8346145692 3.4073543651 3.4813459737 3.5438565869 3.5969754326 3.6424295543 
3.6816134988 3.7156421835 3.7454049075 4.7123889804 4.8004512023 4.6243267584 4.9155579264 4.7123889804 4.5092200343 
5.0674903122 4.8353719722 4.5894059886 4.3572876485 5.2659633393 5.0120975802 4.7123889804 4.4126803806 4.1588146215 
5.5125918794 5.2659633393 4.9155579264 4.5092200343 4.1588146215 3.9121860814 5.7885595667 5.6029703303 5.2659633393 
4.7123889804 4.1588146215 3.8218076305 3.6362183941 6.0560271438 5.9702140275 5.7885595667 5.2659633393 4.1588146215 
3.6362183941 3.4545639333 3.368750817 0.22715816343 0.49462574053 0.3129712797 0.77059342779 0.68021497688 0.49462574053 
1.0172219679 1.0172219679 1.0172219679 1.0172219679 1.2156949949 1.271087727 1.3676273807 1.5707963268 2.1243706857 
1.3676273807 1.447813335 1.5707963268 1.7739652728 2.1243706857 2.6469669131 1.4827341049 1.5707963268 1.6937793186 
1.8705049266 2.1243706857 2.4613776767 2.8286213739 1.5707963268 1.6588585487 1.7739652728 1.9258976586 2.1243706857 
2.3709992258 2.6469669131 2.9144344902 1.7563855631 1.8785697967 1.8563003522 2.0024758186 1.9913306621 1.9779583789 
2.1243706857 2.1243706857 2.1243706857 2.1243706857 2.2408671392 2.2510113037 2.2630782103 2.2776669786 2.295651703 
2.3494282469 2.3680303173 2.3899057108 2.4159740166 2.4475202889 2.486385773 2.448570738 2.4736848652 2.5028148801 
2.5369440334 2.5773755784 2.6258554882 2.6847397011 2.5377803997 2.5675431237 2.6015718084 2.6407557529 2.6862098746 
2.7393287203 2.8018393335 2.8758309421 1.6743954455 1.6743954455 1.7840462375 1.6743954455 1.7840462375 1.8974821136 
1.6743954455 1.7840462375 1.8974821136 2.0119052671 1.6743954455 1.7840462375 1.8974821136 2.0119052671 2.1243706857 
1.6743954455 1.7840462375 1.8974821136 2.0119052671 2.1243706857 2.232221744 1.6743954455 1.7840462375 1.8974821136 
2.0119052671 2.1243706857 2.232221744 2.3334263672 1.6743954455 1.7840462375 1.8974821136 2.0119052671 2.1243706857 
2.232221744 2.3334263672 2.426721652 1.4671972081 1.3575464161 1.4671972081 1.24411054 1.3575464161 1.4671972081 
1.1296873865 1.24411054 1.3575464161 1.4671972081 1.0172219679 1.1296873865 1.24411054 1.3575464161 1.4671972081 
0.90937090954 1.0172219679 1.1296873865 1.24411054 1.3575464161 1.4671972081 0.80816628637 0.90937090954 1.0172219679 
1.1296873865 1.24411054 1.3575464161 1.4671972081 0.71487100155 0.80816628637 0.90937090954 1.0172219679 1.1296873865 
1.24411054 1.3575464161 1.4671972081 0.60381225391 0.57404952988 0.69302191562 0.54002084522 0.66790778838 0.79216440667 
0.50083690068 0.63877777351 0.77356233629 0.90072551443 0.45538277901 0.60464862014 0.75168694275 0.89058134991 1.0172219679 
0.40226393329 0.56421707518 0.72561863695 0.87851444325 1.0172219679 1.139116835 0.33975332011 0.51573716537 0.69407236469 
0.86392567495 1.0172219679 1.1502619915 1.2630228569 0.26576171152 0.45685295248 0.6552068806 0.84594095064 1.0172219679 
1.1636342747 1.2852923014 1.3852070904 0.22715816343 0.3129712797 0.49462574053 0.49462574053 0.68021497688 0.77059342779 
1.0172219679 1.0172219679 1.0172219679 1.0172219679 2.1243706857 1.5707963268 1.3676273807 1.271087727 1.2156949949 
2.6469669131 2.1243706857 1.7739652728 1.5707963268 1.447813335 1.3676273807 2.8286213739 2.4613776767 2.1243706857 
1.8705049266 1.6937793186 1.5707963268 1.4827341049 2.9144344902 2.6469669131 2.3709992258 2.1243706857 1.9258976586 
1.7739652728 1.6588585487 1.5707963268 1.7563855631 1.8563003522 1.8785697967 1.9779583789 1.9913306621 2.0024758186 
2.1243706857 2.1243706857 2.1243706857 2.1243706857 2.295651703 2.2776669786 2.2630782103 2.2510113037 2.2408671392 
2.486385773 2.4475202889 2.4159740166 2.3899057108 2.3680303173 2.3494282469 2.6847397011 2.6258554882 2.5773755784 
2.5369440334 2.5028148801 2.4736848652 2.448570738 2.8758309421 2.8018393335 2.7393287203 2.6862098746 2.6407557529 
2.6015718084 2.5675431237 2.5377803997 5.8604937156 5.901393709 5.9723133995 5.9473927383 6.0216547488 6.0927478736 
5.9992719463 6.0767621038 6.1501452836 6.2190157008 6.0578962336 6.1383094565 6.2134963469 0 0.064169606361 
6.1241815303 6.206940195 6.2831853072 0.069688960264 0.13304002361 0.19043743361 6.1990255847 0 0.07624511221 
0.14487585072 0.20642320337 0.26153055843 0.3108719077 0 0.084159722458 0.15900377685 0.22528907359 0.28391336087 
0.3357925689 0.38179159818 0.42269159155 5.8604937156 5.9723133995 5.901393709 6.0927478736 6.0216547488 5.9473927383 
6.2190157008 6.1501452836 6.0767621038 5.9992719463 0.064169606361 0 6.2134963469 6.1383094565 6.0578962336 
0.19043743361 0.13304002361 0.069688960264 6.2831853072 6.206940195 6.1241815303 0.3108719077 0.26153055843 0.20642320337 
0.14487585072 0.07624511221 6.2831853072 6.1990255847 0.42269159155 0.38179159818 0.3357925689 0.28391336087 0.22528907359 
0.15900377685 0.084159722458 0 5.6793730533 5.7091357773 5.5901633916 5.743164462 5.6152775188 5.4910209005 
5.7823484065 5.6444075337 5.5096229709 5.3824597928 5.8278025282 5.678536687 5.5314983644 5.3926039573 5.2659633393 
5.8809213739 5.718968232 5.5575666702 5.4046708639 5.2659633393 5.1440684722 5.9434319871 5.7674481418 5.5891129425 
5.4192596322 5.2659633393 5.1329233157 5.0201624502 6.0174235957 5.8263323547 5.6279784266 5.4372443565 5.2659633393 
5.1195510325 4.9978930058 4.8979782167 1.3852070904 1.2852923014 1.2630228569 1.1636342747 1.1502619915 1.139116835 
1.0172219679 1.0172219679 1.0172219679 1.0172219679 0.84594095064 0.86392567495 0.87851444325 0.89058134991 0.90072551443 
0.6552068806 0.69407236469 0.72561863695 0.75168694275 0.77356233629 0.79216440667 0.45685295248 0.51573716537 0.56421707518 
0.60464862014 0.63877777351 0.66790778838 0.69302191562 0.26576171152 0.33975332011 0.40226393329 0.45538277901 0.50083690068 
0.54002084522 0.57404952988 0.60381225391 
_paraPhiHalf 1 1002 double
0 3.1415926536 0 3.1415926536 1.5707963268 1.5707963268 1.5707963268 1.5707963268 2.5880182947 
0.5535743589 2.5880182947 0.5535743589 0 0 0 0 3.1415926536 3.1415926536 
3.1415926536 3.1415926536 3.1415926536 0.17788134 0.38438696014 0.60631181711 0.82323535693 1.0172219679 1.1799687454 
1.3118704726 1.4175000338 1.5022335207 0.17788134 0.38438696014 0.60631181711 0.82323535693 1.0172219679 1.1799687454 
1.3118704726 1.4175000338 1.5022335207 0.093902416448 0.17615329733 0.2478725152 0.31035131605 0.36486382811 0.41257334776 
0.45449736604 0.4915044461 0.52432611754 0.093902416448 0.17615329733 0.2478725152 0.31035131605 0.36486382811 0.41257334776 
0.45449736604 0.4915044461 0.52432611754 2.9637113136 2.7572056934 2.5352808365 2.3183572967 2.1243706857 1.9616239082 
1.829722181 1.7240926197 1.6393591329 2.9637113136 2.7572056934 2.5352808365 2.3183572967 2.1243706857 1.9616239082 
1.829722181 1.7240926197 1.6393591329 3.0476902371 2.9654393563 2.8937201384 2.8312413375 2.7767288255 2.7290193058 
2.6870952876 2.6500882075 2.617266536 3.0476902371 2.9654393563 2.8937201384 2.8312413375 2.7767288255 2.7290193058 
2.6870952876 2.6500882075 2.617266536 0 0 0 0 3.1415926536 3.1415926536 
3.1415926536 3.1415926536 3.1415926536 0.17788134 0.38438696014 0.60631181711 0.82323535693 1.0172219679 1.1799687454 
1.3118704726 1.4175000338 1.5022335207 0.17788134 0.38438696014 0.60631181711 0.82323535693 1.0172219679 1.1799687454 
1.3118704726 1.4175000338 1.5022335207 0.093902416448 0.17615329733 0.2478725152 0.31035131605 0.36486382811 0.41257334776 
0.45449736604 0.4915044461 0.52432611754 0.093902416448 0.17615329733 0.2478725152 0.31035131605 0.36486382811 0.41257334776 
0.45449736604 0.4915044461 0.52432611754 2.9637113136 2.7572056934 2.5352808365 2.3183572967 2.1243706857 1.9616239082 
1.829722181 1.7240926197 1.6393591329 2.9637113136 2.7572056934 2.5352808365 2.3183572967 2.1243706857 1.9616239082 
1.829722181 1.7240926197 1.6393591329 3.0476902371 2.9654393563 2.8937201384 2.8312413375 2.7767288255 2.7290193058 
2.6870952876 2.6500882075 2.617266536 3.0476902371 2.9654393563 2.8937201384 2.8312413375 2.7767288255 2.7290193058 
2.6870952876 2.6500882075 2.617266536 1.5707963268 1.5707963268 1.5707963268 1.5707963268 1.5707963268 1.5707963268 
1.5707963268 1.5707963268 1.5707963268 1.6743954455 1.7840462375 1.8974821136 2.0119052671 2.1243706857 2.232221744 
2.3334263672 2.426721652 2.5115728246 1.4671972081 1.3575464161 1.24411054 1.1296873865 1.0172219679 0.90937090954 
0.80816628637 0.71487100155 0.63001982895 1.6743954455 1.7840462375 1.8974821136 2.0119052671 2.1243706857 2.232221744 
2.3334263672 2.426721652 2.5115728246 1.4671972081 1.3575464161 1.24411054 1.1296873865 1.0172219679 0.90937090954 
0.80816628637 0.71487100155 0.63001982895 1.5707963268 1.5707963268 1.5707963268 1.5707963268 1.5707963268 1.5707963268 
1.5707963268 1.5707963268 1.5707963268 1.6743954455 1.7840462375 1.8974821136 2.0119052671 2.1243706857 2.232221744 
2.3334263672 2.426721652 2.5115728246 1.4671972081 1.3575464161 1.24411054 1.1296873865 1.0172219679 0.90937090954 
0.80816628637 0.71487100155 0.63001982895 1.6743954455 1.7840462375 1.8974821136 2.0119052671 2.1243706857 2.232221744 
2.3334263672 2.426721652 2.5115728246 1.4671972081 1.3575464161 1.24411054 1.1296873865 1.0172219679 0.90937090954 
0.80816628637 0.71487100155 0.63001982895 2.6824132222 2.7864913217 2.8992382033 3.0186096618 3.1415926536 3.0186096618 
2.8992382033 2.7864913217 2.6824132222 0.45917943135 0.35510133185 0.2423544503 0.12298299178 0 0.12298299178 
0.2423544503 0.35510133185 0.45917943135 0.22715816343 0.49462574053 0.3129712797 0.77059342779 0.68021497688 0.49462574053 
1.0172219679 1.0172219679 1.0172219679 1.0172219679 1.2156949949 1.271087727 1.3676273807 1.5707963268 2.1243706857 
1.3676273807 1.447813335 1.5707963268 1.7739652728 2.1243706857 2.6469669131 1.4827341049 1.5707963268 1.6937793186 
1.8705049266 2.1243706857 2.4613776767 2.8286213739 1.5707963268 1.6588585487 1.7739652728 1.9258976586 2.1243706857 
2.3709992258 2.6469669131 2.9144344902 0.26576171152 0.33975332011 0.45685295248 0.40226393329 0.51573716537 0.6552068806 
0.45538277901 0.56421707518 0.69407236469 0.84594095064 0.50083690068 0.60464862014 0.72561863695 0.86392567495 1.0172219679 
0.54002084522 0.63877777351 0.75168694275 0.87851444325 1.0172219679 1.1636342747 0.57404952988 0.66790778838 0.77356233629 
0.89058134991 1.0172219679 1.1502619915 1.2852923014 0.60381225391 0.69302191562 0.79216440667 0.90072551443 1.0172219679 
1.139116835 1.2630228569 1.3852070904 0.71487100155 0.80816628637 0.80816628637 0.90937090954 0.90937090954 0.90937090954 
1.0172219679 1.0172219679 1.0172219679 1.0172219679 1.1296873865 1.1296873865 1.1296873865 1.1296873865 1.1296873865 
1.24411054 1.24411054 1.24411054 1.24411054 1.24411054 1.24411054 1.3575464161 1.3575464161 1.3575464161 
1.3575464161 1.3575464161 1.3575464161 1.3575464161 1.4671972081 1.4671972081 1.4671972081 1.4671972081 1.4671972081 
1.4671972081 1.4671972081 1.4671972081 1.6743954455 1.6743954455 1.7840462375 1.6743954455 1.7840462375 1.8974821136 
1.6743954455 1.7840462375 1.8974821136 2.0119052671 1.6743954455 1.7840462375 1.8974821136 2.0119052671 2.1243706857 
1.6743954455 1.7840462375 1.8974821136 2.0119052671 2.1243706857 2.232221744 1.6743954455 1.7840462375 1.8974821136 
2.0119052671 2.1243706857 2.232221744 2.3334263672 1.6743954455 1.7840462375 1.8974821136 2.0119052671 2.1243706857 
2.232221744 2.3334263672 2.426721652 1.7563855631 1.8785697967 1.8563003522 2.0024758186 1.9913306621 1.9779583789 
2.1243706857 2.1243706857 2.1243706857 2.1243706857 2.2408671392 2.2510113037 2.2630782103 2.2776669786 2.295651703 
2.3494282469 2.3680303173 2.3899057108 2.4159740166 2.4475202889 2.486385773 2.448570738 2.4736848652 2.5028148801 
2.5369440334 2.5773755784 2.6258554882 2.6847397011 2.5377803997 2.5675431237 2.6015718084 2.6407557529 2.6862098746 
2.7393287203 2.8018393335 2.8758309421 2.718901062 2.8307207459 2.7598010554 2.95115522 2.8800620952 2.8058000847 
3.0774230472 3.00855263 2.9351694502 2.8576792927 3.0774230472 3.1415926536 3.0719036933 2.9967168029 2.91630358 
2.95115522 3.00855263 3.0719036933 3.1415926536 3.0653475414 2.9825888767 2.8307207459 2.8800620952 2.9351694502 
2.9967168029 3.0653475414 3.1415926536 3.0574329311 2.718901062 2.7598010554 2.8058000847 2.8576792927 2.91630358 
2.9825888767 3.0574329311 3.1415926536 2.718901062 2.7598010554 2.8307207459 2.8058000847 2.8800620952 2.95115522 
2.8576792927 2.9351694502 3.00855263 3.0774230472 2.91630358 2.9967168029 3.0719036933 3.1415926536 3.0774230472 
2.9825888767 3.0653475414 3.1415926536 3.0719036933 3.00855263 2.95115522 3.0574329311 3.1415926536 3.0653475414 