# vtk DataFile Version 5.1
vtk output
ASCII
DATASET POLYDATA
POINTS 1002 float
-14.3813 -0.157097 -1.15746 13.5673 -1.4504 -6.05965 -12.3222 2.40649 2.48629 
12.3674 -2.04167 5.91816 2.6696 5.94991 -2.49399 2.20287 5.35309 2.50853 
5.7014 -3.59812 -0.117409 6.83738 -6.862 3.81313 21.5611 6.95103 -0.380502 
-21.7681 4.74715 -1.18436 19.5871 -4.54907 -3.00363 -24.4393 -6.05717 -1.20263 
-11.601 0.664431 -0.475406 -8.16349 1.28907 -0.112116 -4.32723 1.60698 -0.158976 
-0.484754 1.62601 -0.600573 3.09686 1.31874 -1.4936 6.36104 0.599947 -2.87574 
9.22637 -0.372634 -4.43123 11.4454 -1.17274 -5.60764 12.8473 -1.51643 -6.11177 
-13.372 0.488024 -0.877983 -12.3681 1.08418 -0.614066 -11.226 1.70185 -0.341287 
-9.54495 2.40886 -0.199334 -7.14181 3.13766 -0.417636 -4.44037 3.75325 -0.981637 
-2.0371 4.25663 -1.60112 -0.126617 4.77025 -2.05764 1.40487 5.35263 -2.33989 
-13.7252 -0.282383 -0.976584 -12.6496 -0.341441 -0.811673 -11.1059 -0.27735 -0.642498 
-9.32598 -0.114788 -0.33325 -7.5187 0.0114412 0.200265 -5.49082 -0.0307367 0.772955 
-2.94362 -0.330351 1.06298 0.0237027 -0.999617 0.932892 3.01693 -2.11414 0.481525 
-16.0646 -0.5764 -1.77267 -17.4805 -0.821446 -2.33859 -18.6843 -0.741999 -2.75255 
-19.7233 -0.320729 -3.04137 -20.6205 0.378017 -3.21119 -21.4099 1.30822 -3.13977 
-22.0347 2.368 -2.77808 -22.3212 3.36201 -2.26228 -22.1913 4.15463 -1.72591 
-16.521 -1.25743 -1.95775 -18.6141 -2.61939 -2.90343 -20.54 -4.06385 -3.66194 
-22.2068 -5.41934 -4.02545 -23.4356 -6.69905 -4.16457 -24.0708 -7.89009 -4.18827 
-24.2667 -8.62885 -3.8109 -24.347 -8.48073 -2.9136 -24.4339 -7.47147 -1.89548 
13.4661 -0.556357 -5.91708 13.0899 0.373485 -5.79598 12.5133 1.29408 -5.76416 
11.7383 2.23237 -5.62164 10.6192 3.17785 -5.17487 9.09975 4.01764 -4.56786 
7.39914 4.68003 -4.03996 5.76554 5.20382 -3.58235 4.22156 5.6281 -3.07291 
13.1305 -2.45835 -6.20762 12.4982 -3.42504 -6.01351 11.7507 -4.20595 -5.38893 
11.0678 -4.79153 -4.5782 10.5435 -5.26259 -3.86676 10.0569 -5.54988 -3.20412 
9.41291 -5.46665 -2.4214 8.5005 -4.99837 -1.56788 7.2685 -4.32032 -0.78297 
14.0698 -0.621791 -5.68825 14.6709 0.349115 -5.30458 15.5488 1.42395 -5.04434 
16.7665 2.58247 -4.82796 18.233 3.74098 -4.52289 19.7471 4.79545 -4.11417 
21.0267 5.7048 -3.5485 21.8034 6.42179 -2.69288 21.9604 6.85175 -1.56696 
13.6687 -1.77744 -5.80799 13.5721 -1.96204 -5.23293 13.7042 -2.044 -4.56997 
14.4298 -2.08815 -4.22616 15.5996 -2.16725 -4.29307 16.7813 -2.38906 -4.42329 
17.8436 -2.82955 -4.34571 18.8228 -3.42472 -4.08335 19.505 -4.02832 -3.65884 
-9.28167 2.14975 2.50697 -5.80204 1.91097 2.70799 -2.04566 1.41954 3.14552 
1.35935 0.287582 3.82883 3.85494 -1.29257 4.63516 5.737 -2.45914 5.28946 
7.68074 -2.72434 5.60103 9.69915 -2.47926 5.67798 11.3211 -2.23282 5.75612 
-11.0062 2.67047 2.25352 -9.62603 2.91869 2.17521 -8.33748 3.17224 2.40092 
-7.0922 3.47001 2.77405 -5.63749 3.79617 2.96369 -3.86712 4.10848 2.92121 
-1.98834 4.41424 2.8598 -0.273281 4.73375 2.83689 1.13578 5.05251 2.73403 
-11.6956 1.92996 2.67076 -10.7999 1.39766 2.73404 -9.51638 0.91332 2.70463 
-7.79107 0.535191 2.82501 -5.60877 0.0961769 3.23155 -2.93218 -0.684682 3.66811 
0.102751 -1.89124 3.83252 3.01694 -3.40283 3.78792 5.30688 -5.09367 3.76206 
-14.4936 2.84918 2.42434 -16.788 3.25826 2.46247 -18.9433 3.59594 2.51385 
-20.5753 3.92729 2.36594 -21.5679 4.327 1.91826 -22.1495 4.71938 1.2876 
-22.4842 4.95304 0.600927 -22.522 4.98777 -0.0922666 -22.2462 4.89353 -0.715604 
-14.9424 2.40243 2.66875 -17.6845 2.26208 2.76983 -20.3634 1.68342 2.65857 
-22.6732 0.44775 2.21942 -24.2684 -1.17386 1.37175 -25.0634 -2.54272 0.301584 
-25.3179 -3.40497 -0.518567 -25.2803 -4.12324 -0.853781 -24.984 -5.03941 -0.965117 
12.0837 -1.14125 5.57045 11.4807 -0.271085 5.21547 10.5147 0.522022 4.87806 
9.26562 1.2489 4.50434 7.91681 1.95597 4.02218 6.66119 2.70015 3.47366 
5.54978 3.49705 3.01853 4.47831 4.2681 2.75459 3.35757 4.90058 2.6214 
11.9472 -3.12977 6.12231 11.3387 -4.32687 6.30712 10.5313 -5.58212 6.43416 
9.62788 -6.80837 6.44067 8.88625 -7.91358 6.31765 8.58979 -8.78209 6.1065 
8.73169 -9.20181 5.77092 8.83886 -8.961 5.22671 8.29316 -8.08422 4.51848 
13.0567 -1.15809 5.87734 13.7675 -0.0178 5.70609 14.5809 1.29502 5.30838 
15.5619 2.54694 4.67874 16.8575 3.59828 3.8939 18.5004 4.5402 3.07594 
20.1071 5.45912 2.29696 21.1823 6.24806 1.49184 21.6049 6.7549 0.579636 
12.8949 -2.40414 6.21421 13.4429 -2.49155 6.29744 14.2703 -2.17546 5.84826 
15.4172 -1.67808 4.75809 16.7233 -1.37121 3.29905 18.048 -1.38656 1.81586 
19.2069 -1.70013 0.420845 19.8928 -2.37063 -0.875874 19.9591 -3.39145 -2.02547 
2.38947 6.47906 -2.1459 2.00129 6.96202 -1.62046 1.42808 7.32136 -0.784067 
0.81245 7.51038 0.256345 0.519356 7.47498 1.09765 0.742627 7.17224 1.48728 
1.25699 6.68546 1.64111 1.7227 6.18667 1.87432 2.01891 5.75607 2.21165 
4.71796 6.34431 -2.84717 6.71324 6.65663 -2.92979 8.90496 6.89494 -2.83183 
11.37 7.1685 -2.73442 13.8139 7.47609 -2.62453 15.918 7.61631 -2.32567 
17.664 7.4816 -1.8183 19.1675 7.22567 -1.26464 20.4749 7.03574 -0.783183 
-0.00375648 5.83137 -1.73854 -3.38862 5.73495 -1.00293 -7.02469 5.80042 -0.663648 
-10.2827 6.01644 -0.735069 -12.9418 6.16328 -0.793072 -15.171 6.05105 -0.656413 
-17.0959 5.71955 -0.631671 -18.7794 5.33655 -0.871183 -20.3264 5.01373 -1.13121 
3.70683 5.45113 2.32886 5.13383 5.65991 2.26221 6.80477 6.01549 2.3579 
8.85231 6.47264 2.49981 11.0692 6.86968 2.5329 13.3035 7.04039 2.38331 
15.6325 7.00252 2.00557 17.9865 6.92723 1.36952 20.0468 6.92093 0.531917 
0.195825 5.5359 2.53323 -2.43091 5.68598 2.43485 -5.49752 5.8218 2.14456 
-8.65633 5.98956 1.7977 -11.6542 6.17649 1.58829 -14.3711 6.27978 1.42089 
-16.7101 6.19059 0.991891 -18.6581 5.87611 0.24716 -20.3168 5.37469 -0.555838 
6.17476 -4.20503 -0.143239 6.62762 -4.88483 -0.187705 6.89384 -5.61286 -0.179759 
6.76693 -6.40409 0.0152664 6.25846 -7.17886 0.500984 5.72346 -7.6855 1.23839 
5.55763 -7.75402 2.06148 5.83882 -7.50781 2.80239 6.35198 -7.17597 3.38392 
8.89809 -5.92464 -1.1694 11.0443 -8.47284 -2.0881 12.0839 -10.5925 -2.69061 
12.8164 -11.8374 -3.21519 14.0765 -12.2514 -3.95792 15.7043 -12.0215 -4.69271 
16.9924 -11.0721 -4.90272 17.8167 -9.30315 -4.47282 18.6033 -6.96505 -3.73196 
1.81545 -1.98045 0.799437 -3.08393 -0.890504 1.25152 -8.1715 -0.764801 0.844647 
-12.5171 -1.58514 -0.300855 -15.7599 -2.84521 -1.47553 -18.1665 -4.04398 -2.04214 
-20.1146 -5.00516 -1.98661 -21.7878 -5.68837 -1.66828 -23.2283 -6.03721 -1.37129 
8.57965 -9.52232 4.33834 9.21728 -11.8643 4.69273 9.57316 -13.1247 4.38563 
10.5012 -13.1804 3.40164 11.8744 -12.5947 2.29155 13.1857 -11.7462 1.30962 
14.614 -10.4645 0.149124 16.4477 -8.64346 -1.2287 18.3005 -6.55713 -2.38098 
3.21997 -4.47827 3.23003 -2.03595 -2.56882 2.88758 -7.45927 -1.60614 2.51868 
-11.5623 -1.29567 1.69432 -14.4448 -1.06323 0.466571 -17.1847 -0.986916 -0.554832 
-19.9733 -1.57692 -0.958615 -22.1773 -2.9004 -0.943037 -23.5615 -4.53601 -0.941052 
22.8103 7.00478 -0.730115 23.7148 7.12998 -1.04704 24.0267 7.18431 -1.26095 
23.6169 6.99762 -1.42129 22.7804 6.33725 -1.61513 22.1411 4.99921 -1.84124 
21.8902 3.03017 -2.08644 21.5538 0.662471 -2.39106 20.7418 -1.91577 -2.7356 
-23.5412 4.05698 -1.36091 -25.4363 3.02593 -1.4142 -27.2436 1.43776 -1.63713 
-28.6516 -0.788062 -2.2277 -29.3874 -3.27628 -2.88418 -29.2931 -5.3218 -3.06582 
-28.3997 -6.50493 -2.65866 -27.039 -6.89186 -2.01935 -25.653 -6.68602 -1.49788 
-10.4295 1.22784 -0.303312 -9.20141 1.77071 -0.122916 -6.81299 1.77818 -0.0523805 
-7.62178 2.3573 -0.00654849 -5.25613 2.27859 -0.0179453 -2.77103 2.02698 -0.26333 
-5.33108 2.97904 -0.274236 -3.1632 2.78038 -0.293842 -0.847239 2.42651 -0.605591 
1.2827 1.93593 -1.06878 -2.54111 3.53309 -1.08787 -0.537423 3.22601 -1.19385 
1.51538 2.74685 -1.50605 3.40316 2.15407 -2.00632 4.98091 1.47137 -2.46489 
0.0123164 3.99215 -2.07997 1.98633 3.61928 -2.44767 3.85951 3.03735 -2.82739 
5.55952 2.31959 -3.32574 6.96633 1.57063 -3.76093 8.14131 0.70404 -4.06646 
1.88738 4.4641 -2.76372 3.8113 4.06129 -3.3721 5.60695 3.45312 -3.8812 
7.24611 2.64923 -4.4186 8.6207 1.79747 -4.87619 9.71893 0.934876 -5.10827 
10.656 -0.0559705 -5.29447 3.20253 5.02447 -3.03928 4.96013 4.60775 -3.67553 
6.68957 4.03959 -4.22186 8.35157 3.26688 -4.79202 9.77965 2.35589 -5.33634 
10.8776 1.43648 -5.62989 11.7355 0.509113 -5.71921 12.4169 -0.493016 -5.86994 
-15.1414 0.17579 -1.40652 -16.6507 0.100479 -1.91973 -14.2258 0.906204 -1.03995 
-17.8659 0.417161 -2.3823 -15.7432 1.06075 -1.50961 -13.0397 1.70526 -0.694186 
-18.7973 1.06735 -2.78846 -16.8323 1.65121 -2.01998 -14.4139 2.09536 -1.15073 
-11.1854 2.59416 -0.506136 -19.5493 1.89627 -2.97843 -17.5937 2.49557 -2.44811 
-15.3432 2.86748 -1.67106 -12.4669 3.11629 -0.914719 -8.71864 3.4298 -0.587119 
-20.1905 2.81048 -2.77532 -18.2274 3.36827 -2.50201 -16.0344 3.76832 -2.01195 
-13.4513 3.90676 -1.35841 -10.1732 3.96436 -0.807723 -6.15386 4.09087 -0.853571 
-20.5943 3.70648 -2.27116 -18.7316 4.17219 -2.09213 -16.63 4.59037 -1.87268 
-14.2413 4.75795 -1.56965 -11.4101 4.69758 -1.0814 -7.86137 4.61404 -0.787724 
-3.83722 4.64781 -1.16434 -20.619 4.45544 -1.69206 -18.9287 4.84275 -1.46838 
-17.0265 5.25305 -1.30356 -14.8405 5.50595 -1.29567 -12.3341 5.48612 -1.15686 
-9.27853 5.29946 -0.841949 -5.5858 5.17763 -0.856183 -1.78915 5.22435 -1.46948 
-18.768 5.63194 -0.368833 -16.9543 6.11565 0.436204 -17.1249 5.96504 -0.0689511 
-14.8281 6.42262 1.04241 -15.1848 6.45466 0.627894 -15.3406 6.35266 0.0618074 
-12.2885 6.5162 1.37693 -12.8778 6.75607 1.13151 -13.2589 6.82641 0.669355 
-13.2711 6.63237 -0.0756673 -9.2924 6.41587 1.62831 -10.0397 6.81947 1.52279 
-10.6965 7.06809 1.26217 -10.9523 7.01714 0.604327 -10.7635 6.62675 -0.214431 
-5.99011 6.22742 1.92445 -6.70308 6.69056 1.84245 -7.5487 7.07375 1.78079 
-8.09707 7.17958 1.33912 -8.0828 6.92747 0.487036 -7.65848 6.41192 -0.281839 
-2.76741 6.05322 2.15544 -3.31671 6.50295 1.98905 -4.14277 6.96021 1.99014 
-4.88118 7.21668 1.79194 -5.05607 7.1378 1.05875 -4.67163 6.78024 0.0885359 
[...]
POINT_DATA 1002
FIELD FieldData 4
_paraPhi 1 1002 double
6.2831853072 3.1415926536 6.2831853072 3.1415926536 4.7123889804 4.7123889804 1.5707963268 1.5707963268 3.6951670125 
5.7296109483 2.5880182947 0.5535743589 6.2831853072 6.2831853072 6.2831853072 6.2831853072 3.1415926536 3.1415926536 
3.1415926536 3.1415926536 3.1415926536 6.1053039672 5.898798347 5.6768734901 5.4599499503 5.2659633393 5.1032165617 
4.9713148346 4.8656852733 4.7809517865 0.17788134 0.38438696014 0.60631181711 0.82323535693 1.0172219679 1.1799687454 
1.3118704726 1.4175000338 1.5022335207 6.1892828907 6.1070320098 6.035312792 5.9728339911 5.9183214791 5.8706119594 
5.8286879411 5.7916808611 5.7588591896 0.093902416448 0.17615329733 0.2478725152 0.31035131605 0.36486382811 0.41257334776 
0.45449736604 0.4915044461 0.52432611754 3.3194739936 3.5259796137 3.7479044707 3.9648280105 4.1588146215 4.321561399 
4.4534631262 4.5590926874 4.6438261743 2.9637113136 2.7572056934 2.5352808365 2.3183572967 2.1243706857 1.9616239082 
1.829722181 1.7240926197 1.6393591329 3.23549507 3.3177459509 3.3894651688 3.4519439696 3.5064564817 3.5541660013 
3.5960900196 3.6330970997 3.6659187711 3.0476902371 2.9654393563 2.8937201384 2.8312413375 2.7767288255 2.7290193058 
2.6870952876 2.6500882075 2.617266536 6.2831853072 6.2831853072 6.2831853072 6.2831853072 3.1415926536 3.1415926536 
3.1415926536 3.1415926536 3.1415926536 6.1053039672 5.898798347 5.6768734901 5.4599499503 5.2659633393 5.1032165617 
4.9713148346 4.8656852733 4.7809517865 0.17788134 0.38438696014 0.60631181711 0.82323535693 1.0172219679 1.1799687454 
1.3118704726 1.4175000338 1.5022335207 6.1892828907 6.1070320098 6.035312792 5.9728339911 5.9183214791 5.8706119594 
5.8286879411 5.7916808611 5.7588591896 0.093902416448 0.17615329733 0.2478725152 0.31035131605 0.36486382811 0.41257334776 
0.45449736604 0.4915044461 0.52432611754 3.3194739936 3.5259796137 3.7479044707 3.9648280105 4.1588146215 4.321561399 
4.4534631262 4.5590926874 4.6438261743 2.9637113136 2.7572056934 2.5352808365 2.3183572967 2.1243706857 1.9616239082 
1.829722181 1.7240926197 1.6393591329 3.23549507 3.3177459509 3.3894651688 3.4519439696 3.5064564817 3.5541660013 
3.5960900196 3.6330970997 3.6659187711 3.0476902371 2.9654393563 2.8937201384 2.8312413375 2.7767288255 2.7290193058 
2.6870952876 2.6500882075 2.617266536 4.7123889804 4.7123889804 4.7123889804 4.7123889804 4.7123889804 4.7123889804 
4.7123889804 4.7123889804 4.7123889804 4.6087898617 4.4991390697 4.3857031936 4.2712800401 4.1588146215 4.0509635631 
3.94975894 3.8564636551 3.7716124825 4.8159880991 4.9256388911 5.0390747672 5.1534979207 5.2659633393 5.3738143976 
5.4750190208 5.5683143056 5.6531654782 4.6087898617 4.4991390697 4.3857031936 4.2712800401 4.1588146215 4.0509635631 
3.94975894 3.8564636551 3.7716124825 4.8159880991 4.9256388911 5.0390747672 5.1534979207 5.2659633393 5.3738143976 
5.4750190208 5.5683143056 5.6531654782 1.5707963268 1.5707963268 1.5707963268 1.5707963268 1.5707963268 1.5707963268 
1.5707963268 1.5707963268 1.5707963268 1.6743954455 1.7840462375 1.8974821136 2.0119052671 2.1243706857 2.232221744 
2.3334263672 2.426721652 2.5115728246 1.4671972081 1.3575464161 1.24411054 1.1296873865 1.0172219679 0.90937090954 
0.80816628637 0.71487100155 0.63001982895 1.6743954455 1.7840462375 1.8974821136 2.0119052671 2.1243706857 2.232221744 
2.3334263672 2.426721652 2.5115728246 1.4671972081 1.3575464161 1.24411054 1.1296873865 1.0172219679 0.90937090954 
0.80816628637 0.71487100155 0.63001982895 3.6007720849 3.4966939854 3.3839471039 3.2645756454 3.1415926536 3.0186096618 
2.8992382033 2.7864913217 2.6824132222 5.8240058758 5.9280839753 6.0408308569 6.1602023154 6.2831853072 0.12298299178 
0.2423544503 0.35510133185 0.45917943135 6.0560271438 5.7885595667 5.9702140275 5.5125918794 5.6029703303 5.7885595667 
5.2659633393 5.2659633393 5.2659633393 5.2659633393 5.0674903122 5.0120975802 4.9155579264 4.7123889804 4.1588146215 
4.9155579264 4.8353719722 4.7123889804 4.5092200343 4.1588146215 3.6362183941 4.8004512023 4.7123889804 4.5894059886 
4.4126803806 4.1588146215 3.8218076305 3.4545639333 4.7123889804 4.6243267584 4.5092200343 4.3572876485 4.1588146215 
3.9121860814 3.6362183941 3.368750817 6.0174235957 5.9434319871 5.8263323547 5.8809213739 5.7674481418 5.6279784266 
5.8278025282 5.718968232 5.5891129425 5.4372443565 5.7823484065 5.678536687 5.5575666702 5.4192596322 5.2659633393 
5.743164462 5.6444075337 5.5314983644 5.4046708639 5.2659633393 5.1195510325 5.7091357773 5.6152775188 5.5096229709 
5.3926039573 5.2659633393 5.1329233157 4.9978930058 5.6793730533 5.5901633916 5.4910209005 5.3824597928 5.2659633393 
5.1440684722 5.0201624502 4.8979782167 5.5683143056 5.4750190208 5.4750190208 5.3738143976 5.3738143976 5.3738143976 
5.2659633393 5.2659633393 5.2659633393 5.2659633393 5.1534979207 5.1534979207 5.1534979207 5.1534979207 5.1534979207 
5.0390747672 5.0390747672 5.0390747672 5.0390747672 5.0390747672 5.0390747672 4.9256388911 4.9256388911 4.9256388911 
4.9256388911 4.9256388911 4.9256388911 4.9256388911 4.8159880991 4.8159880991 4.8159880991 4.8159880991 4.8159880991 
4.8159880991 4.8159880991 4.8159880991 4.6087898617 4.6087898617 4.4991390697 4.6087898617 4.4991390697 4.3857031936 
4.6087898617 4.4991390697 4.3857031936 4.2712800401 4.6087898617 4.4991390697 4.3857031936 4.2712800401 4.1588146215 
4.6087898617 4.4991390697 4.3857031936 4.2712800401 4.1588146215 4.0509635631 4.6087898617 4.4991390697 4.3857031936 
4.2712800401 4.1588146215 4.0509635631 3.94975894 4.6087898617 4.4991390697 4.3857031936 4.2712800401 4.1588146215 
4.0509635631 3.94975894 3.8564636551 4.526799744 4.4046155105 4.426884955 4.2807094886 4.2918546451 4.3052269283 
4.1588146215 4.1588146215 4.1588146215 4.1588146215 4.042318168 4.0321740035 4.0201070968 4.0055183285 3.9875336042 
3.9337570603 3.9151549899 3.8932795963 3.8672112905 3.8356650183 3.7967995342 3.8346145692 3.809500442 3.7803704271 
3.7462412737 3.7058097288 3.657329819 3.5984456061 3.7454049075 3.7156421835 3.6816134988 3.6424295543 3.5969754326 
3.5438565869 3.4813459737 3.4073543651 3.5642842451 3.4524645613 3.5233842518 3.3320300872 3.403123212 3.4773852225 
3.20576226 3.2746326772 3.348015857 3.4255060145 3.0774230472 3.1415926536 3.2112816139 3.2864685043 3.3668817272 
2.95115522 3.00855263 3.0719036933 3.1415926536 3.2178377658 3.3005964304 2.8307207459 2.8800620952 2.9351694502 
2.9967168029 3.0653475414 3.1415926536 3.225752376 2.718901062 2.7598010554 2.8058000847 2.8576792927 2.91630358 
2.9825888767 3.0574329311 3.1415926536 3.5642842451 3.5233842518 3.4524645613 3.4773852225 3.403123212 3.3320300872 
3.4255060145 3.348015857 3.2746326772 3.20576226 3.3668817272 3.2864685043 3.2112816139 3.1415926536 3.0774230472 
3.3005964304 3.2178377658 3.1415926536 3.0719036933 3.00855263 2.95115522 3.225752376 3.1415926536 3.0653475414 
2.9967168029 2.9351694502 2.8800620952 2.8307207459 3.1415926536 3.0574329311 2.9825888767 2.91630358 2.8576792927 
2.8058000847 2.7598010554 2.718901062 4.526799744 4.426884955 4.4046155105 4.3052269283 4.2918546451 4.2807094886 
4.1588146215 4.1588146215 4.1588146215 4.1588146215 3.9875336042 4.0055183285 4.0201070968 4.0321740035 4.042318168 
3.7967995342 3.8356650183 3.8672112905 3.8932795963 3.9151549899 3.9337570603 3.5984456061 3.657329819 3.7058097288 
3.7462412737 3.7803704271 3.809500442 3.8346145692 3.4073543651 3.4813459737 3.5438565869 3.5969754326 3.6424295543 
3.6816134988 3.7156421835 3.7454049075 4.7123889804 4.8004512023 4.6243267584 4.9155579264 4.7123889804 4.5092200343 
5.0674903122 4.8353719722 4.5894059886 4.3572876485 5.2659633393 5.0120975802 4.7123889804 4.4126803806 4.1588146215 
5.5125918794 5.2659633393 4.9155579264 4.5092200343 4.1588146215 3.9121860814 5.7885595667 5.6029703303 5.2659633393 
4.7123889804 4.1588146215 3.8218076305 3.6362183941 6.0560271438 5.9702140275 5.7885595667 5.2659633393 4.1588146215 
3.6362183941 3.4545639333 3.368750817 0.22715816343 0.49462574053 0.3129712797 0.77059342779 0.68021497688 0.49462574053 
1.0172219679 1.0172219679 1.0172219679 1.0172219679 1.2156949949 1.271087727 1.3676273807 1.5707963268 2.1243706857 
1.3676273807 1.447813335 1.5707963268 1.7739652728 2.1243706857 2.6469669131 1.4827341049 1.5707963268 1.6937793186 
1.8705049266 2.1243706857 2.4613776767 2.8286213739 1.5707963268 1.6588585487 1.7739652728 1.9258976586 2.1243706857 
2.3709992258 2.6469669131 2.9144344902 1.7563855631 1.8785697967 1.8563003522 2.0024758186 1.9913306621 1.9779583789 
2.1243706857 2.1243706857 2.1243706857 2.1243706857 2.2408671392 2.2510113037 2.2630782103 2.2776669786 2.295651703 
2.3494282469 2.3680303173 2.3899057108 2.4159740166 2.4475202889 2.486385773 2.448570738 2.4736848652 2.5028148801 
2.5369440334 2.5773755784 2.6258554882 2.6847397011 2.5377803997 2.5675431237 2.6015718084 2.6407557529 2.6862098746 
2.7393287203 2.8018393335 2.8758309421 1.6743954455 1.6743954455 1.7840462375 1.6743954455 1.7840462375 1.8974821136 
1.6743954455 1.7840462375 1.8974821136 2.0119052671 1.6743954455 1.7840462375 1.8974821136 2.0119052671 2.1243706857 
1.6743954455 1.7840462375 1.8974821136 2.0119052671 2.1243706857 2.232221744 1.6743954455 1.7840462375 1.8974821136 
2.0119052671 2.1243706857 2.232221744 2.3334263672 1.6743954455 1.7840462375 1.8974821136 2.0119052671 2.1243706857 
2.232221744 2.3334263672 2.426721652 1.4671972081 1.3575464161 1.4671972081 1.24411054 1.3575464161 1.4671972081 
1.1296873865 1.24411054 1.3575464161 1.4671972081 1.0172219679 1.1296873865 1.24411054 1.3575464161 1.4671972081 
0.90937090954 1.0172219679 1.1296873865 1.24411054 1.3575464161 1.4671972081 0.80816628637 0.90937090954 1.0172219679 
1.1296873865 1.24411054 1.3575464161 1.4671972081 0.71487100155 0.80816628637 0.90937090954 1.0172219679 1.1296873865 
1.24411054 1.3575464161 1.4671972081 0.60381225391 0.57404952988 0.69302191562 0.54002084522 0.66790778838 0.79216440667 
0.50083690068 0.63877777351 0.77356233629 0.90072551443 0.45538277901 0.60464862014 0.75168694275 0.89058134991 1.0172219679 
0.40226393329 0.56421707518 0.72561863695 0.87851444325 1.0172219679 1.139116835 0.33975332011 0.51573716537 0.69407236469 
0.86392567495 1.0172219679 1.1502619915 1.2630228569 0.26576171152 0.45685295248 0.6552068806 0.84594095064 1.0172219679 
1.1636342747 1.2852923014 1.3852070904 0.22715816343 0.3129712797 0.49462574053 0.49462574053 0.68021497688 0.77059342779 
1.0172219679 1.0172219679 1.0172219679 1.0172219679 2.1243706857 1.5707963268 1.3676273807 1.271087727 1.2156949949 
2.6469669131 2.1243706857 1.7739652728 1.5707963268 1.447813335 1.3676273807 2.8286213739 2.4613776767 2.1243706857 
1.8705049266 1.6937793186 1.5707963268 1.4827341049 2.9144344902 2.6469669131 2.3709992258 2.1243706857 1.9258976586 
1.7739652728 1.6588585487 1.5707963268 1.7563855631 1.8563003522 1.8785697967 1.9779583789 1.9913306621 2.0024758186 
2.1243706857 2.1243706857 2.1243706857 2.1243706857 2.295651703 2.2776669786 2.2630782103 2.2510113037 2.2408671392 
2.486385773 2.4475202889 2.4159740166 2.3899057108 2.3680303173 2.3494282469 2.6847397011 2.6258554882 2.5773755784 
2.5369440334 2.5028148801 2.4736848652 2.448570738 2.8758309421 2.8018393335 2.7393287203 2.6862098746 2.6407557529 
2.6015718084 2.5675431237 2.5377803997 5.8604937156 5.901393709 5.9723133995 5.9473927383 6.0216547488 6.0927478736 
5.9992719463 6.0767621038 6.1501452836 6.2190157008 6.0578962336 6.1383094565 6.2134963469 0 0.064169606361 
6.1241815303 6.206940195 6.2831853072 0.069688960264 0.13304002361 0.19043743361 6.1990255847 0 0.07624511221 
0.14487585072 0.20642320337 0.26153055843 0.3108719077 0 0.084159722458 0.15900377685 0.22528907359 0.28391336087 
0.3357925689 0.38179159818 0.42269159155 5.8604937156 5.9723133995 5.901393709 6.0927478736 6.0216547488 5.9473927383 
6.2190157008 6.1501452836 6.0767621038 5.9992719463 0.064169606361 0 6.2134963469 6.1383094565 6.0578962336 
0.19043743361 0.13304002361 0.069688960264 6.2831853072 6.206940195 6.1241815303 0.3108719077 0.26153055843 0.20642320337 
0.14487585072 0.07624511221 6.2831853072 6.1990255847 0.42269159155 0.38179159818 0.3357925689 0.28391336087 0.22528907359 
0.15900377685 0.084159722458 0 5.6793730533 5.7091357773 5.5901633916 5.743164462 5.6152775188 5.4910209005 
5.7823484065 5.6444075337 5.5096229709 5.3824597928 5.8278025282 5.678536687 5.5314983644 5.3926039573 5.2659633393 
5.8809213739 5.718968232 5.5575666702 5.4046708639 5.2659633393 5.1440684722 5.9434319871 5.7674481418 5.5891129425 
5.4192596322 5.2659633393 5.1329233157 5.0201624502 6.0174235957 5.8263323547 5.6279784266 5.4372443565 5.2659633393 
5.1195510325 4.9978930058 4.8979782167 1.3852070904 1.2852923014 1.2630228569 1.1636342747 1.1502619915 1.139116835 
1.0172219679 1.0172219679 1.0172219679 1.0172219679 0.84594095064 0.86392567495 0.87851444325 0.89058134991 0.90072551443 
0.6552068806 0.69407236469 0.72561863695 0.75168694275 0.77356233629 0.79216440667 0.45685295248 0.51573716537 0.56421707518 
0.60464862014 0.63877777351 0.66790778838 0.69302191562 0.26576171152 0.33975332011 0.40226393329 0.45538277901 0.50083690068 
0.54002084522 0.57404952988 0.60381225391 
_paraPhiHalf 1 1002 double
0 3.1415926536 0 3.1415926536 1.5707963268 1.5707963268 1.5707963268 1.5707963268 2.5880182947 
0.5535743589 2.5880182947 0.5535743589 0 0 0 0 3.1415926536 3.1415926536 
3.1415926536 3.1415926536 3.1415926536 0.17788134 0.38438696014 0.60631181711 0.82323535693 1.0172219679 1.1799687454 
1.3118704726 1.4175000338 1.5022335207 0.17788134 0.38438696014 0.60631181711 0.82323535693 1.0172219679 1.1799687454 
1.3118704726 1.4175000338 1.5022335207 0.093902416448 0.17615329733 0.2478725152 0.31035131605 0.36486382811 0.41257334776 
0.45449736604 0.4915044461 0.52432611754 0.093902416448 0.17615329733 0.2478725152 0.31035131605 0.36486382811 0.41257334776 
0.45449736604 0.4915044461 0.52432611754 2.9637113136 2.7572056934 2.5352808365 2.3183572967 2.1243706857 1.9616239082 
1.829722181 1.7240926197 1.6393591329 2.9637113136 2.7572056934 2.5352808365 2.3183572967 2.1243706857 1.9616239082 
1.829722181 1.7240926197 1.6393591329 3.0476902371 2.9654393563 2.8937201384 2.8312413375 2.7767288255 2.7290193058 
2.6870952876 2.6500882075 2.617266536 3.0476902371 2.9654393563 2.8937201384 2.8312413375 2.7767288255 2.7290193058 
2.6870952876 2.6500882075 2.617266536 0 0 0 0 3.1415926536 3.1415926536 
3.1415926536 3.1415926536 3.1415926536 0.17788134 0.38438696014 0.60631181711 0.82323535693 1.0172219679 1.1799687454 
1.3118704726 1.4175000338 1.5022335207 0.17788134 0.38438696014 0.60631181711 0.82323535693 1.0172219679 1.1799687454 
1.3118704726 1.4175000338 1.5022335207 0.093902416448 0.17615329733 0.2478725152 0.31035131605 0.36486382811 0.41257334776 
0.45449736604 0.4915044461 0.52432611754 0.093902416448 0.17615329733 0.2478725152 0.31035131605 0.36486382811 0.41257334776 
0.45449736604 0.4915044461 0.52432611754 2.9637113136 2.7572056934 2.5352808365 2.3183572967 2.1243706857 1.9616239082 
1.829722181 1.7240926197 1.6393591329 2.9637113136 2.7572056934 2.5352808365 2.3183572967 2.1243706857 1.9616239082 
1.829722181 1.7240926197 1.6393591329 3.0476902371 2.9654393563 2.8937201384 2.8312413375 2.7767288255 2.7290193058 
2.6870952876 2.6500882075 2.617266536 3.0476902371 2.9654393563 2.8937201384 2.8312413375 2.7767288255 2.7290193058 
2.6870952876 2.6500882075 2.617266536 1.5707963268 1.5707963268 1.5707963268 1.5707963268 1.5707963268 1.5707963268 
1.5707963268 1.5707963268 1.5707963268 1.6743954455 1.7840462375 1.8974821136 2.0119052671 2.1243706857 2.232221744 
2.3334263672 2.426721652 2.5115728246 1.4671972081 1.3575464161 1.24411054 1.1296873865 1.0172219679 0.90937090954 
0.80816628637 0.71487100155 0.63001982895 1.6743954455 1.7840462375 1.8974821136 2.0119052671 2.1243706857 2.232221744 
2.3334263672 2.426721652 2.5115728246 1.4671972081 1.3575464161 1.24411054 1.1296873865 1.0172219679 0.90937090954 
0.80816628637 0.71487100155 0.63001982895 1.5707963268 1.5707963268 1.5707963268 1.5707963268 1.5707963268 1.5707963268 
1.5707963268 1.5707963268 1.5707963268 1.6743954455 1.7840462375 1.8974821136 2.0119052671 2.1243706857 2.232221744 
2.3334263672 2.426721652 2.5115728246 1.4671972081 1.3575464161 1.24411054 1.1296873865 1.0172219679 0.90937090954 
0.80816628637 0.71487100155 0.63001982895 1.6743954455 1.7840462375 1.8974821136 2.0119052671 2.1243706857 2.232221744 
2.3334263672 2.426721652 2.5115728246 1.4671972081 1.3575464161 1.24411054 1.1296873865 1.0172219679 0.90937090954 
0.80816628637 0.71487100155 0.63001982895 2.6824132222 2.7864913217 2.8992382033 3.0186096618 3.1415926536 3.0186096618 
2.8992382033 2.7864913217 2.6824132222 0.45917943135 0.35510133185 0.2423544503 0.12298299178 0 0.12298299178 
0.2423544503 0.35510133185 0.45917943135 0.22715816343 0.49462574053 0.3129712797 0.77059342779 0.68021497688 0.49462574053 
1.0172219679 1.0172219679 1.0172219679 1.0172219679 1.2156949949 1.271087727 1.3676273807 1.5707963268 2.1243706857 
1.3676273807 1.447813335 1.5707963268 1.7739652728 2.1243706857 2.6469669131 1.4827341049 1.5707963268 1.6937793186 
1.8705049266 2.1243706857 2.4613776767 2.8286213739 1.5707963268 1.6588585487 1.7739652728 1.9258976586 2.1243706857 
2.3709992258 2.6469669131 2.9144344902 0.26576171152 0.33975332011 0.45685295248 0.40226393329 0.51573716537 0.6552068806 
0.45538277901 0.56421707518 0.69407236469 0.84594095064 0.50083690068 0.60464862014 0.72561863695 0.86392567495 1.0172219679 
0.54002084522 0.63877777351 0.75168694275 0.87851444325 1.0172219679 1.1636342747 0.57404952988 0.66790778838 0.77356233629 
0.89058134991 1.0172219679 1.1502619915 1.2852923014 0.60381225391 0.69302191562 0.79216440667 0.90072551443 1.0172219679 
1.139116835 1.2630228569 1.3852070904 0.71487100155 0.80816628637 0.80816628637 0.90937090954 0.90937090954 0.90937090954 
1.0172219679 1.0172219679 1.0172219679 1.0172219679 1.1296873865 1.1296873865 1.1296873865 1.1296873865 1.1296873865 
1.24411054 1.24411054 1.24411054 1.24411054 1.24411054 1.24411054 1.3575464161 1.3575464161 1.3575464161 
1.3575464161 1.3575464161 1.3575464161 1.3575464161 1.4671972081 1.4671972081 1.4671972081 1.4671972081 1.4671972081 
1.4671972081 1.4671972081 1.4671972081 1.6743954455 1.6743954455 1.7840462375 1.6743954455 1.7840462375 1.8974821136 
1.6743954455 1.7840462375 1.8974821136 2.0119052671 1.6743954455 1.7840462375 1.8974821136 2.0119052671 2.1243706857 
1.6743954455 1.7840462375 1.8974821136 2.0119052671 2.1243706857 2.232221744 1.6743954455 1.7840462375 1.8974821136 
2.0119052671 2.1243706857 2.232221744 2.3334263672 1.6743954455 1.7840462375 1.8974821136 2.0119052671 2.1243706857 
2.232221744 2.3334263672 2.426721652 1.7563855631 1.8785697967 1.8563003522 2.0024758186 1.9913306621 1.9779583789 
2.1243706857 2.1243706857 2.1243706857 2.1243706857 2.2408671392 2.2510113037 2.2630782103 2.2776669786 2.295651703 
2.3494282469 2.3680303173 2.3899057108 2.4159740166 2.4475202889 2.486385773 2.448570738 2.4736848652 2.5028148801 
2.5369440334 2.5773755784 2.6258554882 2.6847397011 2.5377803997 2.5675431237 2.6015718084 2.6407557529 2.6862098746 
2.7393287203 2.8018393335 2.8758309421 2.718901062 2.8307207459 2.7598010554 2.95115522 2.8800620952 2.8058000847 
3.0774230472 3.00855263 2.9351694502 2.8576792927 3.0774230472 3.1415926536 3.0719036933 2.9967168029 2.91630358 
2.95115522 3.00855263 3.0719036933 3.1415926536 3.0653475414 2.9825888767 2.8307207459 2.8800620952 2.9351694502 
2.9967168029 3.0653475414 3.1415926536 3.0574329311 2.718901062 2.7598010554 2.8058000847 2.8576792927 2.91630358 
2.9825888767 3.0574329311 3.1415926536 2.718901062 2.7598010554 2.8307207459 2.8058000847 2.8800620952 2.95115522 
2.8576792927 2.9351694502 3.00855263 3.0774230472 2.91630358 2.9967168029 3.0719036933 3.1415926536 3.0774230472 
2.9825888767 3.0653475414 3.1415926536 3.0719036933 3.00855263 2.95115522 3.0574329311 3.1415926536 3.0653475414 