# vtk DataFile Version 5.1
vtk output
ASCII
DATASET POLYDATA
POINTS 1002 float
-13.5999 -0.253207 -1.81016 12.9346 -0.754982 -5.35637 -12.0873 1.86482 2.7227 
12.0031 -1.42528 5.22116 2.09242 6.15721 -2.44303 1.47363 5.62199 2.39341 
3.84049 -3.48506 -0.504893 4.71243 -5.84705 3.31346 20.4126 6.08161 -0.283325 
-20.6123 4.49026 -0.874022 19.0271 -5.51083 -2.2201 -22.4152 -6.50718 -0.807207 
-11.1193 0.462028 -1.26397 -8.10156 1.03261 -0.933283 -4.74104 1.37429 -0.901019 
-1.29754 1.48805 -1.17945 2.06182 1.34441 -1.83096 5.25104 0.874933 -2.88982 
8.10468 0.190889 -4.10418 10.3755 -0.40594 -5.02807 11.9445 -0.713258 -5.41699 
-12.6989 0.423497 -1.58669 -11.7309 1.09171 -1.35069 -10.5978 1.78221 -1.09717 
-9.02969 2.52277 -0.947709 -6.91147 3.26371 -1.07825 -4.56014 3.91662 -1.46862 
-2.42019 4.4765 -1.89349 -0.646716 5.02009 -2.19123 0.832875 5.59087 -2.36124 
-12.9803 -0.46065 -1.64998 -12.0225 -0.618965 -1.48249 -10.6826 -0.693209 -1.30647 
-9.12025 -0.691631 -1.03146 -7.49407 -0.691497 -0.58513 -5.68826 -0.781058 -0.0878891 
-3.50488 -1.03467 0.213874 -1.01091 -1.54604 0.191572 1.52018 -2.37905 -0.0938713 
-15.1768 -0.545528 -2.28307 -16.5618 -0.674026 -2.69803 -17.7546 -0.509982 -2.98171 
-18.7698 -0.0468247 -3.14984 -19.6361 0.639014 -3.18443 -20.376 1.48811 -2.98376 
-20.9174 2.41669 -2.53952 -21.1294 3.27839 -1.98661 -20.989 3.9699 -1.42972 
-15.4904 -1.25544 -2.41083 -17.3133 -2.46763 -3.08893 -18.9737 -3.74992 -3.59756 
-20.4099 -4.97507 -3.78705 -21.4926 -6.16161 -3.78004 -22.0945 -7.2958 -3.65265 
-22.3126 -8.0752 -3.20654 -22.3899 -8.14175 -2.37533 -22.4397 -7.5037 -1.46489 
12.6821 0.0885319 -5.27015 12.202 0.965276 -5.19864 11.5422 1.83435 -5.18492 
10.702 2.70895 -5.07311 9.58846 3.57593 -4.72165 8.16866 4.34742 -4.24362 
6.59379 4.96729 -3.81247 5.04527 5.4616 -3.41271 3.56131 5.85797 -2.95636 
12.5072 -1.61527 -5.46798 11.9101 -2.44931 -5.32176 11.1777 -3.14983 -4.84177 
10.4163 -3.70025 -4.1946 9.68354 -4.14645 -3.59139 8.89034 -4.44039 -3.01605 
7.91242 -4.46878 -2.36508 6.72489 -4.23986 -1.6772 5.35939 -3.87746 -1.04645 
13.6365 -0.135177 -5.04808 14.4161 0.599627 -4.71676 15.369 1.42782 -4.46822 
16.5107 2.32722 -4.24165 17.7783 3.23228 -3.93022 19.0406 4.08186 -3.52043 
20.0809 4.85567 -2.98316 20.6829 5.50119 -2.23023 20.7689 5.92384 -1.27809 
13.3795 -1.19549 -5.12462 13.6589 -1.58796 -4.62612 14.0545 -1.96712 -4.04013 
14.8461 -2.36683 -3.7002 15.9444 -2.79476 -3.7101 16.9909 -3.28099 -3.79363 
17.8349 -3.86599 -3.68068 18.5299 -4.50441 -3.35394 18.9912 -5.07849 -2.866 
-9.4529 1.74634 2.78054 -6.43522 1.62181 2.97327 -3.14468 1.30239 3.29488 
0.0245723 0.535405 3.69731 2.69783 -0.547446 4.13297 4.96721 -1.38023 4.53903 
7.13809 -1.63608 4.83611 9.17451 -1.55779 5.00984 10.8182 -1.47398 5.12333 
-11.0125 2.22862 2.58857 -9.8405 2.59531 2.54455 -8.68572 2.97867 2.6967 
-7.50767 3.39995 2.94812 -6.11148 3.83493 3.07477 -4.43525 4.23985 3.02927 
-2.67403 4.61302 2.93777 -1.05166 4.97034 2.83447 0.336406 5.30818 2.65469 
-11.4554 1.39607 2.83 -10.5707 0.878019 2.83929 -9.37083 0.382568 2.7888 
-7.83401 -0.0417943 2.86368 -5.94394 -0.500586 3.14263 -3.67315 -1.18039 3.41369 
-1.14082 -2.13266 3.46703 1.29428 -3.27535 3.37792 3.2762 -4.53348 3.31817 
-13.9807 2.22405 2.66052 -15.9271 2.58732 2.65026 -17.7458 2.93353 2.62815 
-19.1807 3.29484 2.45897 -20.1378 3.70949 2.07472 -20.7447 4.1231 1.52904 
-21.1021 4.42136 0.891326 -21.1843 4.55371 0.219369 -20.992 4.55639 -0.39504 
-14.2853 1.69922 2.80606 -16.5493 1.40756 2.83468 -18.7427 0.772771 2.71422 
-20.6741 -0.375772 2.34939 -22.1015 -1.85122 1.67058 -22.9027 -3.16935 0.812165 
-23.1991 -4.10046 0.116103 -23.1733 -4.86643 -0.253135 -22.8975 -5.69261 -0.48181 
11.629 -0.571177 4.98801 11.0065 0.279891 4.71058 10.1032 1.08037 4.40644 
8.95714 1.82777 4.06162 7.6698 2.54938 3.65637 6.36877 3.27486 3.22977 
5.11731 4.00281 2.87836 3.89023 4.67577 2.65441 2.66615 5.22211 2.51544 
11.5908 -2.34162 5.35783 11.0116 -3.32334 5.46413 10.2481 -4.33139 5.50574 
9.35649 -5.30741 5.44282 8.49571 -6.18588 5.28531 7.85394 -6.87991 5.07268 
7.45248 -7.24382 4.77941 7.01523 -7.14376 4.35036 6.15578 -6.6096 3.82376 
12.8228 -0.758598 5.16236 13.6574 0.0975886 5.00639 14.5424 1.09337 4.67441 
15.5229 2.07493 4.13258 16.7061 2.93523 3.43661 18.0921 3.72439 2.71724 
19.3779 4.51402 2.0464 20.2055 5.24262 1.35163 20.5013 5.78401 0.556195 
12.751 -1.88246 5.36872 13.5171 -2.19086 5.35294 14.4435 -2.26333 4.98928 
15.5419 -2.24551 4.20414 16.7162 -2.37156 3.13975 17.8769 -2.69975 1.98819 
18.8601 -3.18337 0.827104 19.4021 -3.84259 -0.300685 19.3993 -4.66524 -1.32751 
1.88689 6.65821 -2.10838 1.5993 7.12979 -1.62842 1.16797 7.49876 -0.899682 
0.692426 7.69957 0.0114913 0.441577 7.66519 0.80616 0.564429 7.36858 1.26374 
0.898892 6.90499 1.50739 1.19503 6.43097 1.7714 1.36925 6.01397 2.09839 
4.13132 6.53721 -2.73199 6.15431 6.85208 -2.81345 8.30689 7.08162 -2.72374 
10.6394 7.274 -2.58559 12.9534 7.41949 -2.41047 14.9975 7.39784 -2.09501 
16.7105 7.15548 -1.62986 18.1603 6.79284 -1.12745 19.3961 6.4235 -0.674833 
-0.410024 6.04434 -1.82239 -3.48758 5.94159 -1.23008 -6.79337 5.95988 -0.940048 
-9.8344 6.09159 -0.94642 -12.3861 6.15324 -0.926261 -14.5272 5.97728 -0.748743 
-16.3598 5.59833 -0.648351 -17.9491 5.17407 -0.74956 -19.3627 4.80762 -0.881851 
3.17704 5.75725 2.20865 4.90192 5.99084 2.13462 6.80549 6.31294 2.19061 
8.90912 6.64693 2.25981 11.0633 6.87469 2.22136 13.1878 6.90793 2.04099 
15.3124 6.76294 1.69454 17.3523 6.53937 1.15253 19.0997 6.31157 0.457995 
-0.546861 5.77032 2.43958 -3.04847 5.90197 2.39719 -5.8965 6.00709 2.17955 
-8.7953 6.09784 1.87192 -11.5037 6.16562 1.64954 -13.9348 6.14729 1.47296 
-16.0539 5.96838 1.09713 -17.8442 5.60737 0.448508 -19.3454 5.09812 -0.27637 
4.21099 -4.02549 -0.466771 4.56889 -4.61208 -0.421183 4.78103 -5.213 -0.321934 
4.69027 -5.83453 -0.0813487 4.30678 -6.42295 0.382264 3.89702 -6.78952 1.05617 
3.76099 -6.79492 1.80542 3.96358 -6.52917 2.46715 4.34611 -6.18071 2.96401 
6.81383 -5.14452 -1.29155 9.14147 -7.02435 -1.99107 10.6862 -8.68866 -2.46477 
11.9228 -9.82187 -2.87789 13.4139 -10.413 -3.42279 15.0543 -10.5206 -3.91016 
16.3555 -10.0296 -3.96797 17.2566 -8.86144 -3.53806 18.0893 -7.22826 -2.87614 
0.475941 -2.43468 0.199023 -3.58539 -1.79621 0.543779 -7.78928 -1.88833 0.239277 
-11.4916 -2.6933 -0.607743 -14.3821 -3.80938 -1.44857 -16.5927 -4.83578 -1.80496 
-18.4045 -5.647 -1.6791 -19.9729 -6.22762 -1.34912 -21.3141 -6.52106 -1.0302 
6.59326 -7.74956 3.63377 7.80605 -9.49072 3.81859 8.85865 -10.5472 3.5385 
10.2446 -10.8188 2.79506 11.82 -10.6589 1.9603 13.2555 -10.2848 1.18841 
14.7047 -9.54759 0.269819 16.356 -8.3671 -0.798465 17.9274 -6.93953 -1.69776 
1.54983 -4.25252 2.91866 -2.7941 -3.03375 2.67608 -7.29916 -2.51278 2.38517 
-10.8834 -2.4765 1.74994 -13.539 -2.51089 0.821225 -15.9944 -2.64248 0.0284311 
-18.4099 -3.20047 -0.345234 -20.3404 -4.22558 -0.432966 -21.5989 -5.42786 -0.528734 
21.5738 5.73871 -0.513603 22.4729 5.38127 -0.691889 22.8819 4.94088 -0.766885 
22.6813 4.32172 -0.810739 22.0982 3.3724 -0.934257 21.5952 1.98104 -1.14353 
21.3018 0.237567 -1.39403 20.8817 -1.65979 -1.68283 20.0827 -3.59729 -1.98606 
-22.0894 3.79082 -1.05192 -23.6162 2.77525 -1.12324 -25.0669 1.27424 -1.2965 
-26.2304 -0.750377 -1.72009 -26.8486 -2.98884 -2.17211 -26.7249 -4.90564 -2.25577 
-25.8987 -6.17106 -1.90527 -24.7005 -6.78418 -1.40555 -23.4964 -6.85329 -1.01724 
-10.0341 1.0823 -1.11208 -8.84186 1.70471 -0.937254 -6.82849 1.59798 -0.860754 
-7.34674 2.35397 -0.807812 -5.35129 2.17506 -0.799235 -3.26688 1.88016 -0.956701 
-5.30571 3.01379 -0.974177 -3.44725 2.73958 -0.97496 -1.47822 2.36207 -1.19101 
0.39109 1.8936 -1.52701 -2.87948 3.62185 -1.55757 -1.12346 3.25797 -1.63252 
0.670406 2.77652 -1.85811 2.37662 2.22352 -2.2344 3.88987 1.61501 -2.58511 
-0.613561 4.16287 -2.2783 1.14847 3.75048 -2.56951 2.83782 3.18191 -2.86344 
4.41604 2.52264 -3.24887 5.80071 1.85164 -3.59268 7.00443 1.10003 -3.83288 
1.1502 4.69855 -2.76896 2.90229 4.28033 -3.26574 4.56294 3.69532 -3.67925 
6.10495 2.96303 -4.10753 7.45127 2.19877 -4.47348 8.57652 1.42914 -4.66263 
9.54594 0.561622 -4.80246 2.48099 5.27304 -2.95372 4.12404 4.8656 -3.49271 
5.74869 4.32438 -3.95105 7.30792 3.61702 -4.41347 8.67878 2.79747 -4.84793 
9.78655 1.96419 -5.08489 10.6832 1.11825 -5.15271 11.4164 0.211121 -5.25253 
-14.3477 0.245927 -1.98251 -15.7998 0.280551 -2.34129 -13.4379 1.04778 -1.65379 
-16.9833 0.642416 -2.64263 -14.8798 1.27542 -1.96157 -12.2553 1.89418 -1.33509 
-17.8974 1.27095 -2.87711 -15.9496 1.838 -2.27936 -13.5743 2.30192 -1.6232 
-10.5393 2.78135 -1.15051 -18.6377 2.03444 -2.90665 -16.7266 2.59287 -2.51195 
-14.5217 2.99257 -1.93725 -11.7783 3.2913 -1.40292 -8.35177 3.61195 -1.17995 
-19.2439 2.85586 -2.60131 -17.3706 3.37721 -2.43194 -15.2539 3.78851 -2.09338 
-12.7721 4.00249 -1.65299 -9.70352 4.13732 -1.28967 -6.07703 4.30125 -1.33931 
-19.6005 3.65022 -2.05736 -17.8606 4.11134 -1.97989 -15.8669 4.54027 -1.86644 
-13.5838 4.77236 -1.70021 -10.8783 4.81107 -1.40076 -7.59309 4.81279 -1.22124 
-3.97991 4.88938 -1.51291 -19.6163 4.31256 -1.46061 -18.0568 4.72494 -1.35692 
-16.2639 5.16171 -1.30152 -14.19 5.46655 -1.36575 -11.7811 5.53084 -1.33313 
-8.8832 5.44115 -1.15454 -5.50432 5.39129 -1.19588 -2.08929 5.46441 -1.67562 
-17.9691 5.41932 -0.189722 -16.3165 5.92755 0.523344 -16.4412 5.81089 -0.0454377 
-14.3719 6.29227 1.0585 -14.6599 6.33471 0.568633 -14.7336 6.25115 -0.0459764 
-12.0701 6.47918 1.37431 -12.5448 6.69761 1.02812 -12.7972 6.76203 0.492493 
-12.7342 6.5848 -0.241411 -9.35831 6.49431 1.63504 -9.96236 6.85545 1.40867 
-10.4339 7.07193 1.02903 -10.5549 7.01698 0.35147 -10.3157 6.65342 -0.420532 
-6.33847 6.40081 1.91813 -6.92191 6.82655 1.7307 -7.55548 7.17032 1.51343 
-7.90993 7.25927 0.991558 -7.80717 7.01575 0.183588 -7.38165 6.52871 -0.532754 
-3.3414 6.27103 2.10557 -3.78236 6.69953 1.88115 -4.40601 7.12609 1.73885 
-4.92352 7.36944 1.40674 -4.98321 7.29486 0.678328 -4.60952 6.94447 -0.192473 
[...]
POINT_DATA 1002
FIELD FieldData 4
_paraPhi 1 1002 double
6.2831853072 3.1415926536 6.2831853072 3.1415926536 4.7123889804 4.7123889804 1.5707963268 1.5707963268 3.6951670125 
5.7296109483 2.5880182947 0.5535743589 6.2831853072 6.2831853072 6.2831853072 6.2831853072 3.1415926536 3.1415926536 
3.1415926536 3.1415926536 3.1415926536 6.1053039672 5.898798347 5.6768734901 5.4599499503 5.2659633393 5.1032165617 
4.9713148346 4.8656852733 4.7809517865 0.17788134 0.38438696014 0.60631181711 0.82323535693 1.0172219679 1.1799687454 
1.3118704726 1.4175000338 1.5022335207 6.1892828907 6.1070320098 6.035312792 5.9728339911 5.9183214791 5.8706119594 
5.8286879411 5.7916808611 5.7588591896 0.093902416448 0.17615329733 0.2478725152 0.31035131605 0.36486382811 0.41257334776 
0.45449736604 0.4915044461 0.52432611754 3.3194739936 3.5259796137 3.7479044707 3.9648280105 4.1588146215 4.321561399 
4.4534631262 4.5590926874 4.6438261743 2.9637113136 2.7572056934 2.5352808365 2.3183572967 2.1243706857 1.9616239082 
1.829722181 1.7240926197 1.6393591329 3.23549507 3.3177459509 3.3894651688 3.4519439696 3.5064564817 3.5541660013 
3.5960900196 3.6330970997 3.6659187711 3.0476902371 2.9654393563 2.8937201384 2.8312413375 2.7767288255 2.7290193058 
2.6870952876 2.6500882075 2.617266536 6.2831853072 6.2831853072 6.2831853072 6.2831853072 3.1415926536 3.1415926536 
3.1415926536 3.1415926536 3.1415926536 6.1053039672 5.898798347 5.6768734901 5.4599499503 5.2659633393 5.1032165617 
4.9713148346 4.8656852733 4.7809517865 0.17788134 0.38438696014 0.60631181711 0.82323535693 1.0172219679 1.1799687454 
1.3118704726 1.4175000338 1.5022335207 6.1892828907 6.1070320098 6.035312792 5.9728339911 5.9183214791 5.8706119594 
5.8286879411 5.7916808611 5.7588591896 0.093902416448 0.17615329733 0.2478725152 0.31035131605 0.36486382811 0.41257334776 
0.45449736604 0.4915044461 0.52432611754 3.3194739936 3.5259796137 3.7479044707 3.9648280105 4.1588146215 4.321561399 
4.4534631262 4.5590926874 4.6438261743 2.9637113136 2.7572056934 2.5352808365 2.3183572967 2.1243706857 1.9616239082 
1.829722181 1.7240926197 1.6393591329 3.23549507 3.3177459509 3.3894651688 3.4519439696 3.5064564817 3.5541660013 
3.5960900196 3.6330970997 3.6659187711 3.0476902371 2.9654393563 2.8937201384 2.8312413375 2.7767288255 2.7290193058 
2.6870952876 2.6500882075 2.617266536 4.7123889804 4.7123889804 4.7123889804 4.7123889804 4.7123889804 4.7123889804 
4.7123889804 4.7123889804 4.7123889804 4.6087898617 4.4991390697 4.3857031936 4.2712800401 4.1588146215 4.0509635631 
3.94975894 3.8564636551 3.7716124825 4.8159880991 4.9256388911 5.0390747672 5.1534979207 5.2659633393 5.3738143976 
5.4750190208 5.5683143056 5.6531654782 4.6087898617 4.4991390697 4.3857031936 4.2712800401 4.1588146215 4.0509635631 
3.94975894 3.8564636551 3.7716124825 4.8159880991 4.9256388911 5.0390747672 5.1534979207 5.2659633393 5.3738143976 
5.4750190208 5.5683143056 5.6531654782 1.5707963268 1.5707963268 1.5707963268 1.5707963268 1.5707963268 1.5707963268 
1.5707963268 1.5707963268 1.5707963268 1.6743954455 1.7840462375 1.8974821136 2.0119052671 2.1243706857 2.232221744 
2.3334263672 2.426721652 2.5115728246 1.4671972081 1.3575464161 1.24411054 1.1296873865 1.0172219679 0.90937090954 
0.80816628637 0.71487100155 0.63001982895 1.6743954455 1.7840462375 1.8974821136 2.0119052671 2.1243706857 2.232221744 
2.3334263672 2.426721652 2.5115728246 1.4671972081 1.3575464161 1.24411054 1.1296873865 1.0172219679 0.90937090954 
0.80816628637 0.71487100155 0.63001982895 3.6007720849 3.4966939854 3.3839471039 3.2645756454 3.1415926536 3.0186096618 
2.8992382033 2.7864913217 2.6824132222 5.8240058758 5.9280839753 6.0408308569 6.1602023154 6.2831853072 0.12298299178 
0.2423544503 0.35510133185 0.45917943135 6.0560271438 5.7885595667 5.9702140275 5.5125918794 5.6029703303 5.7885595667 
5.2659633393 5.2659633393 5.2659633393 5.2659633393 5.0674903122 5.0120975802 4.9155579264 4.7123889804 4.1588146215 
4.9155579264 4.8353719722 4.7123889804 4.5092200343 4.1588146215 3.6362183941 4.8004512023 4.7123889804 4.5894059886 
4.4126803806 4.1588146215 3.8218076305 3.4545639333 4.7123889804 4.6243267584 4.5092200343 4.3572876485 4.1588146215 
3.9121860814 3.6362183941 3.368750817 6.0174235957 5.9434319871 5.8263323547 5.8809213739 5.7674481418 5.6279784266 
5.8278025282 5.718968232 5.5891129425 5.4372443565 5.7823484065 5.678536687 5.5575666702 5.4192596322 5.2659633393 
5.743164462 5.6444075337 5.5314983644 5.4046708639 5.2659633393 5.1195510325 5.7091357773 5.6152775188 5.5096229709 
5.3926039573 5.2659633393 5.1329233157 4.9978930058 5.6793730533 5.5901633916 5.4910209005 5.3824597928 5.2659633393 
5.1440684722 5.0201624502 4.8979782167 5.5683143056 5.4750190208 5.4750190208 5.3738143976 5.3738143976 5.3738143976 
5.2659633393 5.2659633393 5.2659633393 5.2659633393 5.1534979207 5.1534979207 5.1534979207 5.1534979207 5.1534979207 
5.0390747672 5.0390747672 5.0390747672 5.0390747672 5.0390747672 5.0390747672 4.9256388911 4.9256388911 4.9256388911 
4.9256388911 4.9256388911 4.9256388911 4.9256388911 4.8159880991 4.8159880991 4.8159880991 4.8159880991 4.8159880991 
4.8159880991 4.8159880991 4.8159880991 4.6087898617 4.6087898617 4.4991390697 4.6087898617 4.4991390697 4.3857031936 
4.6087898617 4.4991390697 4.3857031936 4.2712800401 4.6087898617 4.4991390697 4.3857031936 4.2712800401 4.1588146215 
4.6087898617 4.4991390697 4.3857031936 4.2712800401 4.1588146215 4.0509635631 4.6087898617 4.4991390697 4.3857031936 
4.2712800401 4.1588146215 4.0509635631 3.94975894 4.6087898617 4.4991390697 4.3857031936 4.2712800401 4.1588146215 
4.0509635631 3.94975894 3.8564636551 4.526799744 4.4046155105 4.426884955 4.2807094886 4.2918546451 4.3052269283 
4.1588146215 4.1588146215 4.1588146215 4.1588146215 4.042318168 4.0321740035 4.0201070968 4.0055183285 3.9875336042 
3.9337570603 3.9151549899 3.8932795963 3.8672112905 3.8356650183 3.7967995342 3.8346145692 3.809500442 3.7803704271 
3.7462412737 3.7058097288 3.657329819 3.5984456061 3.7454049075 3.7156421835 3.6816134988 3.6424295543 3.5969754326 
3.5438565869 3.4813459737 3.4073543651 3.5642842451 3.4524645613 3.5233842518 3.3320300872 3.403123212 3.4773852225 
3.20576226 3.2746326772 3.348015857 3.4255060145 3.0774230472 3.1415926536 3.2112816139 3.2864685043 3.3668817272 
2.95115522 3.00855263 3.0719036933 3.1415926536 3.2178377658 3.3005964304 2.8307207459 2.8800620952 2.9351694502 
2.9967168029 3.0653475414 3.1415926536 3.225752376 2.718901062 2.7598010554 2.8058000847 2.8576792927 2.91630358 
2.9825888767 3.0574329311 3.1415926536 3.5642842451 3.5233842518 3.4524645613 3.4773852225 3.403123212 3.3320300872 
3.4255060145 3.348015857 3.2746326772 3.20576226 3.3668817272 3.2864685043 3.2112816139 3.1415926536 3.0774230472 
3.3005964304 3.2178377658 3.1415926536 3.0719036933 3.00855263 2.95115522 3.225752376 3.1415926536 3.0653475414 
2.9967168029 2.9351694502 2.8800620952 2.8307207459 3.1415926536 3.0574329311 2.9825888767 2.91630358 2.8576792927 
2.8058000847 2.7598010554 2.718901062 4.526799744 4.426884955 4.4046155105 4.3052269283 4.2918546451 4.2807094886 
4.1588146215 4.1588146215 4.1588146215 4.1588146215 3.9875336042 4.0055183285 4.0201070968 4.0321740035 4.042318168 
3.7967995342 3.8356650183 3.8672112905 3.8932795963 3.9151549899 3.9337570603 3.5984456061 3.657329819 3.7058097288 
3.7462412737 3.7803704271 3.809500442 3.8346145692 3.4073543651 3.4813459737 3.5438565869 3.5969754326 3.6424295543 
3.6816134988 3.7156421835 3.7454049075 4.7123889804 4.8004512023 4.6243267584 4.9155579264 4.7123889804 4.5092200343 
5.0674903122 4.8353719722 4.5894059886 4.3572876485 5.2659633393 5.0120975802 4.7123889804 4.4126803806 4.1588146215 
5.5125918794 5.2659633393 4.9155579264 4.5092200343 4.1588146215 3.9121860814 5.7885595667 5.6029703303 5.2659633393 
4.7123889804 4.1588146215 3.8218076305 3.6362183941 6.0560271438 5.9702140275 5.7885595667 5.2659633393 4.1588146215 
3.6362183941 3.4545639333 3.368750817 0.22715816343 0.49462574053 0.3129712797 0.77059342779 0.68021497688 0.49462574053 
1.0172219679 1.0172219679 1.0172219679 1.0172219679 1.2156949949 1.271087727 1.3676273807 1.5707963268 2.1243706857 
1.3676273807 1.447813335 1.5707963268 1.7739652728 2.1243706857 2.6469669131 1.4827341049 1.5707963268 1.6937793186 
1.8705049266 2.1243706857 2.4613776767 2.8286213739 1.5707963268 1.6588585487 1.7739652728 1.9258976586 2.1243706857 
2.3709992258 2.6469669131 2.9144344902 1.7563855631 1.8785697967 1.8563003522 2.0024758186 1.9913306621 1.9779583789 
2.1243706857 2.1243706857 2.1243706857 2.1243706857 2.2408671392 2.2510113037 2.2630782103 2.2776669786 2.295651703 
2.3494282469 2.3680303173 2.3899057108 2.4159740166 2.4475202889 2.486385773 2.448570738 2.4736848652 2.5028148801 
2.5369440334 2.5773755784 2.6258554882 2.6847397011 2.5377803997 2.5675431237 2.6015718084 2.6407557529 2.6862098746 
2.7393287203 2.8018393335 2.8758309421 1.6743954455 1.6743954455 1.7840462375 1.6743954455 1.7840462375 1.8974821136 
1.6743954455 1.7840462375 1.8974821136 2.0119052671 1.6743954455 1.7840462375 1.8974821136 2.0119052671 2.1243706857 
1.6743954455 1.7840462375 1.8974821136 2.0119052671 2.1243706857 2.232221744 1.6743954455 1.7840462375 1.8974821136 
2.0119052671 2.1243706857 2.232221744 2.3334263672 1.6743954455 1.7840462375 1.8974821136 2.0119052671 2.1243706857 
2.232221744 2.3334263672 2.426721652 1.4671972081 1.3575464161 1.4671972081 1.24411054 1.3575464161 1.4671972081 
1.1296873865 1.24411054 1.3575464161 1.4671972081 1.0172219679 1.1296873865 1.24411054 1.3575464161 1.4671972081 
0.90937090954 1.0172219679 1.1296873865 1.24411054 1.3575464161 1.4671972081 0.80816628637 0.90937090954 1.0172219679 
1.1296873865 1.24411054 1.3575464161 1.4671972081 0.71487100155 0.80816628637 0.90937090954 1.0172219679 1.1296873865 
1.24411054 1.3575464161 1.4671972081 0.60381225391 0.57404952988 0.69302191562 0.54002084522 0.66790778838 0.79216440667 
0.50083690068 0.63877777351 0.77356233629 0.90072551443 0.45538277901 0.60464862014 0.75168694275 0.89058134991 1.0172219679 
0.40226393329 0.56421707518 0.72561863695 0.87851444325 1.0172219679 1.139116835 0.33975332011 0.51573716537 0.69407236469 
0.86392567495 1.0172219679 1.1502619915 1.2630228569 0.26576171152 0.45685295248 0.6552068806 0.84594095064 1.0172219679 
1.1636342747 1.2852923014 1.3852070904 0.22715816343 0.3129712797 0.49462574053 0.49462574053 0.68021497688 0.77059342779 
1.0172219679 1.0172219679 1.0172219679 1.0172219679 2.1243706857 1.5707963268 1.3676273807 1.271087727 1.2156949949 
2.6469669131 2.1243706857 1.7739652728 1.5707963268 1.447813335 1.3676273807 2.8286213739 2.4613776767 2.1243706857 
1.8705049266 1.6937793186 1.5707963268 1.4827341049 2.9144344902 2.6469669131 2.3709992258 2.1243706857 1.9258976586 
1.7739652728 1.6588585487 1.5707963268 1.7563855631 1.8563003522 1.8785697967 1.9779583789 1.9913306621 2.0024758186 
2.1243706857 2.1243706857 2.1243706857 2.1243706857 2.295651703 2.2776669786 2.2630782103 2.2510113037 2.2408671392 
2.486385773 2.4475202889 2.4159740166 2.3899057108 2.3680303173 2.3494282469 2.6847397011 2.6258554882 2.5773755784 
2.5369440334 2.5028148801 2.4736848652 2.448570738 2.8758309421 2.8018393335 2.7393287203 2.6862098746 2.6407557529 
2.6015718084 2.5675431237 2.5377803997 5.8604937156 5.901393709 5.9723133995 5.9473927383 6.0216547488 6.0927478736 
5.9992719463 6.0767621038 6.1501452836 6.2190157008 6.0578962336 6.1383094565 6.2134963469 0 0.064169606361 
6.1241815303 6.206940195 6.2831853072 0.069688960264 0.13304002361 0.19043743361 6.1990255847 0 0.07624511221 
0.14487585072 0.20642320337 0.26153055843 0.3108719077 0 0.084159722458 0.15900377685 0.22528907359 0.28391336087 
0.3357925689 0.38179159818 0.42269159155 5.8604937156 5.9723133995 5.901393709 6.0927478736 6.0216547488 5.9473927383 
6.2190157008 6.1501452836 6.0767621038 5.9992719463 0.064169606361 0 6.2134963469 6.1383094565 6.0578962336 
0.19043743361 0.13304002361 0.069688960264 6.2831853072 6.206940195 6.1241815303 0.3108719077 0.26153055843 0.20642320337 
0.14487585072 0.07624511221 6.2831853072 6.1990255847 0.42269159155 0.38179159818 0.3357925689 0.28391336087 0.22528907359 
0.15900377685 0.084159722458 0 5.6793730533 5.7091357773 5.5901633916 5.743164462 5.6152775188 5.4910209005 
5.7823484065 5.6444075337 5.5096229709 5.3824597928 5.8278025282 5.678536687 5.5314983644 5.3926039573 5.2659633393 
5.8809213739 5.718968232 5.5575666702 5.4046708639 5.2659633393 5.1440684722 5.9434319871 5.7674481418 5.5891129425 
5.4192596322 5.2659633393 5.1329233157 5.0201624502 6.0174235957 5.8263323547 5.6279784266 5.4372443565 5.2659633393 
5.1195510325 4.9978930058 4.8979782167 1.3852070904 1.2852923014 1.2630228569 1.1636342747 1.1502619915 1.139116835 
1.0172219679 1.0172219679 1.0172219679 1.0172219679 0.84594095064 0.86392567495 0.87851444325 0.89058134991 0.90072551443 
0.6552068806 0.69407236469 0.72561863695 0.75168694275 0.77356233629 0.79216440667 0.45685295248 0.51573716537 0.56421707518 
0.60464862014 0.63877777351 0.66790778838 0.69302191562 0.26576171152 0.33975332011 0.40226393329 0.45538277901 0.50083690068 
0.54002084522 0.57404952988 0.60381225391 
_paraPhiHalf 1 1002 double
0 3.1415926536 0 3.1415926536 1.5707963268 1.5707963268 1.5707963268 1.5707963268 2.5880182947 
0.5535743589 2.5880182947 0.5535743589 0 0 0 0 3.1415926536 3.1415926536 
3.1415926536 3.1415926536 3.1415926536 0.17788134 0.38438696014 0.60631181711 0.82323535693 1.0172219679 1.1799687454 
1.3118704726 1.4175000338 1.5022335207 0.17788134 0.38438696014 0.60631181711 0.82323535693 1.0172219679 1.1799687454 
1.3118704726 1.4175000338 1.5022335207 0.093902416448 0.17615329733 0.2478725152 0.31035131605 0.36486382811 0.41257334776 
0.45449736604 0.4915044461 0.52432611754 0.093902416448 0.17615329733 0.2478725152 0.31035131605 0.36486382811 0.41257334776 
0.45449736604 0.4915044461 0.52432611754 2.9637113136 2.7572056934 2.5352808365 2.3183572967 2.1243706857 1.9616239082 
1.829722181 1.7240926197 1.6393591329 2.9637113136 2.7572056934 2.5352808365 2.3183572967 2.1243706857 1.9616239082 
1.829722181 1.7240926197 1.6393591329 3.0476902371 2.9654393563 2.8937201384 2.8312413375 2.7767288255 2.7290193058 
2.6870952876 2.6500882075 2.617266536 3.0476902371 2.9654393563 2.8937201384 2.8312413375 2.7767288255 2.7290193058 
2.6870952876 2.6500882075 2.617266536 0 0 0 0 3.1415926536 3.1415926536 
3.1415926536 3.1415926536 3.1415926536 0.17788134 0.38438696014 0.60631181711 0.82323535693 1.0172219679 1.1799687454 
1.3118704726 1.4175000338 1.5022335207 0.17788134 0.38438696014 0.60631181711 0.82323535693 1.0172219679 1.1799687454 
1.3118704726 1.4175000338 1.5022335207 0.093902416448 0.17615329733 0.2478725152 0.31035131605 0.36486382811 0.41257334776 
0.45449736604 0.4915044461 0.52432611754 0.093902416448 0.17615329733 0.2478725152 0.31035131605 0.36486382811 0.41257334776 
0.45449736604 0.4915044461 0.52432611754 2.9637113136 2.7572056934 2.5352808365 2.3183572967 2.1243706857 1.9616239082 
1.829722181 1.7240926197 1.6393591329 2.9637113136 2.7572056934 2.5352808365 2.3183572967 2.1243706857 1.9616239082 
1.829722181 1.7240926197 1.6393591329 3.0476902371 2.9654393563 2.8937201384 2.8312413375 2.7767288255 2.7290193058 
2.6870952876 2.6500882075 2.617266536 3.0476902371 2.9654393563 2.8937201384 2.8312413375 2.7767288255 2.7290193058 
2.6870952876 2.6500882075 2.617266536 1.5707963268 1.5707963268 1.5707963268 1.5707963268 1.5707963268 1.5707963268 
1.5707963268 1.5707963268 1.5707963268 1.6743954455 1.7840462375 1.8974821136 2.0119052671 2.1243706857 2.232221744 
2.3334263672 2.426721652 2.5115728246 1.4671972081 1.3575464161 1.24411054 1.1296873865 1.0172219679 0.90937090954 
0.80816628637 0.71487100155 0.63001982895 1.6743954455 1.7840462375 1.8974821136 2.0119052671 2.1243706857 2.232221744 
2.3334263672 2.426721652 2.5115728246 1.4671972081 1.3575464161 1.24411054 1.1296873865 1.0172219679 0.90937090954 
0.80816628637 0.71487100155 0.63001982895 1.5707963268 1.5707963268 1.5707963268 1.5707963268 1.5707963268 1.5707963268 
1.5707963268 1.5707963268 1.5707963268 1.6743954455 1.7840462375 1.8974821136 2.0119052671 2.1243706857 2.232221744 
2.3334263672 2.426721652 2.5115728246 1.4671972081 1.3575464161 1.24411054 1.1296873865 1.0172219679 0.90937090954 
0.80816628637 0.71487100155 0.63001982895 1.6743954455 1.7840462375 1.8974821136 2.0119052671 2.1243706857 2.232221744 
2.3334263672 2.426721652 2.5115728246 1.4671972081 1.3575464161 1.24411054 1.1296873865 1.0172219679 0.90937090954 
0.80816628637 0.71487100155 0.63001982895 2.6824132222 2.7864913217 2.8992382033 3.0186096618 3.1415926536 3.0186096618 
2.8992382033 2.7864913217 2.6824132222 0.45917943135 0.35510133185 0.2423544503 0.12298299178 0 0.12298299178 
0.2423544503 0.35510133185 0.45917943135 0.22715816343 0.49462574053 0.3129712797 0.77059342779 0.68021497688 0.49462574053 
1.0172219679 1.0172219679 1.0172219679 1.0172219679 1.2156949949 1.271087727 1.3676273807 1.5707963268 2.1243706857 
1.3676273807 1.447813335 1.5707963268 1.7739652728 2.1243706857 2.6469669131 1.4827341049 1.5707963268 1.6937793186 
1.8705049266 2.1243706857 2.4613776767 2.8286213739 1.5707963268 1.6588585487 1.7739652728 1.9258976586 2.1243706857 
2.3709992258 2.6469669131 2.9144344902 0.26576171152 0.33975332011 0.45685295248 0.40226393329 0.51573716537 0.6552068806 
0.45538277901 0.56421707518 0.69407236469 0.84594095064 0.50083690068 0.60464862014 0.72561863695 0.86392567495 1.0172219679 
0.54002084522 0.63877777351 0.75168694275 0.87851444325 1.0172219679 1.1636342747 0.57404952988 0.66790778838 0.77356233629 
0.89058134991 1.0172219679 1.1502619915 1.2852923014 0.60381225391 0.69302191562 0.79216440667 0.90072551443 1.0172219679 
1.139116835 1.2630228569 1.3852070904 0.71487100155 0.80816628637 0.80816628637 0.90937090954 0.90937090954 0.90937090954 
1.0172219679 1.0172219679 1.0172219679 1.0172219679 1.1296873865 1.1296873865 1.1296873865 1.1296873865 1.1296873865 
1.24411054 1.24411054 1.24411054 1.24411054 1.24411054 1.24411054 1.3575464161 1.3575464161 1.3575464161 
1.3575464161 1.3575464161 1.3575464161 1.3575464161 1.4671972081 1.4671972081 1.4671972081 1.4671972081 1.4671972081 
1.4671972081 1.4671972081 1.4671972081 1.6743954455 1.6743954455 1.7840462375 1.6743954455 1.7840462375 1.8974821136 
1.6743954455 1.7840462375 1.8974821136 2.0119052671 1.6743954455 1.7840462375 1.8974821136 2.0119052671 2.1243706857 
1.6743954455 1.7840462375 1.8974821136 2.0119052671 2.1243706857 2.232221744 1.6743954455 1.7840462375 1.8974821136 
2.0119052671 2.1243706857 2.232221744 2.3334263672 1.6743954455 1.7840462375 1.8974821136 2.0119052671 2.1243706857 
2.232221744 2.3334263672 2.426721652 1.7563855631 1.8785697967 1.8563003522 2.0024758186 1.9913306621 1.9779583789 
2.1243706857 2.1243706857 2.1243706857 2.1243706857 2.2408671392 2.2510113037 2.2630782103 2.2776669786 2.295651703 
2.3494282469 2.3680303173 2.3899057108 2.4159740166 2.4475202889 2.486385773 2.448570738 2.4736848652 2.5028148801 
2.5369440334 2.5773755784 2.6258554882 2.6847397011 2.5377803997 2.5675431237 2.6015718084 2.6407557529 2.6862098746 
2.7393287203 2.8018393335 2.8758309421 2.718901062 2.8307207459 2.7598010554 2.95115522 2.8800620952 2.8058000847 
3.0774230472 3.00855263 2.9351694502 2.8576792927 3.0774230472 3.1415926536 3.0719036933 2.9967168029 2.91630358 
2.95115522 3.00855263 3.0719036933 3.1415926536 3.0653475414 2.9825888767 2.8307207459 2.8800620952 2.9351694502 
2.9967168029 3.0653475414 3.1415926536 3.0574329311 2.718901062 2.7598010554 2.8058000847 2.8576792927 2.91630358 
2.9825888767 3.0574329311 3.1415926536 2.718901062 2.7598010554 2.8307207459 2.8058000847 2.8800620952 2.95115522 
2.8576792927 2.9351694502 3.00855263 3.0774230472 2.91630358 2.9967168029 3.0719036933 3.1415926536 3.0774230472 
2.9825888767 3.0653475414 3.1415926536 3.0719036933 3.00855263 2.95115522 3.0574329311 3.1415926536 3.0653475414 