# vtk DataFile Version 5.1
vtk output
ASCII
DATASET POLYDATA
POINTS 1002 float
-5.31664 -0.189284 -4.47086 4.99849 0.23364 -3.21034 -5.28771 0.270706 4.64065 
4.88059 -0.233391 3.41468 0.43785 6.45064 -2.88221 0.24207 6.72229 3.20291 
0.112865 -6.6644 -3.08998 0.437522 -6.44008 2.85387 9.3441 4.75049 -0.11598 
-9.64122 4.26912 -0.518788 9.20188 -4.74431 -0.0471633 -9.14187 -4.28402 0.187421 
-4.41678 -0.225521 -4.55628 -3.42424 -0.245635 -4.5796 -2.35036 -0.25536 -4.4965 
-1.21811 -0.241945 -4.30773 -0.0605904 -0.182655 -4.072 1.08589 -0.0876859 -3.83952 
2.18797 0.00672558 -3.62263 3.21923 0.0871132 -3.43708 4.16047 0.162276 -3.30227 
-5.03704 0.400854 -4.387 -4.6634 1.04638 -4.25456 -4.19175 1.73686 -4.06729 
-3.61828 2.4568 -3.82243 -2.94121 3.19322 -3.53552 -2.18861 3.9308 -3.25823 
-1.42971 4.64426 -3.05966 -0.73045 5.31016 -2.96573 -0.111638 5.91607 -2.93109 
-4.99169 -0.810791 -4.58354 -4.58793 -1.49703 -4.65562 -4.09034 -2.24184 -4.66856 
-3.5046 -3.0221 -4.62026 -2.86954 -3.79999 -4.51491 -2.22961 -4.53671 -4.34207 
-1.60371 -5.2019 -4.08891 -0.996391 -5.77737 -3.77159 -0.419128 -6.26128 -3.42894 
-6.06185 0.23641 -4.30856 -6.86991 0.725179 -4.10214 -7.68166 1.25041 -3.8393 
-8.4228 1.774 -3.50733 -9.07217 2.2977 -3.12757 -9.63582 2.8547 -2.73202 
-10.0406 3.41523 -2.29734 -10.1687 3.87192 -1.77074 -10.0016 4.14975 -1.15617 
-6.00146 -0.520782 -4.42274 -6.69281 -0.880606 -4.31085 -7.36361 -1.27834 -4.09162 
-7.983 -1.71984 -3.71825 -8.50166 -2.19061 -3.18749 -8.87199 -2.66813 -2.54877 
-9.09403 -3.14241 -1.8539 -9.20393 -3.59731 -1.1361 -9.22112 -3.99162 -0.437961 
4.7782 0.842844 -3.23053 4.4896 1.50741 -3.2445 4.12952 2.20878 -3.26281 
3.69097 2.92561 -3.28391 3.17382 3.64124 -3.30356 2.60596 4.33821 -3.32625 
2.03132 4.98907 -3.33742 1.47547 5.5649 -3.28681 0.942971 6.05154 -3.13275 
4.66757 -0.414797 -3.22824 4.26591 -1.11838 -3.23023 3.79842 -1.86656 -3.21981 
3.28509 -2.64052 -3.23149 2.74904 -3.42046 -3.29044 2.19995 -4.18966 -3.36258 
1.64301 -4.92386 -3.39083 1.09607 -5.59159 -3.35426 0.581872 -6.17269 -3.25487 
5.69046 0.682812 -3.14916 6.41658 1.17656 -3.08196 7.16101 1.70813 -2.99667 
7.92086 2.2876 -2.89329 8.6715 2.92959 -2.75982 9.31276 3.59272 -2.52028 
9.70801 4.16185 -2.07887 9.79948 4.53678 -1.44565 9.64381 4.71177 -0.747777 
5.61096 -0.104089 -3.12964 6.23452 -0.49161 -3.00271 6.85032 -0.937522 -2.81855 
7.44175 -1.43775 -2.60035 7.99252 -1.97312 -2.37201 8.48025 -2.53404 -2.09952 
8.8698 -3.1253 -1.71746 9.12404 -3.72841 -1.21219 9.229 -4.28749 -0.63398 
-4.37653 0.299767 4.6747 -3.37459 0.307748 4.64333 -2.29854 0.302198 4.56272 
-1.17609 0.276329 4.45728 -0.038417 0.212604 4.32498 1.08545 0.112414 4.14443 
2.16565 -2.11891e-06 3.92907 3.17176 -0.10125 3.72578 4.08031 -0.17966 3.55845 
-4.96975 0.904232 4.76203 -4.56079 1.59126 4.8339 -4.05689 2.32101 4.84114 
-3.46654 3.08592 4.78159 -2.81251 3.86853 4.66841 -2.1333 4.62542 4.50707 
-1.47118 5.30278 4.27636 -0.851669 5.87204 3.96139 -0.280736 6.33886 3.58852 
-4.98747 -0.335782 4.51733 -4.60222 -0.990269 4.34228 -4.13527 -1.68021 4.12144 
-3.57992 -2.40582 3.87997 -2.92524 -3.16466 3.64708 -2.19144 -3.92585 3.43496 
-1.44306 -4.64684 3.2502 -0.745136 -5.30834 3.10188 -0.121134 -5.90842 2.98012 
-5.99918 0.609472 4.63008 -6.72832 0.954285 4.52707 -7.44319 1.30892 4.26883 
-8.11006 1.70026 3.79837 -8.68191 2.1375 3.12837 -9.11314 2.58807 2.35671 
-9.40235 3.0284 1.57905 -9.58292 3.46918 0.827662 -9.66776 3.90056 0.116448 
-6.02254 -0.159675 4.47101 -6.80294 -0.646472 4.21277 -7.57862 -1.16644 3.87183 
-8.27411 -1.69534 3.46238 -8.83589 -2.22838 3.00052 -9.25342 -2.77004 2.50432 
-9.51083 -3.29563 1.97878 -9.56961 -3.74667 1.41041 -9.4268 -4.07659 0.800964 
4.57193 0.40837 3.40492 4.20288 1.11145 3.40984 3.77197 1.87078 3.44229 
3.28077 2.66609 3.49035 2.74021 3.46762 3.5195 2.17989 4.24557 3.51258 
1.63788 4.97391 3.48662 1.13532 5.63505 3.44826 0.671873 6.22034 3.36563 
4.67516 -0.84995 3.50785 4.41762 -1.52067 3.58375 4.09769 -2.23237 3.63163 
3.6999 -2.97229 3.65505 3.21782 -3.71518 3.66326 2.66938 -4.41713 3.64411 
2.08948 -5.04333 3.5622 1.511 -5.58739 3.39328 0.956176 -6.05311 3.14676 
5.47096 0.127949 3.24945 6.08935 0.537725 3.04068 6.72589 0.992682 2.78869 
7.36507 1.49905 2.50484 7.97491 2.06182 2.19961 8.5069 2.65875 1.86665 
8.91605 3.24825 1.48279 9.18382 3.80384 1.02243 9.31959 4.31241 0.479585 
5.53498 -0.662547 3.32699 6.2207 -1.14813 3.20571 6.92621 -1.69573 3.03512 
7.63557 -2.29357 2.8158 8.30336 -2.90973 2.53969 8.85702 -3.50134 2.1726 
9.23779 -4.01975 1.69073 9.41883 -4.41411 1.11896 9.39784 -4.65259 0.518462 
0.45731 6.9894 -2.58824 0.477159 7.52189 -2.13543 0.490871 7.98248 -1.53845 
0.487875 8.30406 -0.85088 0.467682 8.44691 -0.108198 0.439076 8.39385 0.683252 
0.403165 8.14241 1.4823 0.354926 7.729 2.20112 0.297859 7.23074 2.77567 
1.30125 6.70497 -2.95954 2.25331 6.89697 -2.94787 3.29295 6.99292 -2.80936 
4.40121 6.98082 -2.56403 5.53125 6.87493 -2.26598 6.60598 6.68441 -1.93022 
7.54545 6.38268 -1.52538 8.3084 5.93963 -1.04931 8.89952 5.37437 -0.558162 
-0.428578 6.47426 -2.60985 -1.41196 6.43225 -2.29904 -2.50391 6.33172 -1.99978 
-3.67538 6.21447 -1.75222 -4.88145 6.1214 -1.5695 -6.07251 6.01541 -1.43111 
-7.19451 5.7897 -1.28623 -8.18693 5.3854 -1.08745 -9.00458 4.84884 -0.825033 
1.03565 6.76174 2.92566 1.91206 6.74525 2.60872 2.87318 6.66209 2.25744 
3.90365 6.50674 1.87072 4.96492 6.28949 1.46923 6.01122 6.03183 1.09952 
7.0045 5.75065 0.78473 7.91025 5.44871 0.497975 8.69663 5.1176 0.201061 
-0.53023 6.93897 3.18649 -1.40389 7.06377 3.05338 -2.36846 7.03332 2.78742 
-3.41525 6.81647 2.41032 -4.54065 6.45002 1.96059 -5.70757 6.01376 1.46768 
-6.83945 5.56701 0.951451 -7.8811 5.12707 0.432741 -8.81925 4.69397 -0.0646689 
0.153005 -7.18062 -2.70008 0.193393 -7.69486 -2.16003 0.233429 -8.13833 -1.46324 
0.287794 -8.41602 -0.671385 0.365217 -8.46068 0.119318 0.440338 -8.28063 0.850151 
0.477773 -7.93512 1.50742 0.475721 -7.48161 2.07449 0.457346 -6.9675 2.52506 
0.933021 -6.73688 -2.85944 1.82722 -6.76079 -2.57969 2.79057 -6.70608 -2.24082 
3.81059 -6.55397 -1.86211 4.85484 -6.33006 -1.49547 5.88764 -6.08432 -1.17827 
6.88489 -5.82954 -0.898563 7.80781 -5.53303 -0.623079 8.59494 -5.16823 -0.336764 
-0.689064 -6.87142 -3.06809 -1.56989 -7.02702 -2.9715 -2.51496 -7.07687 -2.77373 
-3.51925 -6.95652 -2.459 -4.57502 -6.648 -2.04676 -5.64187 -6.21291 -1.58804 
-6.65939 -5.73623 -1.12478 -7.59016 -5.2563 -0.669452 -8.42173 -4.77211 -0.227035 
1.3257 -6.71278 2.89398 2.31958 -6.95484 2.8859 3.40624 -7.13584 2.78994 
4.53481 -7.22297 2.58961 5.63087 -7.17757 2.28589 6.62569 -6.96533 1.88008 
7.4776 -6.5784 1.3915 8.17983 -6.04353 0.873278 8.74864 -5.41222 0.383202 
-0.442262 -6.46362 2.61935 -1.44019 -6.44934 2.36583 -2.54864 -6.4065 2.10773 
-3.7085 -6.3407 1.85168 -4.83815 -6.22764 1.5992 -5.89804 -6.02264 1.34889 
-6.8856 -5.70527 1.09261 -7.77814 -5.2914 0.816558 -8.53533 -4.80846 0.51282 
9.92731 4.05188 -0.0755152 10.4654 3.211 -0.0593793 10.8943 2.24431 -0.062315 
11.1406 1.18156 -0.0726854 11.1669 0.0621794 -0.0898558 10.9982 -1.0619 -0.117665 
10.6849 -2.13598 -0.142711 10.2618 -3.12062 -0.142142 9.75558 -3.99398 -0.107499 
-10.4617 3.61431 -0.568021 -11.2645 2.87414 -0.563102 -11.944 2.02665 -0.475654 
-12.3518 1.068 -0.306886 -12.3739 0.0489445 -0.1049 -12.0181 -0.957177 0.0667934 
-11.4038 -1.91098 0.174714 -10.6666 -2.79775 0.219872 -9.89686 -3.59566 0.217908 
-4.05546 0.397051 -4.45013 -3.60596 1.07566 -4.28303 -2.98741 0.407492 -4.43692 
-3.06692 1.79805 -4.0524 -2.46835 1.11951 -4.22677 -1.84333 0.427683 -4.31102 
-2.43127 2.55185 -3.77213 -1.86402 1.8782 -3.95859 -1.25749 1.17561 -4.06875 
-0.644527 0.473522 -4.09887 -1.70694 3.32623 -3.48754 -1.17427 2.66946 -3.67132 
-0.595406 1.96972 -3.79392 -0.00218762 1.25006 -3.85491 0.566242 0.555644 -3.86699 
-0.949302 4.09521 -3.26969 -0.434241 3.47153 -3.43302 0.120078 2.78481 -3.54493 
0.691073 2.05824 -3.61206 1.23909 1.33511 -3.64567 1.7409 0.648914 -3.65049 
-0.236433 4.81962 -3.16504 0.282524 4.24313 -3.3021 0.829841 3.58566 -3.38454 
1.39181 2.8677 -3.43223 1.92987 2.1296 -3.45806 2.41648 1.41029 -3.46758 
2.84741 0.726874 -3.46218 0.391986 5.4744 -3.1462 0.920385 4.94524 -3.27603 
1.47252 4.32856 -3.32942 2.04049 3.63987 -3.34464 2.58982 2.91203 -3.34829 
3.08191 2.18033 -3.3433 3.50589 1.46793 -3.33311 3.86584 0.790051 -3.32183 
-5.78254 0.879868 -4.2067 -6.57442 1.42254 -3.98466 -5.38122 1.57977 -4.05542 
-7.33804 1.98949 -3.70302 -6.12146 2.17113 -3.81192 -4.85137 2.31989 -3.84486 
-8.0076 2.54135 -3.34604 -6.80844 2.77054 -3.50047 -5.50977 2.94842 -3.56779 
-4.19343 3.07737 -3.56811 -8.57708 3.10041 -2.94034 -7.39241 3.34997 -3.11092 
-6.10382 3.56787 -3.21485 -4.75389 3.72145 -3.24806 -3.42278 3.82993 -3.24997 
-9.02912 3.69729 -2.51169 -7.86341 3.94828 -2.67575 -6.59373 4.16761 -2.79166 
-5.2535 4.33781 -2.857 -3.89345 4.45981 -2.89976 -2.59602 4.55765 -2.96317 
-9.27387 4.25837 -2.02777 -8.18304 4.56429 -2.20947 -6.95737 4.78186 -2.33052 
-5.65435 4.93074 -2.41429 -4.31671 5.0474 -2.49452 -3.00563 5.1541 -2.60976 
-1.79531 5.24699 -2.77557 -9.24864 4.65648 -1.45503 -8.2903 5.08032 -1.68208 
-7.16278 5.36454 -1.83427 -5.93113 5.51369 -1.94001 -4.65277 5.60462 -2.04915 
-3.37831 5.70522 -2.20444 -2.16738 5.81298 -2.42179 -1.07142 5.89072 -2.68042 
-8.11009 5.34433 -0.358053 -7.08516 5.81491 0.155201 -7.22135 5.92726 -0.618086 
-5.95436 6.26099 0.681585 -6.12531 6.40751 -0.106762 -6.17073 6.33514 -0.828652 
-4.76078 6.70152 1.1881 -4.94153 6.85037 0.400305 -5.03446 6.81878 -0.351246 
-5.01137 6.55512 -1.01688 -3.57976 7.11865 1.65434 -3.73357 7.29238 0.864998 
-3.84089 7.29357 0.0951347 -3.86697 7.08672 -0.617841 -3.80716 6.69518 -1.24029 
-2.47144 7.4258 2.06924 -2.57206 7.68613 1.27898 -2.65627 7.76354 0.487163 
-2.69747 7.63502 -0.2629 -2.68366 7.308 -0.946148 -2.61727 6.84302 -1.53177 
-1.45134 7.53781 2.41206 -1.49596 7.91422 1.65018 -1.53742 8.1188 0.841345 
[...]
POINT_DATA 1002
FIELD FieldData 4
_paraPhi 1 1002 double
6.2831853072 3.1415926536 6.2831853072 3.1415926536 4.7123889804 4.7123889804 1.5707963268 1.5707963268 3.6951670125 
5.7296109483 2.5880182947 0.5535743589 6.2831853072 6.2831853072 6.2831853072 6.2831853072 3.1415926536 3.1415926536 
3.1415926536 3.1415926536 3.1415926536 6.1053039672 5.898798347 5.6768734901 5.4599499503 5.2659633393 5.1032165617 
4.9713148346 4.8656852733 4.7809517865 0.17788134 0.38438696014 0.60631181711 0.82323535693 1.0172219679 1.1799687454 
1.3118704726 1.4175000338 1.5022335207 6.1892828907 6.1070320098 6.035312792 5.9728339911 5.9183214791 5.8706119594 
5.8286879411 5.7916808611 5.7588591896 0.093902416448 0.17615329733 0.2478725152 0.31035131605 0.36486382811 0.41257334776 
0.45449736604 0.4915044461 0.52432611754 3.3194739936 3.5259796137 3.7479044707 3.9648280105 4.1588146215 4.321561399 
4.4534631262 4.5590926874 4.6438261743 2.9637113136 2.7572056934 2.5352808365 2.3183572967 2.1243706857 1.9616239082 
1.829722181 1.7240926197 1.6393591329 3.23549507 3.3177459509 3.3894651688 3.4519439696 3.5064564817 3.5541660013 
3.5960900196 3.6330970997 3.6659187711 3.0476902371 2.9654393563 2.8937201384 2.8312413375 2.7767288255 2.7290193058 
2.6870952876 2.6500882075 2.617266536 6.2831853072 6.2831853072 6.2831853072 6.2831853072 3.1415926536 3.1415926536 
3.1415926536 3.1415926536 3.1415926536 6.1053039672 5.898798347 5.6768734901 5.4599499503 5.2659633393 5.1032165617 
4.9713148346 4.8656852733 4.7809517865 0.17788134 0.38438696014 0.60631181711 0.82323535693 1.0172219679 1.1799687454 
1.3118704726 1.4175000338 1.5022335207 6.1892828907 6.1070320098 6.035312792 5.9728339911 5.9183214791 5.8706119594 
5.8286879411 5.7916808611 5.7588591896 0.093902416448 0.17615329733 0.2478725152 0.31035131605 0.36486382811 0.41257334776 
0.45449736604 0.4915044461 0.52432611754 3.3194739936 3.5259796137 3.7479044707 3.9648280105 4.1588146215 4.321561399 
4.4534631262 4.5590926874 4.6438261743 2.9637113136 2.7572056934 2.5352808365 2.3183572967 2.1243706857 1.9616239082 
1.829722181 1.7240926197 1.6393591329 3.23549507 3.3177459509 3.3894651688 3.4519439696 3.5064564817 3.5541660013 
3.5960900196 3.6330970997 3.6659187711 3.0476902371 2.9654393563 2.8937201384 2.8312413375 2.7767288255 2.7290193058 
2.6870952876 2.6500882075 2.617266536 4.7123889804 4.7123889804 4.7123889804 4.7123889804 4.7123889804 4.7123889804 
4.7123889804 4.7123889804 4.7123889804 4.6087898617 4.4991390697 4.3857031936 4.2712800401 4.1588146215 4.0509635631 
3.94975894 3.8564636551 3.7716124825 4.8159880991 4.9256388911 5.0390747672 5.1534979207 5.2659633393 5.3738143976 
5.4750190208 5.5683143056 5.6531654782 4.6087898617 4.4991390697 4.3857031936 4.2712800401 4.1588146215 4.0509635631 
3.94975894 3.8564636551 3.7716124825 4.8159880991 4.9256388911 5.0390747672 5.1534979207 5.2659633393 5.3738143976 
5.4750190208 5.5683143056 5.6531654782 1.5707963268 1.5707963268 1.5707963268 1.5707963268 1.5707963268 1.5707963268 
1.5707963268 1.5707963268 1.5707963268 1.6743954455 1.7840462375 1.8974821136 2.0119052671 2.1243706857 2.232221744 
2.3334263672 2.426721652 2.5115728246 1.4671972081 1.3575464161 1.24411054 1.1296873865 1.0172219679 0.90937090954 
0.80816628637 0.71487100155 0.63001982895 1.6743954455 1.7840462375 1.8974821136 2.0119052671 2.1243706857 2.232221744 
2.3334263672 2.426721652 2.5115728246 1.4671972081 1.3575464161 1.24411054 1.1296873865 1.0172219679 0.90937090954 
0.80816628637 0.71487100155 0.63001982895 3.6007720849 3.4966939854 3.3839471039 3.2645756454 3.1415926536 3.0186096618 
2.8992382033 2.7864913217 2.6824132222 5.8240058758 5.9280839753 6.0408308569 6.1602023154 6.2831853072 0.12298299178 
0.2423544503 0.35510133185 0.45917943135 6.0560271438 5.7885595667 5.9702140275 5.5125918794 5.6029703303 5.7885595667 
5.2659633393 5.2659633393 5.2659633393 5.2659633393 5.0674903122 5.0120975802 4.9155579264 4.7123889804 4.1588146215 
4.9155579264 4.8353719722 4.7123889804 4.5092200343 4.1588146215 3.6362183941 4.8004512023 4.7123889804 4.5894059886 
4.4126803806 4.1588146215 3.8218076305 3.4545639333 4.7123889804 4.6243267584 4.5092200343 4.3572876485 4.1588146215 
3.9121860814 3.6362183941 3.368750817 6.0174235957 5.9434319871 5.8263323547 5.8809213739 5.7674481418 5.6279784266 
5.8278025282 5.718968232 5.5891129425 5.4372443565 5.7823484065 5.678536687 5.5575666702 5.4192596322 5.2659633393 
5.743164462 5.6444075337 5.5314983644 5.4046708639 5.2659633393 5.1195510325 5.7091357773 5.6152775188 5.5096229709 
5.3926039573 5.2659633393 5.1329233157 4.9978930058 5.6793730533 5.5901633916 5.4910209005 5.3824597928 5.2659633393 
5.1440684722 5.0201624502 4.8979782167 5.5683143056 5.4750190208 5.4750190208 5.3738143976 5.3738143976 5.3738143976 
5.2659633393 5.2659633393 5.2659633393 5.2659633393 5.1534979207 5.1534979207 5.1534979207 5.1534979207 5.1534979207 
5.0390747672 5.0390747672 5.0390747672 5.0390747672 5.0390747672 5.0390747672 4.9256388911 4.9256388911 4.9256388911 
4.9256388911 4.9256388911 4.9256388911 4.9256388911 4.8159880991 4.8159880991 4.8159880991 4.8159880991 4.8159880991 
4.8159880991 4.8159880991 4.8159880991 4.6087898617 4.6087898617 4.4991390697 4.6087898617 4.4991390697 4.3857031936 
4.6087898617 4.4991390697 4.3857031936 4.2712800401 4.6087898617 4.4991390697 4.3857031936 4.2712800401 4.1588146215 
4.6087898617 4.4991390697 4.3857031936 4.2712800401 4.1588146215 4.0509635631 4.6087898617 4.4991390697 4.3857031936 
4.2712800401 4.1588146215 4.0509635631 3.94975894 4.6087898617 4.4991390697 4.3857031936 4.2712800401 4.1588146215 
4.0509635631 3.94975894 3.8564636551 4.526799744 4.4046155105 4.426884955 4.2807094886 4.2918546451 4.3052269283 
4.1588146215 4.1588146215 4.1588146215 4.1588146215 4.042318168 4.0321740035 4.0201070968 4.0055183285 3.9875336042 
3.9337570603 3.9151549899 3.8932795963 3.8672112905 3.8356650183 3.7967995342 3.8346145692 3.809500442 3.7803704271 
3.7462412737 3.7058097288 3.657329819 3.5984456061 3.7454049075 3.7156421835 3.6816134988 3.6424295543 3.5969754326 
3.5438565869 3.4813459737 3.4073543651 3.5642842451 3.4524645613 3.5233842518 3.3320300872 3.403123212 3.4773852225 
3.20576226 3.2746326772 3.348015857 3.4255060145 3.0774230472 3.1415926536 3.2112816139 3.2864685043 3.3668817272 
2.95115522 3.00855263 3.0719036933 3.1415926536 3.2178377658 3.3005964304 2.8307207459 2.8800620952 2.9351694502 
2.9967168029 3.0653475414 3.1415926536 3.225752376 2.718901062 2.7598010554 2.8058000847 2.8576792927 2.91630358 
2.9825888767 3.0574329311 3.1415926536 3.5642842451 3.5233842518 3.4524645613 3.4773852225 3.403123212 3.3320300872 
3.4255060145 3.348015857 3.2746326772 3.20576226 3.3668817272 3.2864685043 3.2112816139 3.1415926536 3.0774230472 
3.3005964304 3.2178377658 3.1415926536 3.0719036933 3.00855263 2.95115522 3.225752376 3.1415926536 3.0653475414 
2.9967168029 2.9351694502 2.8800620952 2.8307207459 3.1415926536 3.0574329311 2.9825888767 2.91630358 2.8576792927 
2.8058000847 2.7598010554 2.718901062 4.526799744 4.426884955 4.4046155105 4.3052269283 4.2918546451 4.2807094886 
4.1588146215 4.1588146215 4.1588146215 4.1588146215 3.9875336042 4.0055183285 4.0201070968 4.0321740035 4.042318168 
3.7967995342 3.8356650183 3.8672112905 3.8932795963 3.9151549899 3.9337570603 3.5984456061 3.657329819 3.7058097288 
3.7462412737 3.7803704271 3.809500442 3.8346145692 3.4073543651 3.4813459737 3.5438565869 3.5969754326 3.6424295543 
3.6816134988 3.7156421835 3.7454049075 4.7123889804 4.8004512023 4.6243267584 4.9155579264 4.7123889804 4.5092200343 
5.0674903122 4.8353719722 4.5894059886 4.3572876485 5.2659633393 5.0120975802 4.7123889804 4.4126803806 4.1588146215 
5.5125918794 5.2659633393 4.9155579264 4.5092200343 4.1588146215 3.9121860814 5.7885595667 5.6029703303 5.2659633393 
4.7123889804 4.1588146215 3.8218076305 3.6362183941 6.0560271438 5.9702140275 5.7885595667 5.2659633393 4.1588146215 
3.6362183941 3.4545639333 3.368750817 0.22715816343 0.49462574053 0.3129712797 0.77059342779 0.68021497688 0.49462574053 
1.0172219679 1.0172219679 1.0172219679 1.0172219679 1.2156949949 1.271087727 1.3676273807 1.5707963268 2.1243706857 
1.3676273807 1.447813335 1.5707963268 1.7739652728 2.1243706857 2.6469669131 1.4827341049 1.5707963268 1.6937793186 
1.8705049266 2.1243706857 2.4613776767 2.8286213739 1.5707963268 1.6588585487 1.7739652728 1.9258976586 2.1243706857 
2.3709992258 2.6469669131 2.9144344902 1.7563855631 1.8785697967 1.8563003522 2.0024758186 1.9913306621 1.9779583789 
2.1243706857 2.1243706857 2.1243706857 2.1243706857 2.2408671392 2.2510113037 2.2630782103 2.2776669786 2.295651703 
2.3494282469 2.3680303173 2.3899057108 2.4159740166 2.4475202889 2.486385773 2.448570738 2.4736848652 2.5028148801 
2.5369440334 2.5773755784 2.6258554882 2.6847397011 2.5377803997 2.5675431237 2.6015718084 2.6407557529 2.6862098746 
2.7393287203 2.8018393335 2.8758309421 1.6743954455 1.6743954455 1.7840462375 1.6743954455 1.7840462375 1.8974821136 
1.6743954455 1.7840462375 1.8974821136 2.0119052671 1.6743954455 1.7840462375 1.8974821136 2.0119052671 2.1243706857 
1.6743954455 1.7840462375 1.8974821136 2.0119052671 2.1243706857 2.232221744 1.6743954455 1.7840462375 1.8974821136 
2.0119052671 2.1243706857 2.232221744 2.3334263672 1.6743954455 1.7840462375 1.8974821136 2.0119052671 2.1243706857 
2.232221744 2.3334263672 2.426721652 1.4671972081 1.3575464161 1.4671972081 1.24411054 1.3575464161 1.4671972081 
1.1296873865 1.24411054 1.3575464161 1.4671972081 1.0172219679 1.1296873865 1.24411054 1.3575464161 1.4671972081 
0.90937090954 1.0172219679 1.1296873865 1.24411054 1.3575464161 1.4671972081 0.80816628637 0.90937090954 1.0172219679 
1.1296873865 1.24411054 1.3575464161 1.4671972081 0.71487100155 0.80816628637 0.90937090954 1.0172219679 1.1296873865 
1.24411054 1.3575464161 1.4671972081 0.60381225391 0.57404952988 0.69302191562 0.54002084522 0.66790778838 0.79216440667 
0.50083690068 0.63877777351 0.77356233629 0.90072551443 0.45538277901 0.60464862014 0.75168694275 0.89058134991 1.0172219679 
0.40226393329 0.56421707518 0.72561863695 0.87851444325 1.0172219679 1.139116835 0.33975332011 0.51573716537 0.69407236469 
0.86392567495 1.0172219679 1.1502619915 1.2630228569 0.26576171152 0.45685295248 0.6552068806 0.84594095064 1.0172219679 
1.1636342747 1.2852923014 1.3852070904 0.22715816343 0.3129712797 0.49462574053 0.49462574053 0.68021497688 0.77059342779 
1.0172219679 1.0172219679 1.0172219679 1.0172219679 2.1243706857 1.5707963268 1.3676273807 1.271087727 1.2156949949 
2.6469669131 2.1243706857 1.7739652728 1.5707963268 1.447813335 1.3676273807 2.8286213739 2.4613776767 2.1243706857 
1.8705049266 1.6937793186 1.5707963268 1.4827341049 2.9144344902 2.6469669131 2.3709992258 2.1243706857 1.9258976586 
1.7739652728 1.6588585487 1.5707963268 1.7563855631 1.8563003522 1.8785697967 1.9779583789 1.9913306621 2.0024758186 
2.1243706857 2.1243706857 2.1243706857 2.1243706857 2.295651703 2.2776669786 2.2630782103 2.2510113037 2.2408671392 
2.486385773 2.4475202889 2.4159740166 2.3899057108 2.3680303173 2.3494282469 2.6847397011 2.6258554882 2.5773755784 
2.5369440334 2.5028148801 2.4736848652 2.448570738 2.8758309421 2.8018393335 2.7393287203 2.6862098746 2.6407557529 
2.6015718084 2.5675431237 2.5377803997 5.8604937156 5.901393709 5.9723133995 5.9473927383 6.0216547488 6.0927478736 
5.9992719463 6.0767621038 6.1501452836 6.2190157008 6.0578962336 6.1383094565 6.2134963469 0 0.064169606361 
6.1241815303 6.206940195 6.2831853072 0.069688960264 0.13304002361 0.19043743361 6.1990255847 0 0.07624511221 
0.14487585072 0.20642320337 0.26153055843 0.3108719077 0 0.084159722458 0.15900377685 0.22528907359 0.28391336087 
0.3357925689 0.38179159818 0.42269159155 5.8604937156 5.9723133995 5.901393709 6.0927478736 6.0216547488 5.9473927383 
6.2190157008 6.1501452836 6.0767621038 5.9992719463 0.064169606361 0 6.2134963469 6.1383094565 6.0578962336 
0.19043743361 0.13304002361 0.069688960264 6.2831853072 6.206940195 6.1241815303 0.3108719077 0.26153055843 0.20642320337 
0.14487585072 0.07624511221 6.2831853072 6.1990255847 0.42269159155 0.38179159818 0.3357925689 0.28391336087 0.22528907359 
0.15900377685 0.084159722458 0 5.6793730533 5.7091357773 5.5901633916 5.743164462 5.6152775188 5.4910209005 
5.7823484065 5.6444075337 5.5096229709 5.3824597928 5.8278025282 5.678536687 5.5314983644 5.3926039573 5.2659633393 
5.8809213739 5.718968232 5.5575666702 5.4046708639 5.2659633393 5.1440684722 5.9434319871 5.7674481418 5.5891129425 
5.4192596322 5.2659633393 5.1329233157 5.0201624502 6.0174235957 5.8263323547 5.6279784266 5.4372443565 5.2659633393 
5.1195510325 4.9978930058 4.8979782167 1.3852070904 1.2852923014 1.2630228569 1.1636342747 1.1502619915 1.139116835 
1.0172219679 1.0172219679 1.0172219679 1.0172219679 0.84594095064 0.86392567495 0.87851444325 0.89058134991 0.90072551443 
0.6552068806 0.69407236469 0.72561863695 0.75168694275 0.77356233629 0.79216440667 0.45685295248 0.51573716537 0.56421707518 
0.60464862014 0.63877777351 0.66790778838 0.69302191562 0.26576171152 0.33975332011 0.40226393329 0.45538277901 0.50083690068 
0.54002084522 0.57404952988 0.60381225391 
_paraPhiHalf 1 1002 double
0 3.1415926536 0 3.1415926536 1.5707963268 1.5707963268 1.5707963268 1.5707963268 2.5880182947 
0.5535743589 2.5880182947 0.5535743589 0 0 0 0 3.1415926536 3.1415926536 
3.1415926536 3.1415926536 3.1415926536 0.17788134 0.38438696014 0.60631181711 0.82323535693 1.0172219679 1.1799687454 
1.3118704726 1.4175000338 1.5022335207 0.17788134 0.38438696014 0.60631181711 0.82323535693 1.0172219679 1.1799687454 
1.3118704726 1.4175000338 1.5022335207 0.093902416448 0.17615329733 0.2478725152 0.31035131605 0.36486382811 0.41257334776 
0.45449736604 0.4915044461 0.52432611754 0.093902416448 0.17615329733 0.2478725152 0.31035131605 0.36486382811 0.41257334776 
0.45449736604 0.4915044461 0.52432611754 2.9637113136 2.7572056934 2.5352808365 2.3183572967 2.1243706857 1.9616239082 
1.829722181 1.7240926197 1.6393591329 2.9637113136 2.7572056934 2.5352808365 2.3183572967 2.1243706857 1.9616239082 
1.829722181 1.7240926197 1.6393591329 3.0476902371 2.9654393563 2.8937201384 2.8312413375 2.7767288255 2.7290193058 
2.6870952876 2.6500882075 2.617266536 3.0476902371 2.9654393563 2.8937201384 2.8312413375 2.7767288255 2.7290193058 
2.6870952876 2.6500882075 2.617266536 0 0 0 0 3.1415926536 3.1415926536 
3.1415926536 3.1415926536 3.1415926536 0.17788134 0.38438696014 0.60631181711 0.82323535693 1.0172219679 1.1799687454 
1.3118704726 1.4175000338 1.5022335207 0.17788134 0.38438696014 0.60631181711 0.82323535693 1.0172219679 1.1799687454 
1.3118704726 1.4175000338 1.5022335207 0.093902416448 0.17615329733 0.2478725152 0.31035131605 0.36486382811 0.41257334776 
0.45449736604 0.4915044461 0.52432611754 0.093902416448 0.17615329733 0.2478725152 0.31035131605 0.36486382811 0.41257334776 
0.45449736604 0.4915044461 0.52432611754 2.9637113136 2.7572056934 2.5352808365 2.3183572967 2.1243706857 1.9616239082 
1.829722181 1.7240926197 1.6393591329 2.9637113136 2.7572056934 2.5352808365 2.3183572967 2.1243706857 1.9616239082 
1.829722181 1.7240926197 1.6393591329 3.0476902371 2.9654393563 2.8937201384 2.8312413375 2.7767288255 2.7290193058 
2.6870952876 2.6500882075 2.617266536 3.0476902371 2.9654393563 2.8937201384 2.8312413375 2.7767288255 2.7290193058 
2.6870952876 2.6500882075 2.617266536 1.5707963268 1.5707963268 1.5707963268 1.5707963268 1.5707963268 1.5707963268 
1.5707963268 1.5707963268 1.5707963268 1.6743954455 1.7840462375 1.8974821136 2.0119052671 2.1243706857 2.232221744 
2.3334263672 2.426721652 2.5115728246 1.4671972081 1.3575464161 1.24411054 1.1296873865 1.0172219679 0.90937090954 
0.80816628637 0.71487100155 0.63001982895 1.6743954455 1.7840462375 1.8974821136 2.0119052671 2.1243706857 2.232221744 
2.3334263672 2.426721652 2.5115728246 1.4671972081 1.3575464161 1.24411054 1.1296873865 1.0172219679 0.90937090954 
0.80816628637 0.71487100155 0.63001982895 1.5707963268 1.5707963268 1.5707963268 1.5707963268 1.5707963268 1.5707963268 
1.5707963268 1.5707963268 1.5707963268 1.6743954455 1.7840462375 1.8974821136 2.0119052671 2.1243706857 2.232221744 
2.3334263672 2.426721652 2.5115728246 1.4671972081 1.3575464161 1.24411054 1.1296873865 1.0172219679 0.90937090954 
0.80816628637 0.71487100155 0.63001982895 1.6743954455 1.7840462375 1.8974821136 2.0119052671 2.1243706857 2.232221744 
2.3334263672 2.426721652 2.5115728246 1.4671972081 1.3575464161 1.24411054 1.1296873865 1.0172219679 0.90937090954 
0.80816628637 0.71487100155 0.63001982895 2.6824132222 2.7864913217 2.8992382033 3.0186096618 3.1415926536 3.0186096618 
2.8992382033 2.7864913217 2.6824132222 0.45917943135 0.35510133185 0.2423544503 0.12298299178 0 0.12298299178 
0.2423544503 0.35510133185 0.45917943135 0.22715816343 0.49462574053 0.3129712797 0.77059342779 0.68021497688 0.49462574053 
1.0172219679 1.0172219679 1.0172219679 1.0172219679 1.2156949949 1.271087727 1.3676273807 1.5707963268 2.1243706857 
1.3676273807 1.447813335 1.5707963268 1.7739652728 2.1243706857 2.6469669131 1.4827341049 1.5707963268 1.6937793186 
1.8705049266 2.1243706857 2.4613776767 2.8286213739 1.5707963268 1.6588585487 1.7739652728 1.9258976586 2.1243706857 
2.3709992258 2.6469669131 2.9144344902 0.26576171152 0.33975332011 0.45685295248 0.40226393329 0.51573716537 0.6552068806 
0.45538277901 0.56421707518 0.69407236469 0.84594095064 0.50083690068 0.60464862014 0.72561863695 0.86392567495 1.0172219679 
0.54002084522 0.63877777351 0.75168694275 0.87851444325 1.0172219679 1.1636342747 0.57404952988 0.66790778838 0.77356233629 
0.89058134991 1.0172219679 1.1502619915 1.2852923014 0.60381225391 0.69302191562 0.79216440667 0.90072551443 1.0172219679 
1.139116835 1.2630228569 1.3852070904 0.71487100155 0.80816628637 0.80816628637 0.90937090954 0.90937090954 0.90937090954 
1.0172219679 1.0172219679 1.0172219679 1.0172219679 1.1296873865 1.1296873865 1.1296873865 1.1296873865 1.1296873865 
1.24411054 1.24411054 1.24411054 1.24411054 1.24411054 1.24411054 1.3575464161 1.3575464161 1.3575464161 
1.3575464161 1.3575464161 1.3575464161 1.3575464161 1.4671972081 1.4671972081 1.4671972081 1.4671972081 1.4671972081 
1.4671972081 1.4671972081 1.4671972081 1.6743954455 1.6743954455 1.7840462375 1.6743954455 1.7840462375 1.8974821136 
1.6743954455 1.7840462375 1.8974821136 2.0119052671 1.6743954455 1.7840462375 1.8974821136 2.0119052671 2.1243706857 
1.6743954455 1.7840462375 1.8974821136 2.0119052671 2.1243706857 2.232221744 1.6743954455 1.7840462375 1.8974821136 
2.0119052671 2.1243706857 2.232221744 2.3334263672 1.6743954455 1.7840462375 1.8974821136 2.0119052671 2.1243706857 
2.232221744 2.3334263672 2.426721652 1.7563855631 1.8785697967 1.8563003522 2.0024758186 1.9913306621 1.9779583789 
2.1243706857 2.1243706857 2.1243706857 2.1243706857 2.2408671392 2.2510113037 2.2630782103 2.2776669786 2.295651703 
2.3494282469 2.3680303173 2.3899057108 2.4159740166 2.4475202889 2.486385773 2.448570738 2.4736848652 2.5028148801 
2.5369440334 2.5773755784 2.6258554882 2.6847397011 2.5377803997 2.5675431237 2.6015718084 2.6407557529 2.6862098746 
2.7393287203 2.8018393335 2.8758309421 2.718901062 2.8307207459 2.7598010554 2.95115522 2.8800620952 2.8058000847 
3.0774230472 3.00855263 2.9351694502 2.8576792927 3.0774230472 3.1415926536 3.0719036933 2.9967168029 2.91630358 
2.95115522 3.00855263 3.0719036933 3.1415926536 3.0653475414 2.9825888767 2.8307207459 2.8800620952 2.9351694502 
2.9967168029 3.0653475414 3.1415926536 3.0574329311 2.718901062 2.7598010554 2.8058000847 2.8576792927 2.91630358 
2.9825888767 3.0574329311 3.1415926536 2.718901062 2.7598010554 2.8307207459 2.8058000847 2.8800620952 2.95115522 
2.8576792927 2.9351694502 3.00855263 3.0774230472 2.91630358 2.9967168029 3.0719036933 3.1415926536 3.0774230472 
2.9825888767 3.0653475414 3.1415926536 3.0719036933 3.00855263 2.95115522 3.0574329311 3.1415926536 3.0653475414 