# vtk DataFile Version 5.1
vtk output
ASCII
DATASET POLYDATA
POINTS 1002 float
-5.16692 -0.134554 -5.09711 4.63571 0.239461 -2.75304 -5.30515 0.307567 5.06815 
4.5749 -0.290428 2.84943 0.593532 6.48544 -2.87743 0.436077 6.8539 3.29483 
0.350083 -6.89866 -3.27579 0.818782 -6.26228 2.59726 9.21035 4.99842 -0.00403786 
-9.41098 4.00151 -0.616191 8.52536 -4.83885 0.448985 -8.79096 -4.09649 0.529093 
-4.29891 -0.223206 -5.2423 -3.34427 -0.291082 -5.26768 -2.30792 -0.340744 -5.09462 
-1.21132 -0.357815 -4.73493 -0.093961 -0.315091 -4.28794 0.998535 -0.217235 -3.83029 
2.03233 -0.100917 -3.40196 2.99135 0.0139133 -3.06469 3.86402 0.128718 -2.85909 
-4.93507 0.444548 -5.00309 -4.60209 1.07998 -4.84422 -4.16041 1.75986 -4.60018 
-3.59926 2.46714 -4.25226 -2.90802 3.19159 -3.81679 -2.11824 3.9225 -3.38013 
-1.31994 4.63579 -3.06353 -0.596435 5.30834 -2.92071 0.033639 5.92927 -2.89359 
-4.80961 -0.781678 -5.25572 -4.37265 -1.50499 -5.35666 -3.83398 -2.29958 -5.37206 
-3.20233 -3.13451 -5.29723 -2.53695 -3.96229 -5.13545 -1.89811 -4.74261 -4.87435 
-1.29522 -5.44198 -4.50916 -0.71399 -6.03159 -4.08146 -0.159368 -6.50867 -3.65751 
-5.92666 0.337658 -4.84754 -6.7705 0.867604 -4.54429 -7.62658 1.41689 -4.18868 
-8.40222 1.94158 -3.76287 -9.0772 2.44726 -3.28144 -9.66592 2.9664 -2.80075 
-10.0749 3.45823 -2.33237 -10.1536 3.81431 -1.82096 -9.88629 3.97985 -1.23616 
-5.79851 -0.420433 -4.99779 -6.42798 -0.723268 -4.8155 -7.02964 -1.05462 -4.47722 
-7.56184 -1.41646 -3.8938 -7.968 -1.78632 -3.09015 -8.23488 -2.16206 -2.23592 
-8.42653 -2.59484 -1.46634 -8.60327 -3.11199 -0.770188 -8.74481 -3.64747 -0.0996924 
4.46418 0.856624 -2.74323 4.22904 1.53122 -2.73404 3.92982 2.23975 -2.75171 
3.55557 2.95943 -2.80731 3.0954 3.67974 -2.89941 2.57384 4.38716 -3.02356 
2.04388 5.04673 -3.14422 1.5373 5.62135 -3.18618 1.0544 6.09853 -3.09416 
4.30467 -0.438305 -2.80936 3.91522 -1.17435 -2.87135 3.47402 -1.96369 -2.95305 
3.00991 -2.78613 -3.10797 2.55653 -3.61213 -3.35608 2.11685 -4.41803 -3.604 
1.67033 -5.17752 -3.72367 1.21372 -5.85444 -3.68037 0.767135 -6.42631 -3.51692 
5.29388 0.733287 -2.6882 5.99854 1.27557 -2.6419 6.74518 1.85743 -2.59827 
7.5426 2.49462 -2.55792 8.36671 3.20763 -2.50827 9.09805 3.93719 -2.35288 
9.56949 4.53339 -1.96376 9.70012 4.88554 -1.34254 9.54212 5.01068 -0.63776 
5.16517 -0.0757909 -2.6899 5.68047 -0.434253 -2.56991 6.17765 -0.849001 -2.38807 
6.66388 -1.32741 -2.18888 7.12762 -1.8492 -1.98606 7.5376 -2.38626 -1.69858 
7.87926 -2.94907 -1.25399 8.16083 -3.5677 -0.693635 8.38213 -4.22343 -0.108512 
-4.3688 0.379145 4.99407 -3.34534 0.428359 4.81713 -2.26036 0.459996 4.57156 
-1.15438 0.45633 4.31349 -0.0588867 0.386503 4.05745 1.01171 0.251689 3.77055 
2.03764 0.0896884 3.46074 2.98736 -0.0634624 3.19158 3.83602 -0.191153 2.99585 
-4.96002 0.955319 5.18972 -4.51555 1.65503 5.23955 -3.96856 2.39101 5.19994 
-3.33178 3.15853 5.07414 -2.63549 3.94928 4.89417 -1.92727 4.72173 4.68662 
-1.25442 5.41335 4.43093 -0.638736 5.99025 4.09646 -0.0775425 6.46239 3.7015 
-5.00683 -0.283793 4.86384 -4.61454 -0.91582 4.57425 -4.13189 -1.57516 4.21564 
-3.54525 -2.27103 3.83586 -2.83475 -3.00903 3.48524 -2.02379 -3.756 3.18437 
-1.19478 -4.46592 2.94354 -0.431294 -5.12164 2.77773 0.236036 -5.72303 2.67657 
-6.02496 0.605173 5.13849 -6.75431 0.893642 5.07984 -7.46081 1.18205 4.81402 
-8.10588 1.51291 4.27276 -8.62743 1.90185 3.47876 -8.97308 2.30673 2.56633 
-9.16908 2.70421 1.66546 -9.29552 3.12631 0.820699 -9.38687 3.57919 0.0481175 
-6.07582 -0.15894 4.93873 -6.90115 -0.682076 4.70083 -7.71955 -1.23265 4.36071 
-8.4344 -1.77728 3.94174 -8.97997 -2.30714 3.47489 -9.35206 -2.83697 2.98229 
-9.53964 -3.34779 2.45006 -9.49688 -3.76089 1.84597 -9.22105 -4.0077 1.18337 
4.24991 0.372871 2.87171 3.87874 1.10097 2.92711 3.46333 1.88999 3.0308 
3.00612 2.71855 3.16981 2.51589 3.55347 3.29822 2.02148 4.35791 3.38236 
1.56127 5.10017 3.43394 1.15086 5.76589 3.46297 0.779861 6.35299 3.43259 
4.43985 -0.897968 2.92192 4.27539 -1.5509 2.98933 4.06828 -2.23447 3.04022 
3.78665 -2.94178 3.07995 3.40278 -3.65279 3.123 2.92702 -4.31908 3.15689 
2.40134 -4.90509 3.13674 1.86343 -5.41746 3.02856 1.33248 -5.87094 2.83817 
5.0862 0.0414747 2.71011 5.62117 0.427267 2.54071 6.18324 0.869545 2.34776 
6.77918 1.38285 2.15528 7.3939 1.98045 1.97308 7.97709 2.63746 1.76833 
8.4699 3.29604 1.48875 8.84029 3.91788 1.09798 9.08489 4.49213 0.589516 
5.2047 -0.764819 2.75737 5.86517 -1.31079 2.65853 6.54852 -1.93288 2.5717 
7.24889 -2.60944 2.5306 7.92714 -3.30198 2.50397 8.49419 -3.95939 2.37081 
8.85524 -4.49839 2.04029 8.96245 -4.82666 1.5459 8.83068 -4.91848 0.988395 
0.651374 7.03114 -2.61754 0.720773 7.56893 -2.19291 0.791839 8.02937 -1.62078 
0.841268 8.34995 -0.955467 0.851627 8.5052 -0.218604 0.821561 8.48292 0.602157 
0.753977 8.26379 1.46023 0.654891 7.86584 2.23888 0.542058 7.36701 2.85204 
1.44744 6.77134 -2.97682 2.40086 6.99482 -2.97974 3.45426 7.12462 -2.84438 
4.58106 7.1582 -2.59879 5.72398 7.11618 -2.30409 6.79422 6.99438 -1.96676 
7.69717 6.73575 -1.53993 8.38549 6.28993 -1.02028 8.87537 5.6827 -0.480657 
-0.24043 6.47824 -2.60201 -1.19636 6.39463 -2.28682 -2.27013 6.24286 -1.9923 
-3.43322 6.08075 -1.76394 -4.64086 5.96929 -1.61169 -5.84244 5.86458 -1.50762 
-6.97465 5.62851 -1.39243 -7.96609 5.18874 -1.20988 -8.77497 4.60946 -0.944679 
1.16724 6.90174 2.99165 1.97846 6.88526 2.65269 2.88043 6.79398 2.28589 
3.86341 6.62736 1.87992 4.88941 6.4081 1.45386 5.91276 6.16883 1.07647 
6.89595 5.92309 0.787617 7.79963 5.65805 0.545699 8.58097 5.35272 0.287919 
-0.247366 7.04844 3.28275 -1.02975 7.11435 3.10864 -1.90347 6.9746 2.75679 
-2.87213 6.61368 2.2873 -3.95687 6.11994 1.78659 -5.13515 5.61824 1.29221 
-6.31934 5.16554 0.79481 -7.43888 4.7515 0.293688 -8.47607 4.36273 -0.186016 
0.402386 -7.39663 -2.83024 0.448366 -7.89967 -2.24274 0.48805 -8.33493 -1.501 
0.546731 -8.5811 -0.668391 0.643983 -8.54991 0.143347 0.751371 -8.2705 0.858929 
0.821464 -7.84429 1.46526 0.844312 -7.34425 1.96161 0.839288 -6.80532 2.33767 
1.10828 -6.98153 -3.07384 1.9105 -7.03198 -2.82817 2.74592 -6.99409 -2.4926 
3.62016 -6.80106 -2.0472 4.52946 -6.45936 -1.53782 5.45017 -6.07229 -1.04099 
6.35557 -5.73716 -0.599025 7.20771 -5.45507 -0.210981 7.94744 -5.16848 0.136391 
-0.388879 -7.09821 -3.19858 -1.19507 -7.25652 -3.05424 -2.05396 -7.29793 -2.8056 
-2.9806 -7.12004 -2.41515 -3.98749 -6.69011 -1.90373 -5.0359 -6.10807 -1.35576 
-6.06371 -5.52097 -0.840457 -7.04157 -4.99979 -0.363904 -7.95936 -4.53413 0.0924504 
1.72191 -6.54842 2.67464 2.72455 -6.83352 2.73002 3.81156 -7.10586 2.71811 
4.91519 -7.33391 2.61669 5.9326 -7.44323 2.42096 6.78213 -7.34047 2.11925 
7.44016 -6.97601 1.71654 7.92755 -6.37714 1.26518 8.27841 -5.63037 0.831376 
-0.0834139 -6.2962 2.38879 -1.12416 -6.30629 2.1809 -2.29066 -6.30502 1.98627 
-3.50047 -6.30387 1.81287 -4.64477 -6.27049 1.66486 -5.68167 -6.1255 1.52749 
-6.63262 -5.80922 1.36255 -7.49349 -5.32881 1.13732 -8.22094 -4.73701 0.85123 
9.69631 4.25638 0.0588044 10.1017 3.35745 0.0889041 10.3481 2.32715 0.102936 
10.3688 1.20722 0.137211 10.1839 0.0490084 0.205786 9.90195 -1.09198 0.281961 
9.60788 -2.17348 0.3379 9.29762 -3.17244 0.376099 8.9373 -4.06836 0.411526 
-10.32 3.39625 -0.621406 -11.2318 2.73375 -0.555132 -12.0141 1.97262 -0.390797 
-12.4703 1.08384 -0.13819 -12.4553 0.114354 0.143087 -11.9995 -0.846274 0.378887 
-11.2737 -1.75192 0.526703 -10.4438 -2.6013 0.584762 -9.60162 -3.38855 0.575744 
-3.97828 0.390836 -5.10569 -3.56334 1.06125 -4.86963 -2.94316 0.357175 -5.04583 
-3.05135 1.77742 -4.51961 -2.45695 1.06604 -4.70254 -1.83578 0.344155 -4.76887 
-2.42384 2.53013 -4.0727 -1.87746 1.82963 -4.2523 -1.28271 1.0996 -4.33917 
-0.673665 0.369545 -4.34315 -1.67916 3.31088 -3.60751 -1.18766 2.63742 -3.76536 
-0.637452 1.91317 -3.85266 -0.0603163 1.16567 -3.8886 0.496047 0.445333 -3.8829 
-0.886173 4.09155 -3.24972 -0.422211 3.46308 -3.36532 0.0895215 2.75799 -3.41851 
0.627541 2.00333 -3.44189 1.14497 1.25324 -3.45446 1.61607 0.549457 -3.44555 
-0.14712 4.82957 -3.08193 0.320966 4.25759 -3.15475 0.822294 3.59027 -3.15429 
1.34339 2.8487 -3.12541 1.8354 2.08475 -3.10235 2.27132 1.34786 -3.09062 
2.65699 0.656486 -3.08168 0.493192 5.50072 -3.06848 0.971948 4.98018 -3.12957 
1.47757 4.36074 -3.08802 2.00408 3.65658 -3.00165 2.50536 2.91001 -2.92311 
2.93732 2.16502 -2.87023 3.30095 1.44455 -2.84723 3.61098 0.760853 -2.85024 
-5.7017 0.966669 -4.73569 -6.52983 1.54245 -4.42058 -5.34217 1.65248 -4.56768 
-7.32741 2.11763 -4.05203 -6.11004 2.26631 -4.2398 -4.83369 2.37456 -4.31521 
-8.01758 2.65148 -3.60132 -6.81395 2.85835 -3.84164 -5.50246 3.01366 -3.96105 
-4.1692 3.10813 -3.94648 -8.60072 3.17685 -3.09214 -7.40095 3.40757 -3.35002 
-6.09349 3.61654 -3.5157 -4.71885 3.75276 -3.55262 -3.36276 3.83631 -3.48721 
-9.05342 3.72449 -2.58867 -7.86338 3.96572 -2.81293 -6.56507 4.18255 -2.98632 
-5.19642 4.34745 -3.07029 -3.80573 4.45699 -3.0733 -2.48594 4.54538 -3.05588 
-9.25692 4.21131 -2.09068 -8.14803 4.52871 -2.29219 -6.89149 4.75277 -2.44031 
-5.5583 4.90024 -2.53876 -4.19399 5.01315 -2.59922 -2.86058 5.12164 -2.66462 
-1.64419 5.2258 -2.7753 -9.13807 4.51395 -1.54537 -8.17805 4.97125 -1.77134 
-7.03276 5.27725 -1.91772 -5.77636 5.4283 -2.01396 -4.4787 5.5172 -2.10332 
-3.19227 5.63082 -2.22759 -1.97914 5.76596 -2.41486 -0.89716 5.87488 -2.65441 
-7.7675 5.04677 -0.504727 -6.64001 5.46706 -0.012714 -6.89083 5.67297 -0.764725 
-5.42575 5.87703 0.493629 -5.69355 6.09199 -0.271652 -5.84824 6.1069 -0.94644 
-4.18002 6.33078 0.987146 -4.42777 6.49926 0.220403 -4.61888 6.52682 -0.477941 
-4.69089 6.3339 -1.08759 -2.99803 6.84324 1.47407 -3.17373 6.98431 0.681878 
-3.35319 6.99681 -0.0426157 -3.46854 6.83131 -0.692635 -3.49354 6.49823 -1.26779 
-1.94389 7.30175 1.95976 -2.02055 7.50754 1.12633 -2.13435 7.5566 0.344508 
-2.24384 7.43028 -0.356808 -2.31213 7.13129 -0.986343 -2.32292 6.7097 -1.53695 
-1.01173 7.55294 2.39556 -1.0053 7.88783 1.565 -1.03357 8.05343 0.719314 
[...]
POINT_DATA 1002
FIELD FieldData 4
_paraPhi 1 1002 double
6.2831853072 3.1415926536 6.2831853072 3.1415926536 4.7123889804 4.7123889804 1.5707963268 1.5707963268 3.6951670125 
5.7296109483 2.5880182947 0.5535743589 6.2831853072 6.2831853072 6.2831853072 6.2831853072 3.1415926536 3.1415926536 
3.1415926536 3.1415926536 3.1415926536 6.1053039672 5.898798347 5.6768734901 5.4599499503 5.2659633393 5.1032165617 
4.9713148346 4.8656852733 4.7809517865 0.17788134 0.38438696014 0.60631181711 0.82323535693 1.0172219679 1.1799687454 
1.3118704726 1.4175000338 1.5022335207 6.1892828907 6.1070320098 6.035312792 5.9728339911 5.9183214791 5.8706119594 
5.8286879411 5.7916808611 5.7588591896 0.093902416448 0.17615329733 0.2478725152 0.31035131605 0.36486382811 0.41257334776 
0.45449736604 0.4915044461 0.52432611754 3.3194739936 3.5259796137 3.7479044707 3.9648280105 4.1588146215 4.321561399 
4.4534631262 4.5590926874 4.6438261743 2.9637113136 2.7572056934 2.5352808365 2.3183572967 2.1243706857 1.9616239082 
1.829722181 1.7240926197 1.6393591329 3.23549507 3.3177459509 3.3894651688 3.4519439696 3.5064564817 3.5541660013 
3.5960900196 3.6330970997 3.6659187711 3.0476902371 2.9654393563 2.8937201384 2.8312413375 2.7767288255 2.7290193058 
2.6870952876 2.6500882075 2.617266536 6.2831853072 6.2831853072 6.2831853072 6.2831853072 3.1415926536 3.1415926536 
3.1415926536 3.1415926536 3.1415926536 6.1053039672 5.898798347 5.6768734901 5.4599499503 5.2659633393 5.1032165617 
4.9713148346 4.8656852733 4.7809517865 0.17788134 0.38438696014 0.60631181711 0.82323535693 1.0172219679 1.1799687454 
1.3118704726 1.4175000338 1.5022335207 6.1892828907 6.1070320098 6.035312792 5.9728339911 5.9183214791 5.8706119594 
5.8286879411 5.7916808611 5.7588591896 0.093902416448 0.17615329733 0.2478725152 0.31035131605 0.36486382811 0.41257334776 
0.45449736604 0.4915044461 0.52432611754 3.3194739936 3.5259796137 3.7479044707 3.9648280105 4.1588146215 4.321561399 
4.4534631262 4.5590926874 4.6438261743 2.9637113136 2.7572056934 2.5352808365 2.3183572967 2.1243706857 1.9616239082 
1.829722181 1.7240926197 1.6393591329 3.23549507 3.3177459509 3.3894651688 3.4519439696 3.5064564817 3.5541660013 
3.5960900196 3.6330970997 3.6659187711 3.0476902371 2.9654393563 2.8937201384 2.8312413375 2.7767288255 2.7290193058 
2.6870952876 2.6500882075 2.617266536 4.7123889804 4.7123889804 4.7123889804 4.7123889804 4.7123889804 4.7123889804 
4.7123889804 4.7123889804 4.7123889804 4.6087898617 4.4991390697 4.3857031936 4.2712800401 4.1588146215 4.0509635631 
3.94975894 3.8564636551 3.7716124825 4.8159880991 4.9256388911 5.0390747672 5.1534979207 5.2659633393 5.3738143976 
5.4750190208 5.5683143056 5.6531654782 4.6087898617 4.4991390697 4.3857031936 4.2712800401 4.1588146215 4.0509635631 
3.94975894 3.8564636551 3.7716124825 4.8159880991 4.9256388911 5.0390747672 5.1534979207 5.2659633393 5.3738143976 
5.4750190208 5.5683143056 5.6531654782 1.5707963268 1.5707963268 1.5707963268 1.5707963268 1.5707963268 1.5707963268 
1.5707963268 1.5707963268 1.5707963268 1.6743954455 1.7840462375 1.8974821136 2.0119052671 2.1243706857 2.232221744 
2.3334263672 2.426721652 2.5115728246 1.4671972081 1.3575464161 1.24411054 1.1296873865 1.0172219679 0.90937090954 
0.80816628637 0.71487100155 0.63001982895 1.6743954455 1.7840462375 1.8974821136 2.0119052671 2.1243706857 2.232221744 
2.3334263672 2.426721652 2.5115728246 1.4671972081 1.3575464161 1.24411054 1.1296873865 1.0172219679 0.90937090954 
0.80816628637 0.71487100155 0.63001982895 3.6007720849 3.4966939854 3.3839471039 3.2645756454 3.1415926536 3.0186096618 
2.8992382033 2.7864913217 2.6824132222 5.8240058758 5.9280839753 6.0408308569 6.1602023154 6.2831853072 0.12298299178 
0.2423544503 0.35510133185 0.45917943135 6.0560271438 5.7885595667 5.9702140275 5.5125918794 5.6029703303 5.7885595667 
5.2659633393 5.2659633393 5.2659633393 5.2659633393 5.0674903122 5.0120975802 4.9155579264 4.7123889804 4.1588146215 
4.9155579264 4.8353719722 4.7123889804 4.5092200343 4.1588146215 3.6362183941 4.8004512023 4.7123889804 4.5894059886 
4.4126803806 4.1588146215 3.8218076305 3.4545639333 4.7123889804 4.6243267584 4.5092200343 4.3572876485 4.1588146215 
3.9121860814 3.6362183941 3.368750817 6.0174235957 5.9434319871 5.8263323547 5.8809213739 5.7674481418 5.6279784266 
5.8278025282 5.718968232 5.5891129425 5.4372443565 5.7823484065 5.678536687 5.5575666702 5.4192596322 5.2659633393 
5.743164462 5.6444075337 5.5314983644 5.4046708639 5.2659633393 5.1195510325 5.7091357773 5.6152775188 5.5096229709 
5.3926039573 5.2659633393 5.1329233157 4.9978930058 5.6793730533 5.5901633916 5.4910209005 5.3824597928 5.2659633393 
5.1440684722 5.0201624502 4.8979782167 5.5683143056 5.4750190208 5.4750190208 5.3738143976 5.3738143976 5.3738143976 
5.2659633393 5.2659633393 5.2659633393 5.2659633393 5.1534979207 5.1534979207 5.1534979207 5.1534979207 5.1534979207 
5.0390747672 5.0390747672 5.0390747672 5.0390747672 5.0390747672 5.0390747672 4.9256388911 4.9256388911 4.9256388911 
4.9256388911 4.9256388911 4.9256388911 4.9256388911 4.8159880991 4.8159880991 4.8159880991 4.8159880991 4.8159880991 
4.8159880991 4.8159880991 4.8159880991 4.6087898617 4.6087898617 4.4991390697 4.6087898617 4.4991390697 4.3857031936 
4.6087898617 4.4991390697 4.3857031936 4.2712800401 4.6087898617 4.4991390697 4.3857031936 4.2712800401 4.1588146215 
4.6087898617 4.4991390697 4.3857031936 4.2712800401 4.1588146215 4.0509635631 4.6087898617 4.4991390697 4.3857031936 
4.2712800401 4.1588146215 4.0509635631 3.94975894 4.6087898617 4.4991390697 4.3857031936 4.2712800401 4.1588146215 
4.0509635631 3.94975894 3.8564636551 4.526799744 4.4046155105 4.426884955 4.2807094886 4.2918546451 4.3052269283 
4.1588146215 4.1588146215 4.1588146215 4.1588146215 4.042318168 4.0321740035 4.0201070968 4.0055183285 3.9875336042 
3.9337570603 3.9151549899 3.8932795963 3.8672112905 3.8356650183 3.7967995342 3.8346145692 3.809500442 3.7803704271 
3.7462412737 3.7058097288 3.657329819 3.5984456061 3.7454049075 3.7156421835 3.6816134988 3.6424295543 3.5969754326 
3.5438565869 3.4813459737 3.4073543651 3.5642842451 3.4524645613 3.5233842518 3.3320300872 3.403123212 3.4773852225 
3.20576226 3.2746326772 3.348015857 3.4255060145 3.0774230472 3.1415926536 3.2112816139 3.2864685043 3.3668817272 
2.95115522 3.00855263 3.0719036933 3.1415926536 3.2178377658 3.3005964304 2.8307207459 2.8800620952 2.9351694502 
2.9967168029 3.0653475414 3.1415926536 3.225752376 2.718901062 2.7598010554 2.8058000847 2.8576792927 2.91630358 
2.9825888767 3.0574329311 3.1415926536 3.5642842451 3.5233842518 3.4524645613 3.4773852225 3.403123212 3.3320300872 
3.4255060145 3.348015857 3.2746326772 3.20576226 3.3668817272 3.2864685043 3.2112816139 3.1415926536 3.0774230472 
3.3005964304 3.2178377658 3.1415926536 3.0719036933 3.00855263 2.95115522 3.225752376 3.1415926536 3.0653475414 
2.9967168029 2.9351694502 2.8800620952 2.8307207459 3.1415926536 3.0574329311 2.9825888767 2.91630358 2.8576792927 
2.8058000847 2.7598010554 2.718901062 4.526799744 4.426884955 4.4046155105 4.3052269283 4.2918546451 4.2807094886 
4.1588146215 4.1588146215 4.1588146215 4.1588146215 3.9875336042 4.0055183285 4.0201070968 4.0321740035 4.042318168 
3.7967995342 3.8356650183 3.8672112905 3.8932795963 3.9151549899 3.9337570603 3.5984456061 3.657329819 3.7058097288 
3.7462412737 3.7803704271 3.809500442 3.8346145692 3.4073543651 3.4813459737 3.5438565869 3.5969754326 3.6424295543 
3.6816134988 3.7156421835 3.7454049075 4.7123889804 4.8004512023 4.6243267584 4.9155579264 4.7123889804 4.5092200343 
5.0674903122 4.8353719722 4.5894059886 4.3572876485 5.2659633393 5.0120975802 4.7123889804 4.4126803806 4.1588146215 
5.5125918794 5.2659633393 4.9155579264 4.5092200343 4.1588146215 3.9121860814 5.7885595667 5.6029703303 5.2659633393 
4.7123889804 4.1588146215 3.8218076305 3.6362183941 6.0560271438 5.9702140275 5.7885595667 5.2659633393 4.1588146215 
3.6362183941 3.4545639333 3.368750817 0.22715816343 0.49462574053 0.3129712797 0.77059342779 0.68021497688 0.49462574053 
1.0172219679 1.0172219679 1.0172219679 1.0172219679 1.2156949949 1.271087727 1.3676273807 1.5707963268 2.1243706857 
1.3676273807 1.447813335 1.5707963268 1.7739652728 2.1243706857 2.6469669131 1.4827341049 1.5707963268 1.6937793186 
1.8705049266 2.1243706857 2.4613776767 2.8286213739 1.5707963268 1.6588585487 1.7739652728 1.9258976586 2.1243706857 
2.3709992258 2.6469669131 2.9144344902 1.7563855631 1.8785697967 1.8563003522 2.0024758186 1.9913306621 1.9779583789 
2.1243706857 2.1243706857 2.1243706857 2.1243706857 2.2408671392 2.2510113037 2.2630782103 2.2776669786 2.295651703 
2.3494282469 2.3680303173 2.3899057108 2.4159740166 2.4475202889 2.486385773 2.448570738 2.4736848652 2.5028148801 
2.5369440334 2.5773755784 2.6258554882 2.6847397011 2.5377803997 2.5675431237 2.6015718084 2.6407557529 2.6862098746 
2.7393287203 2.8018393335 2.8758309421 1.6743954455 1.6743954455 1.7840462375 1.6743954455 1.7840462375 1.8974821136 
1.6743954455 1.7840462375 1.8974821136 2.0119052671 1.6743954455 1.7840462375 1.8974821136 2.0119052671 2.1243706857 
1.6743954455 1.7840462375 1.8974821136 2.0119052671 2.1243706857 2.232221744 1.6743954455 1.7840462375 1.8974821136 
2.0119052671 2.1243706857 2.232221744 2.3334263672 1.6743954455 1.7840462375 1.8974821136 2.0119052671 2.1243706857 
2.232221744 2.3334263672 2.426721652 1.4671972081 1.3575464161 1.4671972081 1.24411054 1.3575464161 1.4671972081 
1.1296873865 1.24411054 1.3575464161 1.4671972081 1.0172219679 1.1296873865 1.24411054 1.3575464161 1.4671972081 
0.90937090954 1.0172219679 1.1296873865 1.24411054 1.3575464161 1.4671972081 0.80816628637 0.90937090954 1.0172219679 
1.1296873865 1.24411054 1.3575464161 1.4671972081 0.71487100155 0.80816628637 0.90937090954 1.0172219679 1.1296873865 
1.24411054 1.3575464161 1.4671972081 0.60381225391 0.57404952988 0.69302191562 0.54002084522 0.66790778838 0.79216440667 
0.50083690068 0.63877777351 0.77356233629 0.90072551443 0.45538277901 0.60464862014 0.75168694275 0.89058134991 1.0172219679 
0.40226393329 0.56421707518 0.72561863695 0.87851444325 1.0172219679 1.139116835 0.33975332011 0.51573716537 0.69407236469 
0.86392567495 1.0172219679 1.1502619915 1.2630228569 0.26576171152 0.45685295248 0.6552068806 0.84594095064 1.0172219679 
1.1636342747 1.2852923014 1.3852070904 0.22715816343 0.3129712797 0.49462574053 0.49462574053 0.68021497688 0.77059342779 
1.0172219679 1.0172219679 1.0172219679 1.0172219679 2.1243706857 1.5707963268 1.3676273807 1.271087727 1.2156949949 
2.6469669131 2.1243706857 1.7739652728 1.5707963268 1.447813335 1.3676273807 2.8286213739 2.4613776767 2.1243706857 
1.8705049266 1.6937793186 1.5707963268 1.4827341049 2.9144344902 2.6469669131 2.3709992258 2.1243706857 1.9258976586 
1.7739652728 1.6588585487 1.5707963268 1.7563855631 1.8563003522 1.8785697967 1.9779583789 1.9913306621 2.0024758186 
2.1243706857 2.1243706857 2.1243706857 2.1243706857 2.295651703 2.2776669786 2.2630782103 2.2510113037 2.2408671392 
2.486385773 2.4475202889 2.4159740166 2.3899057108 2.3680303173 2.3494282469 2.6847397011 2.6258554882 2.5773755784 
2.5369440334 2.5028148801 2.4736848652 2.448570738 2.8758309421 2.8018393335 2.7393287203 2.6862098746 2.6407557529 
2.6015718084 2.5675431237 2.5377803997 5.8604937156 5.901393709 5.9723133995 5.9473927383 6.0216547488 6.0927478736 
5.9992719463 6.0767621038 6.1501452836 6.2190157008 6.0578962336 6.1383094565 6.2134963469 0 0.064169606361 
6.1241815303 6.206940195 6.2831853072 0.069688960264 0.13304002361 0.19043743361 6.1990255847 0 0.07624511221 
0.14487585072 0.20642320337 0.26153055843 0.3108719077 0 0.084159722458 0.15900377685 0.22528907359 0.28391336087 
0.3357925689 0.38179159818 0.42269159155 5.8604937156 5.9723133995 5.901393709 6.0927478736 6.0216547488 5.9473927383 
6.2190157008 6.1501452836 6.0767621038 5.9992719463 0.064169606361 0 6.2134963469 6.1383094565 6.0578962336 
0.19043743361 0.13304002361 0.069688960264 6.2831853072 6.206940195 6.1241815303 0.3108719077 0.26153055843 0.20642320337 
0.14487585072 0.07624511221 6.2831853072 6.1990255847 0.42269159155 0.38179159818 0.3357925689 0.28391336087 0.22528907359 
0.15900377685 0.084159722458 0 5.6793730533 5.7091357773 5.5901633916 5.743164462 5.6152775188 5.4910209005 
5.7823484065 5.6444075337 5.5096229709 5.3824597928 5.8278025282 5.678536687 5.5314983644 5.3926039573 5.2659633393 
5.8809213739 5.718968232 5.5575666702 5.4046708639 5.2659633393 5.1440684722 5.9434319871 5.7674481418 5.5891129425 
5.4192596322 5.2659633393 5.1329233157 5.0201624502 6.0174235957 5.8263323547 5.6279784266 5.4372443565 5.2659633393 
5.1195510325 4.9978930058 4.8979782167 1.3852070904 1.2852923014 1.2630228569 1.1636342747 1.1502619915 1.139116835 
1.0172219679 1.0172219679 1.0172219679 1.0172219679 0.84594095064 0.86392567495 0.87851444325 0.89058134991 0.90072551443 
0.6552068806 0.69407236469 0.72561863695 0.75168694275 0.77356233629 0.79216440667 0.45685295248 0.51573716537 0.56421707518 
0.60464862014 0.63877777351 0.66790778838 0.69302191562 0.26576171152 0.33975332011 0.40226393329 0.45538277901 0.50083690068 
0.54002084522 0.57404952988 0.60381225391 
_paraPhiHalf 1 1002 double
0 3.1415926536 0 3.1415926536 1.5707963268 1.5707963268 1.5707963268 1.5707963268 2.5880182947 
0.5535743589 2.5880182947 0.5535743589 0 0 0 0 3.1415926536 3.1415926536 
3.1415926536 3.1415926536 3.1415926536 0.17788134 0.38438696014 0.60631181711 0.82323535693 1.0172219679 1.1799687454 
1.3118704726 1.4175000338 1.5022335207 0.17788134 0.38438696014 0.60631181711 0.82323535693 1.0172219679 1.1799687454 
1.3118704726 1.4175000338 1.5022335207 0.093902416448 0.17615329733 0.2478725152 0.31035131605 0.36486382811 0.41257334776 
0.45449736604 0.4915044461 0.52432611754 0.093902416448 0.17615329733 0.2478725152 0.31035131605 0.36486382811 0.41257334776 
0.45449736604 0.4915044461 0.52432611754 2.9637113136 2.7572056934 2.5352808365 2.3183572967 2.1243706857 1.9616239082 
1.829722181 1.7240926197 1.6393591329 2.9637113136 2.7572056934 2.5352808365 2.3183572967 2.1243706857 1.9616239082 
1.829722181 1.7240926197 1.6393591329 3.0476902371 2.9654393563 2.8937201384 2.8312413375 2.7767288255 2.7290193058 
2.6870952876 2.6500882075 2.617266536 3.0476902371 2.9654393563 2.8937201384 2.8312413375 2.7767288255 2.7290193058 
2.6870952876 2.6500882075 2.617266536 0 0 0 0 3.1415926536 3.1415926536 
3.1415926536 3.1415926536 3.1415926536 0.17788134 0.38438696014 0.60631181711 0.82323535693 1.0172219679 1.1799687454 
1.3118704726 1.4175000338 1.5022335207 0.17788134 0.38438696014 0.60631181711 0.82323535693 1.0172219679 1.1799687454 
1.3118704726 1.4175000338 1.5022335207 0.093902416448 0.17615329733 0.2478725152 0.31035131605 0.36486382811 0.41257334776 
0.45449736604 0.4915044461 0.52432611754 0.093902416448 0.17615329733 0.2478725152 0.31035131605 0.36486382811 0.41257334776 
0.45449736604 0.4915044461 0.52432611754 2.9637113136 2.7572056934 2.5352808365 2.3183572967 2.1243706857 1.9616239082 
1.829722181 1.7240926197 1.6393591329 2.9637113136 2.7572056934 2.5352808365 2.3183572967 2.1243706857 1.9616239082 
1.829722181 1.7240926197 1.6393591329 3.0476902371 2.9654393563 2.8937201384 2.8312413375 2.7767288255 2.7290193058 
2.6870952876 2.6500882075 2.617266536 3.0476902371 2.9654393563 2.8937201384 2.8312413375 2.7767288255 2.7290193058 
2.6870952876 2.6500882075 2.617266536 1.5707963268 1.5707963268 1.5707963268 1.5707963268 1.5707963268 1.5707963268 
1.5707963268 1.5707963268 1.5707963268 1.6743954455 1.7840462375 1.8974821136 2.0119052671 2.1243706857 2.232221744 
2.3334263672 2.426721652 2.5115728246 1.4671972081 1.3575464161 1.24411054 1.1296873865 1.0172219679 0.90937090954 
0.80816628637 0.71487100155 0.63001982895 1.6743954455 1.7840462375 1.8974821136 2.0119052671 2.1243706857 2.232221744 
2.3334263672 2.426721652 2.5115728246 1.4671972081 1.3575464161 1.24411054 1.1296873865 1.0172219679 0.90937090954 
0.80816628637 0.71487100155 0.63001982895 1.5707963268 1.5707963268 1.5707963268 1.5707963268 1.5707963268 1.5707963268 
1.5707963268 1.5707963268 1.5707963268 1.6743954455 1.7840462375 1.8974821136 2.0119052671 2.1243706857 2.232221744 
2.3334263672 2.426721652 2.5115728246 1.4671972081 1.3575464161 1.24411054 1.1296873865 1.0172219679 0.90937090954 
0.80816628637 0.71487100155 0.63001982895 1.6743954455 1.7840462375 1.8974821136 2.0119052671 2.1243706857 2.232221744 
2.3334263672 2.426721652 2.5115728246 1.4671972081 1.3575464161 1.24411054 1.1296873865 1.0172219679 0.90937090954 
0.80816628637 0.71487100155 0.63001982895 2.6824132222 2.7864913217 2.8992382033 3.0186096618 3.1415926536 3.0186096618 
2.8992382033 2.7864913217 2.6824132222 0.45917943135 0.35510133185 0.2423544503 0.12298299178 0 0.12298299178 
0.2423544503 0.35510133185 0.45917943135 0.22715816343 0.49462574053 0.3129712797 0.77059342779 0.68021497688 0.49462574053 
1.0172219679 1.0172219679 1.0172219679 1.0172219679 1.2156949949 1.271087727 1.3676273807 1.5707963268 2.1243706857 
1.3676273807 1.447813335 1.5707963268 1.7739652728 2.1243706857 2.6469669131 1.4827341049 1.5707963268 1.6937793186 
1.8705049266 2.1243706857 2.4613776767 2.8286213739 1.5707963268 1.6588585487 1.7739652728 1.9258976586 2.1243706857 
2.3709992258 2.6469669131 2.9144344902 0.26576171152 0.33975332011 0.45685295248 0.40226393329 0.51573716537 0.6552068806 
0.45538277901 0.56421707518 0.69407236469 0.84594095064 0.50083690068 0.60464862014 0.72561863695 0.86392567495 1.0172219679 
0.54002084522 0.63877777351 0.75168694275 0.87851444325 1.0172219679 1.1636342747 0.57404952988 0.66790778838 0.77356233629 
0.89058134991 1.0172219679 1.1502619915 1.2852923014 0.60381225391 0.69302191562 0.79216440667 0.90072551443 1.0172219679 
1.139116835 1.2630228569 1.3852070904 0.71487100155 0.80816628637 0.80816628637 0.90937090954 0.90937090954 0.90937090954 
1.0172219679 1.0172219679 1.0172219679 1.0172219679 1.1296873865 1.1296873865 1.1296873865 1.1296873865 1.1296873865 
1.24411054 1.24411054 1.24411054 1.24411054 1.24411054 1.24411054 1.3575464161 1.3575464161 1.3575464161 
1.3575464161 1.3575464161 1.3575464161 1.3575464161 1.4671972081 1.4671972081 1.4671972081 1.4671972081 1.4671972081 
1.4671972081 1.4671972081 1.4671972081 1.6743954455 1.6743954455 1.7840462375 1.6743954455 1.7840462375 1.8974821136 
1.6743954455 1.7840462375 1.8974821136 2.0119052671 1.6743954455 1.7840462375 1.8974821136 2.0119052671 2.1243706857 
1.6743954455 1.7840462375 1.8974821136 2.0119052671 2.1243706857 2.232221744 1.6743954455 1.7840462375 1.8974821136 
2.0119052671 2.1243706857 2.232221744 2.3334263672 1.6743954455 1.7840462375 1.8974821136 2.0119052671 2.1243706857 
2.232221744 2.3334263672 2.426721652 1.7563855631 1.8785697967 1.8563003522 2.0024758186 1.9913306621 1.9779583789 
2.1243706857 2.1243706857 2.1243706857 2.1243706857 2.2408671392 2.2510113037 2.2630782103 2.2776669786 2.295651703 
2.3494282469 2.3680303173 2.3899057108 2.4159740166 2.4475202889 2.486385773 2.448570738 2.4736848652 2.5028148801 
2.5369440334 2.5773755784 2.6258554882 2.6847397011 2.5377803997 2.5675431237 2.6015718084 2.6407557529 2.6862098746 
2.7393287203 2.8018393335 2.8758309421 2.718901062 2.8307207459 2.7598010554 2.95115522 2.8800620952 2.8058000847 
3.0774230472 3.00855263 2.9351694502 2.8576792927 3.0774230472 3.1415926536 3.0719036933 2.9967168029 2.91630358 
2.95115522 3.00855263 3.0719036933 3.1415926536 3.0653475414 2.9825888767 2.8307207459 2.8800620952 2.9351694502 
2.9967168029 3.0653475414 3.1415926536 3.0574329311 2.718901062 2.7598010554 2.8058000847 2.8576792927 2.91630358 
2.9825888767 3.0574329311 3.1415926536 2.718901062 2.7598010554 2.8307207459 2.8058000847 2.8800620952 2.95115522 
2.8576792927 2.9351694502 3.00855263 3.0774230472 2.91630358 2.9967168029 3.0719036933 3.1415926536 3.0774230472 
2.9825888767 3.0653475414 3.1415926536 3.0719036933 3.00855263 2.95115522 3.0574329311 3.1415926536 3.0653475414 