# vtk DataFile Version 5.1
vtk output
ASCII
DATASET POLYDATA
POINTS 1002 float
-12.3483 -0.0640231 -2.54586 11.8362 0.292336 -3.55892 -11.3097 1.09562 3.29296 
10.7061 -0.364409 3.62992 0.174568 5.68126 -2.40806 -0.642914 5.26673 1.48014 
0.333755 -2.57828 -1.33517 0.598052 -3.23155 1.69704 17.5442 4.62261 -0.067347 
-17.4586 3.0544 -0.424909 17.748 -7.0469 -0.619903 -17.9047 -7.23313 0.21273 
-10.5682 0.422278 -2.32265 -8.52061 0.779699 -2.17928 -6.14674 0.996152 -2.12642 
-3.34059 1.14064 -2.16957 -0.157278 1.2548 -2.37313 3.07813 1.27852 -2.79668 
5.98811 1.14082 -3.32271 8.39622 0.870144 -3.69125 10.3187 0.562971 -3.75027 
-11.6069 0.645084 -2.41974 -10.6625 1.41143 -2.27689 -9.48572 2.20368 -2.17796 
-8.09637 2.97668 -2.21883 -6.62651 3.67905 -2.43281 -5.22101 4.26683 -2.68362 
-3.87692 4.72537 -2.7798 -2.51403 5.08344 -2.69323 -1.13787 5.3913 -2.54046 
-11.9209 -0.411263 -2.4844 -11.3137 -0.754621 -2.40318 -10.4502 -1.08987 -2.3067 
-9.344 -1.40402 -2.16773 -8.0798 -1.66929 -1.94151 -6.68378 -1.84337 -1.6293 
-5.11641 -1.92776 -1.32907 -3.3747 -2.01644 -1.17203 -1.52174 -2.22264 -1.19812 
-13.6217 -0.171893 -2.74793 -14.8892 -0.209045 -2.97172 -15.9628 -0.0611512 -3.18164 
-16.6869 0.322923 -3.30515 -17.1385 0.880971 -3.21183 -17.5036 1.47706 -2.81727 
-17.7882 1.99129 -2.21379 -17.877 2.3915 -1.57742 -17.7466 2.72688 -0.987519 
-13.7507 -0.886876 -2.78154 -15.0256 -1.83854 -2.98152 -16.0523 -2.83886 -3.04409 
-16.8535 -3.85744 -2.93343 -17.551 -4.95552 -2.69205 -18.1094 -6.1007 -2.33615 
-18.3309 -7.02819 -1.81977 -18.2085 -7.48419 -1.1463 -17.9987 -7.48707 -0.424918 
11.2729 0.995553 -3.63175 10.6036 1.72288 -3.71424 9.79387 2.44272 -3.79235 
8.793 3.14871 -3.77143 7.62729 3.81252 -3.60211 6.35058 4.35993 -3.37821 
4.93121 4.7569 -3.19241 3.34511 5.0636 -3.00299 1.70392 5.36136 -2.73814 
11.4786 -0.24712 -3.63017 11.0096 -0.797929 -3.65345 10.3415 -1.32324 -3.60192 
9.45007 -1.77157 -3.45893 8.40455 -2.09305 -3.19827 7.19487 -2.26234 -2.81056 
5.69149 -2.31542 -2.3609 3.89692 -2.34687 -1.94838 2.03286 -2.43269 -1.61296 
12.879 0.508618 -3.30502 13.9323 0.821131 -3.02679 14.9357 1.22974 -2.79164 
15.8187 1.69203 -2.59887 16.5692 2.18005 -2.37301 17.1995 2.73007 -2.05604 
17.6488 3.35017 -1.65847 17.8348 3.93945 -1.19371 17.7711 4.37686 -0.653967 
12.9431 -0.307232 -3.2745 13.9087 -0.97346 -2.85668 14.7197 -1.75997 -2.40312 
15.5023 -2.72856 -2.11185 16.3373 -3.81861 -2.09998 17.0868 -4.85152 -2.21854 
17.5727 -5.70324 -2.17368 17.7957 -6.35765 -1.82293 17.8439 -6.81091 -1.25129 
-9.50221 1.24138 3.32006 -7.46714 1.28746 3.31546 -5.18904 1.20585 3.16436 
-2.53941 1.02408 2.84013 0.443668 0.77923 2.56334 3.33334 0.479051 2.59803 
5.70002 0.161902 2.9073 7.5635 -0.0912507 3.24666 9.19191 -0.25072 3.48174 
-10.6884 1.63629 3.33237 -9.9809 2.19119 3.32316 -9.18046 2.76287 3.24146 
-8.17913 3.35977 3.10999 -6.88885 3.95565 2.98698 -5.46705 4.4843 2.8766 
-4.18755 4.87563 2.68583 -3.0748 5.09875 2.33938 -1.9298 5.19646 1.89321 
-10.7337 0.660043 3.24552 -9.93741 0.192459 3.17651 -8.96681 -0.292018 3.08479 
-7.87874 -0.769949 2.97573 -6.66169 -1.22713 2.83078 -5.2729 -1.64948 2.606 
-3.75029 -2.02335 2.31148 -2.207 -2.37649 2.03413 -0.741072 -2.77033 1.83673 
-12.5915 1.25258 3.30491 -13.7459 1.43968 3.27496 -14.7707 1.6663 3.11978 
-15.7124 1.92029 2.80641 -16.5463 2.18704 2.37735 -17.1711 2.44965 1.86092 
-17.5365 2.66973 1.25524 -17.6777 2.82238 0.615731 -17.6419 2.93559 0.0398157 
-12.7319 0.599378 3.25199 -14.113 -0.0117911 3.2335 -15.3149 -0.774437 3.19036 
-16.3931 -1.79294 2.99496 -17.4798 -3.08664 2.60059 -18.4315 -4.43924 2.13573 
-18.9017 -5.57068 1.71313 -18.7991 -6.38512 1.28348 -18.3725 -6.92635 0.772934 
10.2114 0.270854 3.6165 9.62678 0.94101 3.47962 8.97638 1.63717 3.24636 
8.18171 2.34142 2.94111 7.0876 3.0041 2.57012 5.65305 3.57195 2.18727 
4.01004 4.04332 1.88576 2.33087 4.46123 1.69343 0.74948 4.86472 1.56857 
10.2144 -0.917013 3.48782 9.6599 -1.45788 3.32817 9.04729 -1.94564 3.19215 
8.31462 -2.37037 3.0773 7.32665 -2.74712 2.91853 6.03923 -3.06018 2.67271 
4.61412 -3.2571 2.38038 3.23321 -3.3167 2.10507 1.91411 -3.28355 1.87555 
11.9303 -0.0740968 3.78414 13.1439 0.251303 3.87162 14.1915 0.625106 3.72622 
15.0641 1.08083 3.26358 15.8769 1.60731 2.63512 16.6597 2.17049 2.0752 
17.2966 2.78995 1.61329 17.664 3.47356 1.11649 17.7282 4.12649 0.532022 
11.8884 -0.870248 3.62006 13.0649 -1.50653 3.51053 14.2096 -2.27107 3.33434 
15.3295 -3.12036 3.10515 16.375 -3.98562 2.77474 17.2354 -4.80595 2.27284 
17.8136 -5.5459 1.60302 18.0566 -6.18353 0.85094 17.9924 -6.69294 0.0972962 
0.0687271 6.07624 -2.09964 -0.0356379 6.47901 -1.73931 -0.154775 6.82449 -1.28259 
-0.284457 7.02545 -0.694483 -0.377043 7.00567 -0.0710265 -0.404218 6.75374 0.405853 
-0.417469 6.35733 0.695302 -0.479113 5.94403 0.927329 -0.574821 5.58232 1.19759 
2.44085 5.81101 -2.48859 4.82949 6.04455 -2.46124 7.18156 6.32232 -2.26757 
9.434 6.51157 -2.00178 11.5275 6.51998 -1.78324 13.3114 6.38819 -1.56787 
14.7031 6.18693 -1.24838 15.8035 5.8715 -0.839959 16.7408 5.34807 -0.431497 
-2.08622 5.88683 -2.12118 -4.32236 6.1521 -1.86134 -6.46674 6.35519 -1.6746 
-8.61253 6.37574 -1.48928 -10.7646 6.16749 -1.20636 -12.7035 5.7319 -0.873162 
-14.2702 5.09703 -0.634451 -15.5361 4.35907 -0.536266 -16.5995 3.65253 -0.497582 
1.76598 5.22158 1.28942 4.53174 5.47471 1.41155 7.11491 5.89401 1.69603 
9.12906 6.11361 1.78447 10.8458 5.999 1.5619 12.6835 5.81972 1.26284 
14.4694 5.74763 1.02117 15.8255 5.60482 0.730036 16.7725 5.21527 0.337335 
-2.7239 5.68933 1.70882 -4.72387 6.1346 1.96713 -6.71075 6.36123 2.04024 
-8.71185 6.30022 1.90191 -10.5996 6.11081 1.74596 -12.2984 5.85028 1.62645 
-13.8732 5.36501 1.3411 -15.3172 4.61634 0.792445 -16.5258 3.78829 0.140747 
0.510537 -2.9605 -1.26517 0.712403 -3.35237 -1.16037 0.845829 -3.68713 -0.986713 
0.813495 -3.92683 -0.71733 0.630802 -4.07794 -0.333239 0.445172 -4.1303 0.162631 
0.387736 -4.04291 0.699129 0.450737 -3.81818 1.16007 0.542233 -3.52377 1.48432 
3.27341 -3.05377 -1.67253 6.14633 -3.86198 -1.97168 8.43366 -4.89781 -2.17522 
10.1917 -5.92581 -2.33124 11.9821 -6.77525 -2.45897 13.9274 -7.42943 -2.43941 
15.5175 -7.84437 -2.16104 16.4934 -7.89498 -1.67942 17.1362 -7.57468 -1.13736 
-2.36826 -2.57896 -0.994228 -4.90308 -2.78017 -0.766641 -7.23885 -3.21399 -0.787684 
-9.57018 -3.89123 -1.03036 -11.8506 -4.6898 -1.21022 -13.7352 -5.42637 -1.0909 
-15.1057 -6.0652 -0.766367 -16.1723 -6.64254 -0.430361 -17.1022 -7.07471 -0.115559 
2.74246 -3.85026 1.68313 4.96936 -4.61066 1.66588 7.21438 -5.34956 1.55973 
9.39707 -5.95865 1.34222 11.4533 -6.49194 1.07665 13.336 -7.02482 0.805944 
14.9516 -7.45984 0.498474 16.202 -7.61861 0.127734 17.0996 -7.45049 -0.268319 
-1.70902 -2.9683 1.67142 -4.35074 -2.96105 1.72139 -7.06571 -3.27538 1.72464 
-9.53942 -3.8102 1.53971 -11.7003 -4.4017 1.2188 -13.6665 -4.99196 0.969361 
-15.374 -5.60963 0.857692 -16.6118 -6.24271 0.7521 -17.3806 -6.81348 0.537038 
18.5089 3.61924 -0.0640026 19.4926 2.46564 0.0544191 20.2126 1.2253 0.333413 
20.4844 -0.166906 0.660097 20.479 -1.73189 0.811027 20.3988 -3.25372 0.653736 
20.1008 -4.49993 0.267012 19.4286 -5.48372 -0.149785 18.5561 -6.32491 -0.451711 
-18.3861 2.285 -0.607718 -19.2074 1.37861 -0.677281 -19.9126 0.139486 -0.720552 
-20.488 -1.48789 -0.798271 -20.7913 -3.24721 -0.774756 -20.6532 -4.80855 -0.515085 
-20.1171 -6.03618 -0.155676 -19.3967 -6.87879 0.0864035 -18.6482 -7.26848 0.181814 
-9.63309 1.10018 -2.24315 -8.50221 1.80043 -2.19878 -7.40462 1.40067 -2.17697 
-7.17014 2.48006 -2.23728 -6.09178 2.00788 -2.2368 -4.80548 1.54757 -2.21962 
-5.67527 3.10506 -2.40597 -4.58265 2.55665 -2.38543 -3.25611 2.05566 -2.39206 
-1.72463 1.61606 -2.39921 -4.12178 3.66869 -2.66764 -2.91237 3.06404 -2.63157 
-1.51834 2.51614 -2.65554 0.0558766 2.05001 -2.7262 1.63626 1.6584 -2.77072 
-2.58576 4.17164 -2.8768 -1.17776 3.58585 -2.90085 0.325293 3.01841 -2.96472 
1.91345 2.50629 -3.10418 3.45395 2.06397 -3.22171 4.80509 1.63887 -3.27005 
-1.07402 4.61067 -2.92885 0.506065 4.11989 -3.07001 2.10652 3.61265 -3.19862 
3.67857 3.08249 -3.39684 5.15145 2.55683 -3.58921 6.40894 2.04876 -3.66598 
7.45542 1.50083 -3.66886 0.380874 4.99913 -2.85727 2.03799 4.61783 -3.0912 
3.66483 4.22041 -3.26916 5.17387 3.7431 -3.48344 6.55916 3.17051 -3.7204 
7.76573 2.5579 -3.84831 8.74805 1.92998 -3.83542 9.57401 1.26167 -3.78283 
-12.9181 0.662448 -2.55724 -14.2132 0.771418 -2.71233 -11.9356 1.58265 -2.31219 
-15.2442 1.05486 -2.87963 -13.1499 1.85092 -2.36249 -10.624 2.53925 -2.13523 
-15.8748 1.50996 -2.97957 -14.0716 2.23489 -2.45543 -11.686 2.9424 -2.12027 
-9.08258 3.45695 -2.18524 -16.2542 2.04985 -2.83872 -14.6568 2.69475 -2.49313 
-12.5412 3.37379 -2.15183 -10.0448 3.94599 -2.16669 -7.55894 4.25045 -2.43283 
-16.5598 2.56614 -2.38208 -15.0727 3.18237 -2.2816 -13.2049 3.8193 -2.09237 
-10.9215 4.39842 -2.11498 -8.50249 4.77866 -2.35721 -6.18274 4.86107 -2.60741 
-16.7624 2.99175 -1.74829 -15.3997 3.64573 -1.78496 -13.7392 4.29189 -1.77812 
-11.6828 4.85379 -1.89505 -9.37563 5.25359 -2.13839 -7.09696 5.40125 -2.36462 
-4.85531 5.29627 -2.53059 -16.776 3.33671 -1.10447 -15.5696 4.03812 -1.15913 
-14.1124 4.74233 -1.24158 -12.2934 5.32771 -1.45011 -10.1343 5.7261 -1.7413 
-7.89526 5.90169 -1.97453 -5.71563 5.8391 -2.13179 -3.47837 5.61841 -2.31021 
-15.5484 4.48326 0.106144 -14.2491 5.33241 0.693568 -14.3971 5.24412 0.0167663 
-12.736 5.9907 1.10668 -13.0185 6.03142 0.47047 -13.0113 5.956 -0.213645 
-11.0267 6.38773 1.3507 -11.3935 6.58263 0.811822 -11.4996 6.64009 0.139848 
-11.2538 6.49815 -0.568419 -9.09645 6.64011 1.57332 -9.49913 6.93723 1.13886 
-9.73464 7.11245 0.516581 -9.59537 7.07585 -0.223026 -9.14677 6.80003 -0.919516 
-7.01881 6.73493 1.74389 -7.37454 7.09657 1.40659 -7.70144 7.36665 0.890454 
-7.73815 7.43341 0.167772 -7.39924 7.23623 -0.577204 -6.90826 6.83328 -1.18828 
-4.92565 6.51226 1.67785 -5.14568 6.90901 1.40438 -5.42261 7.27053 1.03658 
-5.58495 7.47274 0.437603 -5.43042 7.40971 -0.299542 -5.03901 7.09217 -0.946976 
[...]
POINT_DATA 1002
FIELD FieldData 4
_paraPhi 1 1002 double
6.2831853072 3.1415926536 6.2831853072 3.1415926536 4.7123889804 4.7123889804 1.5707963268 1.5707963268 3.6951670125 
5.7296109483 2.5880182947 0.5535743589 6.2831853072 6.2831853072 6.2831853072 6.2831853072 3.1415926536 3.1415926536 
3.1415926536 3.1415926536 3.1415926536 6.1053039672 5.898798347 5.6768734901 5.4599499503 5.2659633393 5.1032165617 
4.9713148346 4.8656852733 4.7809517865 0.17788134 0.38438696014 0.60631181711 0.82323535693 1.0172219679 1.1799687454 
1.3118704726 1.4175000338 1.5022335207 6.1892828907 6.1070320098 6.035312792 5.9728339911 5.9183214791 5.8706119594 
5.8286879411 5.7916808611 5.7588591896 0.093902416448 0.17615329733 0.2478725152 0.31035131605 0.36486382811 0.41257334776 
0.45449736604 0.4915044461 0.52432611754 3.3194739936 3.5259796137 3.7479044707 3.9648280105 4.1588146215 4.321561399 
4.4534631262 4.5590926874 4.6438261743 2.9637113136 2.7572056934 2.5352808365 2.3183572967 2.1243706857 1.9616239082 
1.829722181 1.7240926197 1.6393591329 3.23549507 3.3177459509 3.3894651688 3.4519439696 3.5064564817 3.5541660013 
3.5960900196 3.6330970997 3.6659187711 3.0476902371 2.9654393563 2.8937201384 2.8312413375 2.7767288255 2.7290193058 
2.6870952876 2.6500882075 2.617266536 6.2831853072 6.2831853072 6.2831853072 6.2831853072 3.1415926536 3.1415926536 
3.1415926536 3.1415926536 3.1415926536 6.1053039672 5.898798347 5.6768734901 5.4599499503 5.2659633393 5.1032165617 
4.9713148346 4.8656852733 4.7809517865 0.17788134 0.38438696014 0.60631181711 0.82323535693 1.0172219679 1.1799687454 
1.3118704726 1.4175000338 1.5022335207 6.1892828907 6.1070320098 6.035312792 5.9728339911 5.9183214791 5.8706119594 
5.8286879411 5.7916808611 5.7588591896 0.093902416448 0.17615329733 0.2478725152 0.31035131605 0.36486382811 0.41257334776 
0.45449736604 0.4915044461 0.52432611754 3.3194739936 3.5259796137 3.7479044707 3.9648280105 4.1588146215 4.321561399 
4.4534631262 4.5590926874 4.6438261743 2.9637113136 2.7572056934 2.5352808365 2.3183572967 2.1243706857 1.9616239082 
1.829722181 1.7240926197 1.6393591329 3.23549507 3.3177459509 3.3894651688 3.4519439696 3.5064564817 3.5541660013 
3.5960900196 3.6330970997 3.6659187711 3.0476902371 2.9654393563 2.8937201384 2.8312413375 2.7767288255 2.7290193058 
2.6870952876 2.6500882075 2.617266536 4.7123889804 4.7123889804 4.7123889804 4.7123889804 4.7123889804 4.7123889804 
4.7123889804 4.7123889804 4.7123889804 4.6087898617 4.4991390697 4.3857031936 4.2712800401 4.1588146215 4.0509635631 
3.94975894 3.8564636551 3.7716124825 4.8159880991 4.9256388911 5.0390747672 5.1534979207 5.2659633393 5.3738143976 
5.4750190208 5.5683143056 5.6531654782 4.6087898617 4.4991390697 4.3857031936 4.2712800401 4.1588146215 4.0509635631 
3.94975894 3.8564636551 3.7716124825 4.8159880991 4.9256388911 5.0390747672 5.1534979207 5.2659633393 5.3738143976 
5.4750190208 5.5683143056 5.6531654782 1.5707963268 1.5707963268 1.5707963268 1.5707963268 1.5707963268 1.5707963268 
1.5707963268 1.5707963268 1.5707963268 1.6743954455 1.7840462375 1.8974821136 2.0119052671 2.1243706857 2.232221744 
2.3334263672 2.426721652 2.5115728246 1.4671972081 1.3575464161 1.24411054 1.1296873865 1.0172219679 0.90937090954 
0.80816628637 0.71487100155 0.63001982895 1.6743954455 1.7840462375 1.8974821136 2.0119052671 2.1243706857 2.232221744 
2.3334263672 2.426721652 2.5115728246 1.4671972081 1.3575464161 1.24411054 1.1296873865 1.0172219679 0.90937090954 
0.80816628637 0.71487100155 0.63001982895 3.6007720849 3.4966939854 3.3839471039 3.2645756454 3.1415926536 3.0186096618 
2.8992382033 2.7864913217 2.6824132222 5.8240058758 5.9280839753 6.0408308569 6.1602023154 6.2831853072 0.12298299178 
0.2423544503 0.35510133185 0.45917943135 6.0560271438 5.7885595667 5.9702140275 5.5125918794 5.6029703303 5.7885595667 
5.2659633393 5.2659633393 5.2659633393 5.2659633393 5.0674903122 5.0120975802 4.9155579264 4.7123889804 4.1588146215 
4.9155579264 4.8353719722 4.7123889804 4.5092200343 4.1588146215 3.6362183941 4.8004512023 4.7123889804 4.5894059886 
4.4126803806 4.1588146215 3.8218076305 3.4545639333 4.7123889804 4.6243267584 4.5092200343 4.3572876485 4.1588146215 
3.9121860814 3.6362183941 3.368750817 6.0174235957 5.9434319871 5.8263323547 5.8809213739 5.7674481418 5.6279784266 
5.8278025282 5.718968232 5.5891129425 5.4372443565 5.7823484065 5.678536687 5.5575666702 5.4192596322 5.2659633393 
5.743164462 5.6444075337 5.5314983644 5.4046708639 5.2659633393 5.1195510325 5.7091357773 5.6152775188 5.5096229709 
5.3926039573 5.2659633393 5.1329233157 4.9978930058 5.6793730533 5.5901633916 5.4910209005 5.3824597928 5.2659633393 
5.1440684722 5.0201624502 4.8979782167 5.5683143056 5.4750190208 5.4750190208 5.3738143976 5.3738143976 5.3738143976 
5.2659633393 5.2659633393 5.2659633393 5.2659633393 5.1534979207 5.1534979207 5.1534979207 5.1534979207 5.1534979207 
5.0390747672 5.0390747672 5.0390747672 5.0390747672 5.0390747672 5.0390747672 4.9256388911 4.9256388911 4.9256388911 
4.9256388911 4.9256388911 4.9256388911 4.9256388911 4.8159880991 4.8159880991 4.8159880991 4.8159880991 4.8159880991 
4.8159880991 4.8159880991 4.8159880991 4.6087898617 4.6087898617 4.4991390697 4.6087898617 4.4991390697 4.3857031936 
4.6087898617 4.4991390697 4.3857031936 4.2712800401 4.6087898617 4.4991390697 4.3857031936 4.2712800401 4.1588146215 
4.6087898617 4.4991390697 4.3857031936 4.2712800401 4.1588146215 4.0509635631 4.6087898617 4.4991390697 4.3857031936 
4.2712800401 4.1588146215 4.0509635631 3.94975894 4.6087898617 4.4991390697 4.3857031936 4.2712800401 4.1588146215 
4.0509635631 3.94975894 3.8564636551 4.526799744 4.4046155105 4.426884955 4.2807094886 4.2918546451 4.3052269283 
4.1588146215 4.1588146215 4.1588146215 4.1588146215 4.042318168 4.0321740035 4.0201070968 4.0055183285 3.9875336042 
3.9337570603 3.9151549899 3.8932795963 3.8672112905 3.8356650183 3.7967995342 3.8346145692 3.809500442 3.7803704271 
3.7462412737 3.7058097288 3.657329819 3.5984456061 3.7454049075 3.7156421835 3.6816134988 3.6424295543 3.5969754326 
3.5438565869 3.4813459737 3.4073543651 3.5642842451 3.4524645613 3.5233842518 3.3320300872 3.403123212 3.4773852225 
3.20576226 3.2746326772 3.348015857 3.4255060145 3.0774230472 3.1415926536 3.2112816139 3.2864685043 3.3668817272 
2.95115522 3.00855263 3.0719036933 3.1415926536 3.2178377658 3.3005964304 2.8307207459 2.8800620952 2.9351694502 
2.9967168029 3.0653475414 3.1415926536 3.225752376 2.718901062 2.7598010554 2.8058000847 2.8576792927 2.91630358 
2.9825888767 3.0574329311 3.1415926536 3.5642842451 3.5233842518 3.4524645613 3.4773852225 3.403123212 3.3320300872 
3.4255060145 3.348015857 3.2746326772 3.20576226 3.3668817272 3.2864685043 3.2112816139 3.1415926536 3.0774230472 
3.3005964304 3.2178377658 3.1415926536 3.0719036933 3.00855263 2.95115522 3.225752376 3.1415926536 3.0653475414 
2.9967168029 2.9351694502 2.8800620952 2.8307207459 3.1415926536 3.0574329311 2.9825888767 2.91630358 2.8576792927 
2.8058000847 2.7598010554 2.718901062 4.526799744 4.426884955 4.4046155105 4.3052269283 4.2918546451 4.2807094886 
4.1588146215 4.1588146215 4.1588146215 4.1588146215 3.9875336042 4.0055183285 4.0201070968 4.0321740035 4.042318168 
3.7967995342 3.8356650183 3.8672112905 3.8932795963 3.9151549899 3.9337570603 3.5984456061 3.657329819 3.7058097288 
3.7462412737 3.7803704271 3.809500442 3.8346145692 3.4073543651 3.4813459737 3.5438565869 3.5969754326 3.6424295543 
3.6816134988 3.7156421835 3.7454049075 4.7123889804 4.8004512023 4.6243267584 4.9155579264 4.7123889804 4.5092200343 
5.0674903122 4.8353719722 4.5894059886 4.3572876485 5.2659633393 5.0120975802 4.7123889804 4.4126803806 4.1588146215 
5.5125918794 5.2659633393 4.9155579264 4.5092200343 4.1588146215 3.9121860814 5.7885595667 5.6029703303 5.2659633393 
4.7123889804 4.1588146215 3.8218076305 3.6362183941 6.0560271438 5.9702140275 5.7885595667 5.2659633393 4.1588146215 
3.6362183941 3.4545639333 3.368750817 0.22715816343 0.49462574053 0.3129712797 0.77059342779 0.68021497688 0.49462574053 
1.0172219679 1.0172219679 1.0172219679 1.0172219679 1.2156949949 1.271087727 1.3676273807 1.5707963268 2.1243706857 
1.3676273807 1.447813335 1.5707963268 1.7739652728 2.1243706857 2.6469669131 1.4827341049 1.5707963268 1.6937793186 
1.8705049266 2.1243706857 2.4613776767 2.8286213739 1.5707963268 1.6588585487 1.7739652728 1.9258976586 2.1243706857 
2.3709992258 2.6469669131 2.9144344902 1.7563855631 1.8785697967 1.8563003522 2.0024758186 1.9913306621 1.9779583789 
2.1243706857 2.1243706857 2.1243706857 2.1243706857 2.2408671392 2.2510113037 2.2630782103 2.2776669786 2.295651703 
2.3494282469 2.3680303173 2.3899057108 2.4159740166 2.4475202889 2.486385773 2.448570738 2.4736848652 2.5028148801 
2.5369440334 2.5773755784 2.6258554882 2.6847397011 2.5377803997 2.5675431237 2.6015718084 2.6407557529 2.6862098746 
2.7393287203 2.8018393335 2.8758309421 1.6743954455 1.6743954455 1.7840462375 1.6743954455 1.7840462375 1.8974821136 
1.6743954455 1.7840462375 1.8974821136 2.0119052671 1.6743954455 1.7840462375 1.8974821136 2.0119052671 2.1243706857 
1.6743954455 1.7840462375 1.8974821136 2.0119052671 2.1243706857 2.232221744 1.6743954455 1.7840462375 1.8974821136 
2.0119052671 2.1243706857 2.232221744 2.3334263672 1.6743954455 1.7840462375 1.8974821136 2.0119052671 2.1243706857 
2.232221744 2.3334263672 2.426721652 1.4671972081 1.3575464161 1.4671972081 1.24411054 1.3575464161 1.4671972081 
1.1296873865 1.24411054 1.3575464161 1.4671972081 1.0172219679 1.1296873865 1.24411054 1.3575464161 1.4671972081 
0.90937090954 1.0172219679 1.1296873865 1.24411054 1.3575464161 1.4671972081 0.80816628637 0.90937090954 1.0172219679 
1.1296873865 1.24411054 1.3575464161 1.4671972081 0.71487100155 0.80816628637 0.90937090954 1.0172219679 1.1296873865 
1.24411054 1.3575464161 1.4671972081 0.60381225391 0.57404952988 0.69302191562 0.54002084522 0.66790778838 0.79216440667 
0.50083690068 0.63877777351 0.77356233629 0.90072551443 0.45538277901 0.60464862014 0.75168694275 0.89058134991 1.0172219679 
0.40226393329 0.56421707518 0.72561863695 0.87851444325 1.0172219679 1.139116835 0.33975332011 0.51573716537 0.69407236469 
0.86392567495 1.0172219679 1.1502619915 1.2630228569 0.26576171152 0.45685295248 0.6552068806 0.84594095064 1.0172219679 
1.1636342747 1.2852923014 1.3852070904 0.22715816343 0.3129712797 0.49462574053 0.49462574053 0.68021497688 0.77059342779 
1.0172219679 1.0172219679 1.0172219679 1.0172219679 2.1243706857 1.5707963268 1.3676273807 1.271087727 1.2156949949 
2.6469669131 2.1243706857 1.7739652728 1.5707963268 1.447813335 1.3676273807 2.8286213739 2.4613776767 2.1243706857 
1.8705049266 1.6937793186 1.5707963268 1.4827341049 2.9144344902 2.6469669131 2.3709992258 2.1243706857 1.9258976586 
1.7739652728 1.6588585487 1.5707963268 1.7563855631 1.8563003522 1.8785697967 1.9779583789 1.9913306621 2.0024758186 
2.1243706857 2.1243706857 2.1243706857 2.1243706857 2.295651703 2.2776669786 2.2630782103 2.2510113037 2.2408671392 
2.486385773 2.4475202889 2.4159740166 2.3899057108 2.3680303173 2.3494282469 2.6847397011 2.6258554882 2.5773755784 
2.5369440334 2.5028148801 2.4736848652 2.448570738 2.8758309421 2.8018393335 2.7393287203 2.6862098746 2.6407557529 
2.6015718084 2.5675431237 2.5377803997 5.8604937156 5.901393709 5.9723133995 5.9473927383 6.0216547488 6.0927478736 
5.9992719463 6.0767621038 6.1501452836 6.2190157008 6.0578962336 6.1383094565 6.2134963469 0 0.064169606361 
6.1241815303 6.206940195 6.2831853072 0.069688960264 0.13304002361 0.19043743361 6.1990255847 0 0.07624511221 
0.14487585072 0.20642320337 0.26153055843 0.3108719077 0 0.084159722458 0.15900377685 0.22528907359 0.28391336087 
0.3357925689 0.38179159818 0.42269159155 5.8604937156 5.9723133995 5.901393709 6.0927478736 6.0216547488 5.9473927383 
6.2190157008 6.1501452836 6.0767621038 5.9992719463 0.064169606361 0 6.2134963469 6.1383094565 6.0578962336 
0.19043743361 0.13304002361 0.069688960264 6.2831853072 6.206940195 6.1241815303 0.3108719077 0.26153055843 0.20642320337 
0.14487585072 0.07624511221 6.2831853072 6.1990255847 0.42269159155 0.38179159818 0.3357925689 0.28391336087 0.22528907359 
0.15900377685 0.084159722458 0 5.6793730533 5.7091357773 5.5901633916 5.743164462 5.6152775188 5.4910209005 
5.7823484065 5.6444075337 5.5096229709 5.3824597928 5.8278025282 5.678536687 5.5314983644 5.3926039573 5.2659633393 
5.8809213739 5.718968232 5.5575666702 5.4046708639 5.2659633393 5.1440684722 5.9434319871 5.7674481418 5.5891129425 
5.4192596322 5.2659633393 5.1329233157 5.0201624502 6.0174235957 5.8263323547 5.6279784266 5.4372443565 5.2659633393 
5.1195510325 4.9978930058 4.8979782167 1.3852070904 1.2852923014 1.2630228569 1.1636342747 1.1502619915 1.139116835 
1.0172219679 1.0172219679 1.0172219679 1.0172219679 0.84594095064 0.86392567495 0.87851444325 0.89058134991 0.90072551443 
0.6552068806 0.69407236469 0.72561863695 0.75168694275 0.77356233629 0.79216440667 0.45685295248 0.51573716537 0.56421707518 
0.60464862014 0.63877777351 0.66790778838 0.69302191562 0.26576171152 0.33975332011 0.40226393329 0.45538277901 0.50083690068 
0.54002084522 0.57404952988 0.60381225391 
_paraPhiHalf 1 1002 double
0 3.1415926536 0 3.1415926536 1.5707963268 1.5707963268 1.5707963268 1.5707963268 2.5880182947 
0.5535743589 2.5880182947 0.5535743589 0 0 0 0 3.1415926536 3.1415926536 
3.1415926536 3.1415926536 3.1415926536 0.17788134 0.38438696014 0.60631181711 0.82323535693 1.0172219679 1.1799687454 
1.3118704726 1.4175000338 1.5022335207 0.17788134 0.38438696014 0.60631181711 0.82323535693 1.0172219679 1.1799687454 
1.3118704726 1.4175000338 1.5022335207 0.093902416448 0.17615329733 0.2478725152 0.31035131605 0.36486382811 0.41257334776 
0.45449736604 0.4915044461 0.52432611754 0.093902416448 0.17615329733 0.2478725152 0.31035131605 0.36486382811 0.41257334776 
0.45449736604 0.4915044461 0.52432611754 2.9637113136 2.7572056934 2.5352808365 2.3183572967 2.1243706857 1.9616239082 
1.829722181 1.7240926197 1.6393591329 2.9637113136 2.7572056934 2.5352808365 2.3183572967 2.1243706857 1.9616239082 
1.829722181 1.7240926197 1.6393591329 3.0476902371 2.9654393563 2.8937201384 2.8312413375 2.7767288255 2.7290193058 
2.6870952876 2.6500882075 2.617266536 3.0476902371 2.9654393563 2.8937201384 2.8312413375 2.7767288255 2.7290193058 
2.6870952876 2.6500882075 2.617266536 0 0 0 0 3.1415926536 3.1415926536 
3.1415926536 3.1415926536 3.1415926536 0.17788134 0.38438696014 0.60631181711 0.82323535693 1.0172219679 1.1799687454 
1.3118704726 1.4175000338 1.5022335207 0.17788134 0.38438696014 0.60631181711 0.82323535693 1.0172219679 1.1799687454 
1.3118704726 1.4175000338 1.5022335207 0.093902416448 0.17615329733 0.2478725152 0.31035131605 0.36486382811 0.41257334776 
0.45449736604 0.4915044461 0.52432611754 0.093902416448 0.17615329733 0.2478725152 0.31035131605 0.36486382811 0.41257334776 
0.45449736604 0.4915044461 0.52432611754 2.9637113136 2.7572056934 2.5352808365 2.3183572967 2.1243706857 1.9616239082 
1.829722181 1.7240926197 1.6393591329 2.9637113136 2.7572056934 2.5352808365 2.3183572967 2.1243706857 1.9616239082 
1.829722181 1.7240926197 1.6393591329 3.0476902371 2.9654393563 2.8937201384 2.8312413375 2.7767288255 2.7290193058 
2.6870952876 2.6500882075 2.617266536 3.0476902371 2.9654393563 2.8937201384 2.8312413375 2.7767288255 2.7290193058 
2.6870952876 2.6500882075 2.617266536 1.5707963268 1.5707963268 1.5707963268 1.5707963268 1.5707963268 1.5707963268 
1.5707963268 1.5707963268 1.5707963268 1.6743954455 1.7840462375 1.8974821136 2.0119052671 2.1243706857 2.232221744 
2.3334263672 2.426721652 2.5115728246 1.4671972081 1.3575464161 1.24411054 1.1296873865 1.0172219679 0.90937090954 
0.80816628637 0.71487100155 0.63001982895 1.6743954455 1.7840462375 1.8974821136 2.0119052671 2.1243706857 2.232221744 
2.3334263672 2.426721652 2.5115728246 1.4671972081 1.3575464161 1.24411054 1.1296873865 1.0172219679 0.90937090954 
0.80816628637 0.71487100155 0.63001982895 1.5707963268 1.5707963268 1.5707963268 1.5707963268 1.5707963268 1.5707963268 
1.5707963268 1.5707963268 1.5707963268 1.6743954455 1.7840462375 1.8974821136 2.0119052671 2.1243706857 2.232221744 
2.3334263672 2.426721652 2.5115728246 1.4671972081 1.3575464161 1.24411054 1.1296873865 1.0172219679 0.90937090954 
0.80816628637 0.71487100155 0.63001982895 1.6743954455 1.7840462375 1.8974821136 2.0119052671 2.1243706857 2.232221744 
2.3334263672 2.426721652 2.5115728246 1.4671972081 1.3575464161 1.24411054 1.1296873865 1.0172219679 0.90937090954 
0.80816628637 0.71487100155 0.63001982895 2.6824132222 2.7864913217 2.8992382033 3.0186096618 3.1415926536 3.0186096618 
2.8992382033 2.7864913217 2.6824132222 0.45917943135 0.35510133185 0.2423544503 0.12298299178 0 0.12298299178 
0.2423544503 0.35510133185 0.45917943135 0.22715816343 0.49462574053 0.3129712797 0.77059342779 0.68021497688 0.49462574053 
1.0172219679 1.0172219679 1.0172219679 1.0172219679 1.2156949949 1.271087727 1.3676273807 1.5707963268 2.1243706857 
1.3676273807 1.447813335 1.5707963268 1.7739652728 2.1243706857 2.6469669131 1.4827341049 1.5707963268 1.6937793186 
1.8705049266 2.1243706857 2.4613776767 2.8286213739 1.5707963268 1.6588585487 1.7739652728 1.9258976586 2.1243706857 
2.3709992258 2.6469669131 2.9144344902 0.26576171152 0.33975332011 0.45685295248 0.40226393329 0.51573716537 0.6552068806 
0.45538277901 0.56421707518 0.69407236469 0.84594095064 0.50083690068 0.60464862014 0.72561863695 0.86392567495 1.0172219679 
0.54002084522 0.63877777351 0.75168694275 0.87851444325 1.0172219679 1.1636342747 0.57404952988 0.66790778838 0.77356233629 
0.89058134991 1.0172219679 1.1502619915 1.2852923014 0.60381225391 0.69302191562 0.79216440667 0.90072551443 1.0172219679 
1.139116835 1.2630228569 1.3852070904 0.71487100155 0.80816628637 0.80816628637 0.90937090954 0.90937090954 0.90937090954 
1.0172219679 1.0172219679 1.0172219679 1.0172219679 1.1296873865 1.1296873865 1.1296873865 1.1296873865 1.1296873865 
1.24411054 1.24411054 1.24411054 1.24411054 1.24411054 1.24411054 1.3575464161 1.3575464161 1.3575464161 
1.3575464161 1.3575464161 1.3575464161 1.3575464161 1.4671972081 1.4671972081 1.4671972081 1.4671972081 1.4671972081 
1.4671972081 1.4671972081 1.4671972081 1.6743954455 1.6743954455 1.7840462375 1.6743954455 1.7840462375 1.8974821136 
1.6743954455 1.7840462375 1.8974821136 2.0119052671 1.6743954455 1.7840462375 1.8974821136 2.0119052671 2.1243706857 
1.6743954455 1.7840462375 1.8974821136 2.0119052671 2.1243706857 2.232221744 1.6743954455 1.7840462375 1.8974821136 
2.0119052671 2.1243706857 2.232221744 2.3334263672 1.6743954455 1.7840462375 1.8974821136 2.0119052671 2.1243706857 
2.232221744 2.3334263672 2.426721652 1.7563855631 1.8785697967 1.8563003522 2.0024758186 1.9913306621 1.9779583789 
2.1243706857 2.1243706857 2.1243706857 2.1243706857 2.2408671392 2.2510113037 2.2630782103 2.2776669786 2.295651703 
2.3494282469 2.3680303173 2.3899057108 2.4159740166 2.4475202889 2.486385773 2.448570738 2.4736848652 2.5028148801 
2.5369440334 2.5773755784 2.6258554882 2.6847397011 2.5377803997 2.5675431237 2.6015718084 2.6407557529 2.6862098746 
2.7393287203 2.8018393335 2.8758309421 2.718901062 2.8307207459 2.7598010554 2.95115522 2.8800620952 2.8058000847 
3.0774230472 3.00855263 2.9351694502 2.8576792927 3.0774230472 3.1415926536 3.0719036933 2.9967168029 2.91630358 
2.95115522 3.00855263 3.0719036933 3.1415926536 3.0653475414 2.9825888767 2.8307207459 2.8800620952 2.9351694502 
2.9967168029 3.0653475414 3.1415926536 3.0574329311 2.718901062 2.7598010554 2.8058000847 2.8576792927 2.91630358 
2.9825888767 3.0574329311 3.1415926536 2.718901062 2.7598010554 2.8307207459 2.8058000847 2.8800620952 2.95115522 
2.8576792927 2.9351694502 3.00855263 3.0774230472 2.91630358 2.9967168029 3.0719036933 3.1415926536 3.0774230472 
2.9825888767 3.0653475414 3.1415926536 3.0719036933 3.00855263 2.95115522 3.0574329311 3.1415926536 3.0653475414 