# vtk DataFile Version 5.1
vtk output
ASCII
DATASET POLYDATA
POINTS 1002 float
-12.9708 0.698784 -1.40645 12.1699 -0.394705 -2.77718 -10.6942 1.72388 3.48786 
9.56909 -0.708222 3.23546 -1.3524 3.90017 -2.54197 -1.95906 3.48062 0.114026 
0.76392 -1.21695 -1.44579 0.869111 -2.06036 0.462889 16.4013 5.18233 -0.0240997 
-15.7742 1.21026 -0.76802 17.4294 -6.27199 -0.553612 -16.9802 -6.88497 0.670896 
-11.393 1.15239 -1.28575 -9.60644 1.29969 -1.38661 -7.3029 1.1706 -1.60904 
-4.17552 0.997634 -1.8343 -0.455297 0.97291 -2.10801 3.17231 0.985749 -2.55411 
6.24179 0.786599 -3.06798 8.71718 0.355118 -3.33587 10.6782 -0.0972578 -3.19594 
-12.115 1.34637 -1.25099 -11.0741 2.02072 -1.18282 -9.77435 2.7252 -1.316 
-8.29072 3.42887 -1.76757 -6.97793 4.00554 -2.49946 -6.06367 4.31378 -3.16566 
-5.25806 4.34365 -3.38295 -4.16826 4.21074 -3.16289 -2.79137 4.03916 -2.8135 
-12.7817 0.400577 -1.45965 -12.4043 0.0841631 -1.56129 -11.6787 -0.219761 -1.65129 
-10.6144 -0.521441 -1.64742 -9.34977 -0.813131 -1.51269 -7.88507 -0.966716 -1.26876 
-6.09441 -0.896688 -1.01855 -3.96385 -0.771563 -0.933952 -1.61857 -0.850181 -1.10502 
-14.0627 0.451886 -1.63609 -15.2186 0.13124 -2.08135 -16.0979 -0.0915583 -2.66486 
-16.3352 -0.0332002 -3.18186 -16.0807 0.320897 -3.37363 -15.8943 0.735367 -3.10832 
-15.9992 0.94576 -2.51658 -16.1395 0.952179 -1.86173 -16.0711 0.979759 -1.2879 
-14.3936 -0.157676 -1.7106 -15.6535 -1.18741 -2.02468 -16.4748 -2.27245 -2.19467 
-16.9286 -3.39926 -2.17977 -17.4397 -4.69314 -2.05419 -18.0446 -6.08769 -1.84568 
-18.184 -7.14874 -1.46371 -17.6741 -7.52499 -0.841316 -17.0934 -7.32489 -0.0673431 
11.5904 0.230038 -2.94268 10.9584 0.870916 -3.1348 10.1816 1.49837 -3.32418 
9.11975 2.12191 -3.36221 7.82792 2.69337 -3.17596 6.43877 3.06584 -2.94432 
4.82743 3.18707 -2.86227 2.82586 3.23646 -2.86209 0.630106 3.44866 -2.76793 
11.9143 -0.883135 -2.91314 11.5613 -1.39808 -3.08382 10.9612 -1.89457 -3.31085 
10.1235 -2.27933 -3.522 9.28635 -2.45083 -3.51351 8.4702 -2.34418 -3.15184 
7.25157 -2.00016 -2.57782 5.34346 -1.59492 -2.05348 3.01625 -1.3146 -1.69206 
13.0974 -0.150247 -2.37957 13.9841 0.262094 -1.99817 14.7885 0.818046 -1.74294 
15.4577 1.44263 -1.65855 15.9701 2.11039 -1.62928 16.3433 2.88086 -1.50218 
16.568 3.73569 -1.27042 16.6205 4.49837 -0.971251 16.5415 4.99455 -0.56118 
13.2275 -0.858474 -2.30779 14.0609 -1.24077 -1.74503 14.649 -1.65321 -1.24842 
15.1495 -2.33729 -1.039 15.7438 -3.35629 -1.21162 16.44 -4.42485 -1.587 
17.083 -5.23197 -1.8198 17.499 -5.74534 -1.67857 17.6042 -6.07505 -1.19323 
-8.91587 1.84506 3.3048 -6.99827 1.77541 2.93869 -4.88164 1.48137 2.30589 
-2.32826 1.01014 1.65184 0.563766 0.452074 1.43286 3.14475 -0.118028 1.71773 
4.99448 -0.59519 2.10937 6.44002 -0.844038 2.39287 7.95085 -0.839554 2.7297 
-10.0152 2.21902 3.47977 -9.40386 2.67646 3.40299 -8.77697 3.10554 3.14785 
-7.86018 3.55968 2.73746 -6.54762 4.04201 2.3671 -5.25812 4.44768 2.139 
-4.47183 4.60575 1.87003 -4.00755 4.40921 1.35887 -3.26472 3.95036 0.687579 
-10.251 1.32358 3.43959 -9.58754 0.899916 3.42997 -8.74099 0.481816 3.34006 
-7.79641 0.081683 3.04513 -6.75651 -0.293159 2.56271 -5.50853 -0.604819 2.00829 
-3.99491 -0.839009 1.46235 -2.31894 -1.08866 0.986546 -0.652898 -1.48474 0.6494 
-11.8647 1.81011 3.64897 -12.8267 1.82819 3.7732 -13.6103 1.78147 3.64586 
-14.3543 1.701 3.12916 -15.0834 1.61222 2.35676 -15.6431 1.48789 1.5589 
-15.9336 1.29319 0.821461 -16.0151 1.09596 0.161914 -15.9585 1.04257 -0.372732 
-12.2532 1.21253 3.59458 -13.7812 0.567567 3.7717 -14.9421 -0.226277 3.92004 
-15.8276 -1.33318 3.76624 -16.9042 -2.84801 3.2653 -18.1316 -4.47251 2.74054 
-18.7822 -5.72919 2.36851 -18.479 -6.4497 1.95414 -17.6686 -6.78105 1.34919 
9.19501 -0.325388 3.20324 8.76425 0.0593397 3.03728 8.36865 0.517359 2.8127 
7.86479 1.05323 2.47097 6.91127 1.53991 1.86087 5.39129 1.8673 1.07785 
3.52536 2.10129 0.461254 1.56446 2.40149 0.172195 -0.318176 2.86383 0.0986494 
8.88711 -1.22038 2.80571 8.26476 -1.74111 2.42824 7.77836 -2.17705 2.27866 
7.31642 -2.5001 2.33764 6.55065 -2.78038 2.31429 5.35321 -3.02938 2.00803 
4.0542 -3.11562 1.54839 2.9637 -2.93155 1.1199 1.98031 -2.52992 0.758055 
11.0812 -0.303052 3.88759 12.5576 0.0971766 4.40086 13.6438 0.495183 4.3657 
14.3025 0.980676 3.71019 14.8242 1.60368 2.86128 15.4281 2.32593 2.22595 
16.0509 3.12224 1.74933 16.4883 3.9572 1.20704 16.5964 4.69498 0.577441 
10.7391 -0.932559 3.5047 11.8639 -1.34064 3.60368 13.0491 -1.93507 3.46034 
14.4057 -2.6003 3.12293 15.7215 -3.21237 2.68192 16.6367 -3.7656 2.15279 
17.1081 -4.33802 1.52982 17.3282 -4.97756 0.853434 17.4177 -5.65316 0.155101 
-1.55729 4.19571 -2.23227 -1.69755 4.50636 -1.92929 -1.75981 4.76635 -1.58593 
-1.75812 4.92041 -1.12701 -1.70317 4.92582 -0.659434 -1.62872 4.73874 -0.41578 
-1.61778 4.38392 -0.393983 -1.71671 3.99296 -0.349154 -1.86434 3.68741 -0.15094 
1.40648 3.58699 -2.4625 4.41554 3.64769 -2.22222 7.32318 4.05699 -1.78758 
9.94525 4.56473 -1.42947 12.1176 4.94734 -1.38502 13.6212 5.24278 -1.43623 
14.5021 5.55431 -1.23917 15.1187 5.76016 -0.813744 15.7452 5.64618 -0.378222 
-3.81353 4.71993 -2.38338 -5.59607 5.74656 -2.21528 -6.73873 6.50799 -2.03812 
-7.96181 6.64345 -1.7296 -9.74459 6.23615 -1.23381 -11.6311 5.53621 -0.752679 
-13.0355 4.57932 -0.539929 -14.0313 3.37899 -0.596172 -14.9279 2.16681 -0.72647 
1.06299 2.92579 -0.0681746 4.71902 3.11872 0.475741 7.73088 3.86634 1.37602 
9.34172 4.34978 1.79379 10.4341 4.22756 1.48915 12.1372 4.17312 1.07578 
14.0637 4.67532 0.918576 15.3085 5.28718 0.752977 15.9066 5.46008 0.391707 
-4.10722 4.58966 0.621863 -5.60444 5.73589 1.25766 -6.74332 6.32832 1.62168 
-7.9891 6.27185 1.66504 -9.39338 6.04468 1.69374 -10.7707 5.78621 1.72515 
-12.1366 5.04713 1.40806 -13.5186 3.70926 0.674926 -14.772 2.27489 -0.14289 
0.964712 -1.54863 -1.56784 1.23435 -1.92393 -1.70484 1.42668 -2.23482 -1.74757 
1.3666 -2.38969 -1.60283 1.08556 -2.41158 -1.28937 0.847218 -2.39579 -0.89555 
0.827784 -2.37528 -0.489191 0.926005 -2.31077 -0.113173 0.957951 -2.19092 0.20457 
4.52961 -1.99277 -1.94591 7.76744 -3.3312 -2.32105 9.51938 -4.93133 -2.49949 
10.3035 -6.19574 -2.58715 11.7689 -6.85308 -2.67185 14.2736 -7.25068 -2.62809 
16.3888 -7.64375 -2.28617 17.2073 -7.72893 -1.70116 17.2861 -7.21467 -1.08307 
-2.69863 -1.05059 -0.979074 -5.53257 -1.12523 -0.5565 -7.66687 -1.37117 -0.420129 
-9.82937 -1.85448 -0.648039 -12.2987 -2.59401 -0.841344 -14.3151 -3.44033 -0.611501 
-15.3487 -4.33424 -0.170939 -15.8306 -5.31537 0.130495 -16.3356 -6.24658 0.349351 
2.98643 -3.1427 0.600118 4.94089 -4.34493 0.857044 6.78386 -5.264 0.99071 
8.72884 -5.68497 0.862891 10.9375 -5.90155 0.634371 13.2181 -6.3506 0.525845 
15.0828 -6.95182 0.473003 16.2607 -7.22708 0.25919 16.9367 -6.94278 -0.142295 
-1.54615 -1.30286 0.422448 -4.43142 -0.955943 0.658003 -7.23925 -1.17398 0.937608 
-9.5667 -1.75426 0.896748 -11.6462 -2.39267 0.59533 -13.7721 -3.06866 0.518168 
-15.5557 -3.93376 0.810019 -16.5023 -4.97628 1.08195 -16.7948 -6.01732 1.01931 
17.3253 4.44461 -0.0308523 18.5001 3.6292 0.12641 19.4531 2.76783 0.55775 
19.8328 1.55948 1.15957 19.9695 -0.0810329 1.57809 20.1893 -1.65055 1.45744 
20.0524 -2.80451 0.819438 19.2104 -3.84253 0.0833964 18.1392 -5.05412 -0.381208 
-16.7867 0.337983 -0.955296 -17.6704 -0.411988 -0.949209 -18.3108 -1.47593 -0.93118 
-18.688 -3.11365 -0.985043 -18.8321 -4.91375 -0.828371 -18.7825 -6.27898 -0.273922 
-18.5578 -7.10188 0.329915 -18.1432 -7.4987 0.615112 -17.5781 -7.4298 0.657357 
-10.4128 1.71808 -1.27025 -9.26112 2.25589 -1.46447 -8.49488 1.72686 -1.5759 
-7.91709 2.7456 -1.89115 -7.19211 2.08763 -1.98677 -5.89929 1.46967 -1.97196 
-6.51587 3.14861 -2.46978 -5.71728 2.35399 -2.48191 -4.28795 1.70064 -2.45251 
-2.38962 1.23025 -2.3107 -5.25293 3.4073 -3.00902 -4.14606 2.54835 -2.87502 
-2.51593 1.87671 -2.84221 -0.479446 1.42518 -2.79746 1.49321 1.17065 -2.66107 
-4.02664 3.5063 -3.28045 -2.47877 2.73177 -3.07615 -0.613011 2.11318 -3.02303 
1.4822 1.66136 -3.12228 3.4229 1.36459 -3.15276 4.95393 1.13256 -3.07873 
-2.57376 3.49711 -3.22766 -0.650346 2.92284 -3.10397 1.36973 2.47851 -3.0452 
3.39046 2.06621 -3.21972 5.22953 1.66773 -3.43151 6.64341 1.31091 -3.4552 
7.71479 0.908877 -3.36969 -0.933218 3.457 -3.00663 1.21029 3.09087 -3.01947 
3.26065 2.8733 -2.98864 5.08035 2.59475 -3.13756 6.72342 2.15026 -3.41899 
8.08849 1.6345 -3.55517 9.08682 1.11687 -3.46686 9.89133 0.546227 -3.31311 
-13.2335 1.21494 -1.40275 -14.4435 1.03287 -1.7682 -12.0824 2.08608 -1.17367 
-15.2964 0.978717 -2.3123 -13.1436 2.14324 -1.35651 -10.4989 3.07373 -1.17188 
-15.4292 1.17356 -2.82988 -13.846 2.28155 -1.77005 -11.2678 3.39714 -1.22455 
-8.75336 4.05938 -1.67718 -15.1332 1.52798 -2.98998 -13.9853 2.50929 -2.20015 
-11.8666 3.63584 -1.5162 -9.33206 4.55533 -1.74143 -7.44073 4.79889 -2.56728 
-14.9781 1.80518 -2.63964 -13.9043 2.75693 -2.26124 -12.2285 3.80011 -1.76464 
-9.93712 4.80732 -1.86063 -7.97909 5.36947 -2.56451 -6.7015 5.13918 -3.20062 
-15.0618 1.8999 -1.98536 -13.9619 2.9579 -1.84407 -12.5361 3.99551 -1.62642 
-10.5111 4.95904 -1.76248 -8.49714 5.68468 -2.33622 -7.17784 5.78321 -2.91732 
-6.03536 5.14375 -3.17166 -15.106 1.95651 -1.31799 -14.0824 3.13568 -1.20938 
-12.8598 4.26893 -1.12988 -11.1022 5.20763 -1.33851 -9.05279 5.93771 -1.85257 
-7.5007 6.25603 -2.36411 -6.46415 5.88008 -2.64479 -5.05594 4.96617 -2.75479 
-13.9027 3.46165 -0.0185689 -12.6657 4.89451 0.685458 -13.0436 4.72721 0.0471212 
-11.2888 5.90897 1.13869 -11.8351 5.90466 0.511189 -11.9946 5.7718 -0.117847 
-9.81356 6.35289 1.31396 -10.423 6.58649 0.792809 -10.7509 6.65375 0.142004 
-10.4405 6.51508 -0.559463 -8.30912 6.61795 1.42297 -8.8821 6.9569 1.05573 
-9.3865 7.17814 0.424205 -9.26596 7.19421 -0.360591 -8.60023 6.98658 -1.09308 
-6.98603 6.7096 1.42073 -7.40447 7.09265 1.20537 -7.96623 7.37303 0.713959 
-8.14312 7.46291 -0.0895331 -7.68588 7.32406 -0.884998 -7.06882 6.97524 -1.49568 
-5.79818 6.12348 1.02188 -6.00973 6.54164 0.882465 -6.40281 6.89584 0.637233 
[...]
POINT_DATA 1002
FIELD FieldData 4
_paraPhi 1 1002 double
6.2831853072 3.1415926536 6.2831853072 3.1415926536 4.7123889804 4.7123889804 1.5707963268 1.5707963268 3.6951670125 
5.7296109483 2.5880182947 0.5535743589 6.2831853072 6.2831853072 6.2831853072 6.2831853072 3.1415926536 3.1415926536 
3.1415926536 3.1415926536 3.1415926536 6.1053039672 5.898798347 5.6768734901 5.4599499503 5.2659633393 5.1032165617 
4.9713148346 4.8656852733 4.7809517865 0.17788134 0.38438696014 0.60631181711 0.82323535693 1.0172219679 1.1799687454 
1.3118704726 1.4175000338 1.5022335207 6.1892828907 6.1070320098 6.035312792 5.9728339911 5.9183214791 5.8706119594 
5.8286879411 5.7916808611 5.7588591896 0.093902416448 0.17615329733 0.2478725152 0.31035131605 0.36486382811 0.41257334776 
0.45449736604 0.4915044461 0.52432611754 3.3194739936 3.5259796137 3.7479044707 3.9648280105 4.1588146215 4.321561399 
4.4534631262 4.5590926874 4.6438261743 2.9637113136 2.7572056934 2.5352808365 2.3183572967 2.1243706857 1.9616239082 
1.829722181 1.7240926197 1.6393591329 3.23549507 3.3177459509 3.3894651688 3.4519439696 3.5064564817 3.5541660013 
3.5960900196 3.6330970997 3.6659187711 3.0476902371 2.9654393563 2.8937201384 2.8312413375 2.7767288255 2.7290193058 
2.6870952876 2.6500882075 2.617266536 6.2831853072 6.2831853072 6.2831853072 6.2831853072 3.1415926536 3.1415926536 
3.1415926536 3.1415926536 3.1415926536 6.1053039672 5.898798347 5.6768734901 5.4599499503 5.2659633393 5.1032165617 
4.9713148346 4.8656852733 4.7809517865 0.17788134 0.38438696014 0.60631181711 0.82323535693 1.0172219679 1.1799687454 
1.3118704726 1.4175000338 1.5022335207 6.1892828907 6.1070320098 6.035312792 5.9728339911 5.9183214791 5.8706119594 
5.8286879411 5.7916808611 5.7588591896 0.093902416448 0.17615329733 0.2478725152 0.31035131605 0.36486382811 0.41257334776 
0.45449736604 0.4915044461 0.52432611754 3.3194739936 3.5259796137 3.7479044707 3.9648280105 4.1588146215 4.321561399 
4.4534631262 4.5590926874 4.6438261743 2.9637113136 2.7572056934 2.5352808365 2.3183572967 2.1243706857 1.9616239082 
1.829722181 1.7240926197 1.6393591329 3.23549507 3.3177459509 3.3894651688 3.4519439696 3.5064564817 3.5541660013 
3.5960900196 3.6330970997 3.6659187711 3.0476902371 2.9654393563 2.8937201384 2.8312413375 2.7767288255 2.7290193058 
2.6870952876 2.6500882075 2.617266536 4.7123889804 4.7123889804 4.7123889804 4.7123889804 4.7123889804 4.7123889804 
4.7123889804 4.7123889804 4.7123889804 4.6087898617 4.4991390697 4.3857031936 4.2712800401 4.1588146215 4.0509635631 
3.94975894 3.8564636551 3.7716124825 4.8159880991 4.9256388911 5.0390747672 5.1534979207 5.2659633393 5.3738143976 
5.4750190208 5.5683143056 5.6531654782 4.6087898617 4.4991390697 4.3857031936 4.2712800401 4.1588146215 4.0509635631 
3.94975894 3.8564636551 3.7716124825 4.8159880991 4.9256388911 5.0390747672 5.1534979207 5.2659633393 5.3738143976 
5.4750190208 5.5683143056 5.6531654782 1.5707963268 1.5707963268 1.5707963268 1.5707963268 1.5707963268 1.5707963268 
1.5707963268 1.5707963268 1.5707963268 1.6743954455 1.7840462375 1.8974821136 2.0119052671 2.1243706857 2.232221744 
2.3334263672 2.426721652 2.5115728246 1.4671972081 1.3575464161 1.24411054 1.1296873865 1.0172219679 0.90937090954 
0.80816628637 0.71487100155 0.63001982895 1.6743954455 1.7840462375 1.8974821136 2.0119052671 2.1243706857 2.232221744 
2.3334263672 2.426721652 2.5115728246 1.4671972081 1.3575464161 1.24411054 1.1296873865 1.0172219679 0.90937090954 
0.80816628637 0.71487100155 0.63001982895 3.6007720849 3.4966939854 3.3839471039 3.2645756454 3.1415926536 3.0186096618 
2.8992382033 2.7864913217 2.6824132222 5.8240058758 5.9280839753 6.0408308569 6.1602023154 6.2831853072 0.12298299178 
0.2423544503 0.35510133185 0.45917943135 6.0560271438 5.7885595667 5.9702140275 5.5125918794 5.6029703303 5.7885595667 
5.2659633393 5.2659633393 5.2659633393 5.2659633393 5.0674903122 5.0120975802 4.9155579264 4.7123889804 4.1588146215 
4.9155579264 4.8353719722 4.7123889804 4.5092200343 4.1588146215 3.6362183941 4.8004512023 4.7123889804 4.5894059886 
4.4126803806 4.1588146215 3.8218076305 3.4545639333 4.7123889804 4.6243267584 4.5092200343 4.3572876485 4.1588146215 
3.9121860814 3.6362183941 3.368750817 6.0174235957 5.9434319871 5.8263323547 5.8809213739 5.7674481418 5.6279784266 
5.8278025282 5.718968232 5.5891129425 5.4372443565 5.7823484065 5.678536687 5.5575666702 5.4192596322 5.2659633393 
5.743164462 5.6444075337 5.5314983644 5.4046708639 5.2659633393 5.1195510325 5.7091357773 5.6152775188 5.5096229709 
5.3926039573 5.2659633393 5.1329233157 4.9978930058 5.6793730533 5.5901633916 5.4910209005 5.3824597928 5.2659633393 
5.1440684722 5.0201624502 4.8979782167 5.5683143056 5.4750190208 5.4750190208 5.3738143976 5.3738143976 5.3738143976 
5.2659633393 5.2659633393 5.2659633393 5.2659633393 5.1534979207 5.1534979207 5.1534979207 5.1534979207 5.1534979207 
5.0390747672 5.0390747672 5.0390747672 5.0390747672 5.0390747672 5.0390747672 4.9256388911 4.9256388911 4.9256388911 
4.9256388911 4.9256388911 4.9256388911 4.9256388911 4.8159880991 4.8159880991 4.8159880991 4.8159880991 4.8159880991 
4.8159880991 4.8159880991 4.8159880991 4.6087898617 4.6087898617 4.4991390697 4.6087898617 4.4991390697 4.3857031936 
4.6087898617 4.4991390697 4.3857031936 4.2712800401 4.6087898617 4.4991390697 4.3857031936 4.2712800401 4.1588146215 
4.6087898617 4.4991390697 4.3857031936 4.2712800401 4.1588146215 4.0509635631 4.6087898617 4.4991390697 4.3857031936 
4.2712800401 4.1588146215 4.0509635631 3.94975894 4.6087898617 4.4991390697 4.3857031936 4.2712800401 4.1588146215 
4.0509635631 3.94975894 3.8564636551 4.526799744 4.4046155105 4.426884955 4.2807094886 4.2918546451 4.3052269283 
4.1588146215 4.1588146215 4.1588146215 4.1588146215 4.042318168 4.0321740035 4.0201070968 4.0055183285 3.9875336042 
3.9337570603 3.9151549899 3.8932795963 3.8672112905 3.8356650183 3.7967995342 3.8346145692 3.809500442 3.7803704271 
3.7462412737 3.7058097288 3.657329819 3.5984456061 3.7454049075 3.7156421835 3.6816134988 3.6424295543 3.5969754326 
3.5438565869 3.4813459737 3.4073543651 3.5642842451 3.4524645613 3.5233842518 3.3320300872 3.403123212 3.4773852225 
3.20576226 3.2746326772 3.348015857 3.4255060145 3.0774230472 3.1415926536 3.2112816139 3.2864685043 3.3668817272 
2.95115522 3.00855263 3.0719036933 3.1415926536 3.2178377658 3.3005964304 2.8307207459 2.8800620952 2.9351694502 
2.9967168029 3.0653475414 3.1415926536 3.225752376 2.718901062 2.7598010554 2.8058000847 2.8576792927 2.91630358 
2.9825888767 3.0574329311 3.1415926536 3.5642842451 3.5233842518 3.4524645613 3.4773852225 3.403123212 3.3320300872 
3.4255060145 3.348015857 3.2746326772 3.20576226 3.3668817272 3.2864685043 3.2112816139 3.1415926536 3.0774230472 
3.3005964304 3.2178377658 3.1415926536 3.0719036933 3.00855263 2.95115522 3.225752376 3.1415926536 3.0653475414 
2.9967168029 2.9351694502 2.8800620952 2.8307207459 3.1415926536 3.0574329311 2.9825888767 2.91630358 2.8576792927 
2.8058000847 2.7598010554 2.718901062 4.526799744 4.426884955 4.4046155105 4.3052269283 4.2918546451 4.2807094886 
4.1588146215 4.1588146215 4.1588146215 4.1588146215 3.9875336042 4.0055183285 4.0201070968 4.0321740035 4.042318168 
3.7967995342 3.8356650183 3.8672112905 3.8932795963 3.9151549899 3.9337570603 3.5984456061 3.657329819 3.7058097288 
3.7462412737 3.7803704271 3.809500442 3.8346145692 3.4073543651 3.4813459737 3.5438565869 3.5969754326 3.6424295543 
3.6816134988 3.7156421835 3.7454049075 4.7123889804 4.8004512023 4.6243267584 4.9155579264 4.7123889804 4.5092200343 
5.0674903122 4.8353719722 4.5894059886 4.3572876485 5.2659633393 5.0120975802 4.7123889804 4.4126803806 4.1588146215 
5.5125918794 5.2659633393 4.9155579264 4.5092200343 4.1588146215 3.9121860814 5.7885595667 5.6029703303 5.2659633393 
4.7123889804 4.1588146215 3.8218076305 3.6362183941 6.0560271438 5.9702140275 5.7885595667 5.2659633393 4.1588146215 
3.6362183941 3.4545639333 3.368750817 0.22715816343 0.49462574053 0.3129712797 0.77059342779 0.68021497688 0.49462574053 
1.0172219679 1.0172219679 1.0172219679 1.0172219679 1.2156949949 1.271087727 1.3676273807 1.5707963268 2.1243706857 
1.3676273807 1.447813335 1.5707963268 1.7739652728 2.1243706857 2.6469669131 1.4827341049 1.5707963268 1.6937793186 
1.8705049266 2.1243706857 2.4613776767 2.8286213739 1.5707963268 1.6588585487 1.7739652728 1.9258976586 2.1243706857 
2.3709992258 2.6469669131 2.9144344902 1.7563855631 1.8785697967 1.8563003522 2.0024758186 1.9913306621 1.9779583789 
2.1243706857 2.1243706857 2.1243706857 2.1243706857 2.2408671392 2.2510113037 2.2630782103 2.2776669786 2.295651703 
2.3494282469 2.3680303173 2.3899057108 2.4159740166 2.4475202889 2.486385773 2.448570738 2.4736848652 2.5028148801 
2.5369440334 2.5773755784 2.6258554882 2.6847397011 2.5377803997 2.5675431237 2.6015718084 2.6407557529 2.6862098746 
2.7393287203 2.8018393335 2.8758309421 1.6743954455 1.6743954455 1.7840462375 1.6743954455 1.7840462375 1.8974821136 
1.6743954455 1.7840462375 1.8974821136 2.0119052671 1.6743954455 1.7840462375 1.8974821136 2.0119052671 2.1243706857 
1.6743954455 1.7840462375 1.8974821136 2.0119052671 2.1243706857 2.232221744 1.6743954455 1.7840462375 1.8974821136 
2.0119052671 2.1243706857 2.232221744 2.3334263672 1.6743954455 1.7840462375 1.8974821136 2.0119052671 2.1243706857 
2.232221744 2.3334263672 2.426721652 1.4671972081 1.3575464161 1.4671972081 1.24411054 1.3575464161 1.4671972081 
1.1296873865 1.24411054 1.3575464161 1.4671972081 1.0172219679 1.1296873865 1.24411054 1.3575464161 1.4671972081 
0.90937090954 1.0172219679 1.1296873865 1.24411054 1.3575464161 1.4671972081 0.80816628637 0.90937090954 1.0172219679 
1.1296873865 1.24411054 1.3575464161 1.4671972081 0.71487100155 0.80816628637 0.90937090954 1.0172219679 1.1296873865 
1.24411054 1.3575464161 1.4671972081 0.60381225391 0.57404952988 0.69302191562 0.54002084522 0.66790778838 0.79216440667 
0.50083690068 0.63877777351 0.77356233629 0.90072551443 0.45538277901 0.60464862014 0.75168694275 0.89058134991 1.0172219679 
0.40226393329 0.56421707518 0.72561863695 0.87851444325 1.0172219679 1.139116835 0.33975332011 0.51573716537 0.69407236469 
0.86392567495 1.0172219679 1.1502619915 1.2630228569 0.26576171152 0.45685295248 0.6552068806 0.84594095064 1.0172219679 
1.1636342747 1.2852923014 1.3852070904 0.22715816343 0.3129712797 0.49462574053 0.49462574053 0.68021497688 0.77059342779 
1.0172219679 1.0172219679 1.0172219679 1.0172219679 2.1243706857 1.5707963268 1.3676273807 1.271087727 1.2156949949 
2.6469669131 2.1243706857 1.7739652728 1.5707963268 1.447813335 1.3676273807 2.8286213739 2.4613776767 2.1243706857 
1.8705049266 1.6937793186 1.5707963268 1.4827341049 2.9144344902 2.6469669131 2.3709992258 2.1243706857 1.9258976586 
1.7739652728 1.6588585487 1.5707963268 1.7563855631 1.8563003522 1.8785697967 1.9779583789 1.9913306621 2.0024758186 
2.1243706857 2.1243706857 2.1243706857 2.1243706857 2.295651703 2.2776669786 2.2630782103 2.2510113037 2.2408671392 
2.486385773 2.4475202889 2.4159740166 2.3899057108 2.3680303173 2.3494282469 2.6847397011 2.6258554882 2.5773755784 
2.5369440334 2.5028148801 2.4736848652 2.448570738 2.8758309421 2.8018393335 2.7393287203 2.6862098746 2.6407557529 
2.6015718084 2.5675431237 2.5377803997 5.8604937156 5.901393709 5.9723133995 5.9473927383 6.0216547488 6.0927478736 
5.9992719463 6.0767621038 6.1501452836 6.2190157008 6.0578962336 6.1383094565 6.2134963469 0 0.064169606361 
6.1241815303 6.206940195 6.2831853072 0.069688960264 0.13304002361 0.19043743361 6.1990255847 0 0.07624511221 
0.14487585072 0.20642320337 0.26153055843 0.3108719077 0 0.084159722458 0.15900377685 0.22528907359 0.28391336087 
0.3357925689 0.38179159818 0.42269159155 5.8604937156 5.9723133995 5.901393709 6.0927478736 6.0216547488 5.9473927383 
6.2190157008 6.1501452836 6.0767621038 5.9992719463 0.064169606361 0 6.2134963469 6.1383094565 6.0578962336 
0.19043743361 0.13304002361 0.069688960264 6.2831853072 6.206940195 6.1241815303 0.3108719077 0.26153055843 0.20642320337 
0.14487585072 0.07624511221 6.2831853072 6.1990255847 0.42269159155 0.38179159818 0.3357925689 0.28391336087 0.22528907359 
0.15900377685 0.084159722458 0 5.6793730533 5.7091357773 5.5901633916 5.743164462 5.6152775188 5.4910209005 
5.7823484065 5.6444075337 5.5096229709 5.3824597928 5.8278025282 5.678536687 5.5314983644 5.3926039573 5.2659633393 
5.8809213739 5.718968232 5.5575666702 5.4046708639 5.2659633393 5.1440684722 5.9434319871 5.7674481418 5.5891129425 
5.4192596322 5.2659633393 5.1329233157 5.0201624502 6.0174235957 5.8263323547 5.6279784266 5.4372443565 5.2659633393 
5.1195510325 4.9978930058 4.8979782167 1.3852070904 1.2852923014 1.2630228569 1.1636342747 1.1502619915 1.139116835 
1.0172219679 1.0172219679 1.0172219679 1.0172219679 0.84594095064 0.86392567495 0.87851444325 0.89058134991 0.90072551443 
0.6552068806 0.69407236469 0.72561863695 0.75168694275 0.77356233629 0.79216440667 0.45685295248 0.51573716537 0.56421707518 
0.60464862014 0.63877777351 0.66790778838 0.69302191562 0.26576171152 0.33975332011 0.40226393329 0.45538277901 0.50083690068 
0.54002084522 0.57404952988 0.60381225391 
_paraPhiHalf 1 1002 double
0 3.1415926536 0 3.1415926536 1.5707963268 1.5707963268 1.5707963268 1.5707963268 2.5880182947 
0.5535743589 2.5880182947 0.5535743589 0 0 0 0 3.1415926536 3.1415926536 
3.1415926536 3.1415926536 3.1415926536 0.17788134 0.38438696014 0.60631181711 0.82323535693 1.0172219679 1.1799687454 
1.3118704726 1.4175000338 1.5022335207 0.17788134 0.38438696014 0.60631181711 0.82323535693 1.0172219679 1.1799687454 
1.3118704726 1.4175000338 1.5022335207 0.093902416448 0.17615329733 0.2478725152 0.31035131605 0.36486382811 0.41257334776 
0.45449736604 0.4915044461 0.52432611754 0.093902416448 0.17615329733 0.2478725152 0.31035131605 0.36486382811 0.41257334776 
0.45449736604 0.4915044461 0.52432611754 2.9637113136 2.7572056934 2.5352808365 2.3183572967 2.1243706857 1.9616239082 
1.829722181 1.7240926197 1.6393591329 2.9637113136 2.7572056934 2.5352808365 2.3183572967 2.1243706857 1.9616239082 
1.829722181 1.7240926197 1.6393591329 3.0476902371 2.9654393563 2.8937201384 2.8312413375 2.7767288255 2.7290193058 
2.6870952876 2.6500882075 2.617266536 3.0476902371 2.9654393563 2.8937201384 2.8312413375 2.7767288255 2.7290193058 
2.6870952876 2.6500882075 2.617266536 0 0 0 0 3.1415926536 3.1415926536 
3.1415926536 3.1415926536 3.1415926536 0.17788134 0.38438696014 0.60631181711 0.82323535693 1.0172219679 1.1799687454 
1.3118704726 1.4175000338 1.5022335207 0.17788134 0.38438696014 0.60631181711 0.82323535693 1.0172219679 1.1799687454 
1.3118704726 1.4175000338 1.5022335207 0.093902416448 0.17615329733 0.2478725152 0.31035131605 0.36486382811 0.41257334776 
0.45449736604 0.4915044461 0.52432611754 0.093902416448 0.17615329733 0.2478725152 0.31035131605 0.36486382811 0.41257334776 
0.45449736604 0.4915044461 0.52432611754 2.9637113136 2.7572056934 2.5352808365 2.3183572967 2.1243706857 1.9616239082 
1.829722181 1.7240926197 1.6393591329 2.9637113136 2.7572056934 2.5352808365 2.3183572967 2.1243706857 1.9616239082 
1.829722181 1.7240926197 1.6393591329 3.0476902371 2.9654393563 2.8937201384 2.8312413375 2.7767288255 2.7290193058 
2.6870952876 2.6500882075 2.617266536 3.0476902371 2.9654393563 2.8937201384 2.8312413375 2.7767288255 2.7290193058 
2.6870952876 2.6500882075 2.617266536 1.5707963268 1.5707963268 1.5707963268 1.5707963268 1.5707963268 1.5707963268 
1.5707963268 1.5707963268 1.5707963268 1.6743954455 1.7840462375 1.8974821136 2.0119052671 2.1243706857 2.232221744 
2.3334263672 2.426721652 2.5115728246 1.4671972081 1.3575464161 1.24411054 1.1296873865 1.0172219679 0.90937090954 
0.80816628637 0.71487100155 0.63001982895 1.6743954455 1.7840462375 1.8974821136 2.0119052671 2.1243706857 2.232221744 
2.3334263672 2.426721652 2.5115728246 1.4671972081 1.3575464161 1.24411054 1.1296873865 1.0172219679 0.90937090954 
0.80816628637 0.71487100155 0.63001982895 1.5707963268 1.5707963268 1.5707963268 1.5707963268 1.5707963268 1.5707963268 
1.5707963268 1.5707963268 1.5707963268 1.6743954455 1.7840462375 1.8974821136 2.0119052671 2.1243706857 2.232221744 
2.3334263672 2.426721652 2.5115728246 1.4671972081 1.3575464161 1.24411054 1.1296873865 1.0172219679 0.90937090954 
0.80816628637 0.71487100155 0.63001982895 1.6743954455 1.7840462375 1.8974821136 2.0119052671 2.1243706857 2.232221744 
2.3334263672 2.426721652 2.5115728246 1.4671972081 1.3575464161 1.24411054 1.1296873865 1.0172219679 0.90937090954 
0.80816628637 0.71487100155 0.63001982895 2.6824132222 2.7864913217 2.8992382033 3.0186096618 3.1415926536 3.0186096618 
2.8992382033 2.7864913217 2.6824132222 0.45917943135 0.35510133185 0.2423544503 0.12298299178 0 0.12298299178 
0.2423544503 0.35510133185 0.45917943135 0.22715816343 0.49462574053 0.3129712797 0.77059342779 0.68021497688 0.49462574053 
1.0172219679 1.0172219679 1.0172219679 1.0172219679 1.2156949949 1.271087727 1.3676273807 1.5707963268 2.1243706857 
1.3676273807 1.447813335 1.5707963268 1.7739652728 2.1243706857 2.6469669131 1.4827341049 1.5707963268 1.6937793186 
1.8705049266 2.1243706857 2.4613776767 2.8286213739 1.5707963268 1.6588585487 1.7739652728 1.9258976586 2.1243706857 
2.3709992258 2.6469669131 2.9144344902 0.26576171152 0.33975332011 0.45685295248 0.40226393329 0.51573716537 0.6552068806 
0.45538277901 0.56421707518 0.69407236469 0.84594095064 0.50083690068 0.60464862014 0.72561863695 0.86392567495 1.0172219679 
0.54002084522 0.63877777351 0.75168694275 0.87851444325 1.0172219679 1.1636342747 0.57404952988 0.66790778838 0.77356233629 
0.89058134991 1.0172219679 1.1502619915 1.2852923014 0.60381225391 0.69302191562 0.79216440667 0.90072551443 1.0172219679 
1.139116835 1.2630228569 1.3852070904 0.71487100155 0.80816628637 0.80816628637 0.90937090954 0.90937090954 0.90937090954 
1.0172219679 1.0172219679 1.0172219679 1.0172219679 1.1296873865 1.1296873865 1.1296873865 1.1296873865 1.1296873865 
1.24411054 1.24411054 1.24411054 1.24411054 1.24411054 1.24411054 1.3575464161 1.3575464161 1.3575464161 
1.3575464161 1.3575464161 1.3575464161 1.3575464161 1.4671972081 1.4671972081 1.4671972081 1.4671972081 1.4671972081 
1.4671972081 1.4671972081 1.4671972081 1.6743954455 1.6743954455 1.7840462375 1.6743954455 1.7840462375 1.8974821136 
1.6743954455 1.7840462375 1.8974821136 2.0119052671 1.6743954455 1.7840462375 1.8974821136 2.0119052671 2.1243706857 
1.6743954455 1.7840462375 1.8974821136 2.0119052671 2.1243706857 2.232221744 1.6743954455 1.7840462375 1.8974821136 
2.0119052671 2.1243706857 2.232221744 2.3334263672 1.6743954455 1.7840462375 1.8974821136 2.0119052671 2.1243706857 
2.232221744 2.3334263672 2.426721652 1.7563855631 1.8785697967 1.8563003522 2.0024758186 1.9913306621 1.9779583789 
2.1243706857 2.1243706857 2.1243706857 2.1243706857 2.2408671392 2.2510113037 2.2630782103 2.2776669786 2.295651703 
2.3494282469 2.3680303173 2.3899057108 2.4159740166 2.4475202889 2.486385773 2.448570738 2.4736848652 2.5028148801 
2.5369440334 2.5773755784 2.6258554882 2.6847397011 2.5377803997 2.5675431237 2.6015718084 2.6407557529 2.6862098746 
2.7393287203 2.8018393335 2.8758309421 2.718901062 2.8307207459 2.7598010554 2.95115522 2.8800620952 2.8058000847 
3.0774230472 3.00855263 2.9351694502 2.8576792927 3.0774230472 3.1415926536 3.0719036933 2.9967168029 2.91630358 
2.95115522 3.00855263 3.0719036933 3.1415926536 3.0653475414 2.9825888767 2.8307207459 2.8800620952 2.9351694502 
2.9967168029 3.0653475414 3.1415926536 3.0574329311 2.718901062 2.7598010554 2.8058000847 2.8576792927 2.91630358 
2.9825888767 3.0574329311 3.1415926536 2.718901062 2.7598010554 2.8307207459 2.8058000847 2.8800620952 2.95115522 
2.8576792927 2.9351694502 3.00855263 3.0774230472 2.91630358 2.9967168029 3.0719036933 3.1415926536 3.0774230472 
2.9825888767 3.0653475414 3.1415926536 3.0719036933 3.00855263 2.95115522 3.0574329311 3.1415926536 3.0653475414 