# vtk DataFile Version 5.1
vtk output
ASCII
DATASET POLYDATA
POINTS 1002 float
-12.6596 0.31738 -1.97616 12.003 -0.0511842 -3.16805 -11.0019 1.40975 3.39041 
10.1376 -0.536315 3.43269 -0.588914 4.79072 -2.47501 -1.30099 4.37368 0.797081 
0.548837 -1.89761 -1.39048 0.733581 -2.64596 1.07997 16.9728 4.90247 -0.0457233 
-16.6164 2.13233 -0.596465 17.5887 -6.65944 -0.586758 -17.4425 -7.05905 0.441813 
-10.9806 0.787334 -1.8042 -9.06353 1.03969 -1.78295 -6.72482 1.08338 -1.86773 
-3.75805 1.06914 -2.00194 -0.306288 1.11386 -2.24057 3.12522 1.13213 -2.6754 
6.11495 0.963712 -3.19535 8.5567 0.612631 -3.51356 10.4984 0.232857 -3.47311 
-11.861 0.995727 -1.83536 -10.8683 1.71607 -1.72986 -9.63004 2.46444 -1.74698 
-8.19354 3.20278 -1.9932 -6.80222 3.84229 -2.46613 -5.64234 4.29031 -2.92464 
-4.56749 4.53451 -3.08138 -3.34114 4.64709 -2.92806 -1.96462 4.71523 -2.67698 
-12.3513 -0.00534322 -1.97202 -11.859 -0.335229 -1.98223 -11.0644 -0.654816 -1.97899 
-9.97919 -0.962733 -1.90757 -8.71478 -1.24121 -1.7271 -7.28443 -1.40504 -1.44903 
-5.60541 -1.41222 -1.17381 -3.66928 -1.394 -1.05299 -1.57015 -1.53641 -1.15157 
-13.8422 0.139997 -2.19201 -15.0539 -0.0389027 -2.52654 -16.0303 -0.0763547 -2.92325 
-16.5111 0.144862 -3.24351 -16.6096 0.600934 -3.29273 -16.6989 1.10621 -2.96279 
-16.8937 1.46852 -2.36519 -17.0083 1.67184 -1.71957 -16.9089 1.85332 -1.13771 
-14.0722 -0.522276 -2.24607 -15.3396 -1.51297 -2.5031 -16.2635 -2.55565 -2.61938 
-16.891 -3.62835 -2.5566 -17.4954 -4.82433 -2.37312 -18.077 -6.09419 -2.09092 
-18.2574 -7.08847 -1.64174 -17.9413 -7.50459 -0.993808 -17.546 -7.40598 -0.24613 
11.4316 0.612795 -3.28721 10.781 1.2969 -3.42452 9.98771 1.97055 -3.55826 
8.95638 2.63531 -3.56682 7.7276 3.25295 -3.38904 6.39468 3.71289 -3.16127 
4.87932 3.97199 -3.02734 3.08548 4.15003 -2.93254 1.16701 4.40501 -2.75304 
11.6965 -0.565127 -3.27166 11.2855 -1.09801 -3.36864 10.6514 -1.6089 -3.45639 
9.78676 -2.02545 -3.49046 8.84545 -2.27194 -3.35589 7.83254 -2.30326 -2.9812 
6.47153 -2.15779 -2.46936 4.62019 -1.9709 -2.00093 2.52456 -1.87365 -1.65251 
12.9882 0.179186 -2.8423 13.9582 0.541612 -2.51248 14.8621 1.02389 -2.26729 
15.6382 1.56733 -2.12871 16.2696 2.14522 -2.00114 16.7714 2.80546 -1.77911 
17.1084 3.54293 -1.46444 17.2276 4.21891 -1.08248 17.1563 4.6857 -0.607573 
13.0853 -0.582853 -2.79115 13.9848 -1.10712 -2.30085 14.6844 -1.70659 -1.82577 
15.3259 -2.53292 -1.57543 16.0406 -3.58745 -1.6558 16.7634 -4.63819 -1.90277 
17.3278 -5.4676 -1.99674 17.6474 -6.05149 -1.75075 17.724 -6.44298 -1.22226 
-9.20904 1.54322 3.31243 -7.23271 1.53144 3.12707 -5.03534 1.34361 2.73513 
-2.43383 1.01711 2.24599 0.503717 0.615652 1.9981 3.23905 0.180512 2.15788 
5.34725 -0.216644 2.50833 7.00176 -0.467644 2.81977 8.57138 -0.545137 3.10572 
-10.3518 1.92765 3.40607 -9.69238 2.43382 3.36307 -8.97872 2.9342 3.19465 
-8.01965 3.45973 2.92373 -6.71824 3.99883 2.67704 -5.36258 4.46599 2.5078 
-4.32969 4.74069 2.27793 -3.54117 4.75398 1.84912 -2.59726 4.57341 1.29039 
-10.4924 0.991811 3.34256 -9.76247 0.546187 3.30324 -8.8539 0.094899 3.21242 
-7.83758 -0.344133 3.01043 -6.7091 -0.760143 2.69674 -5.39072 -1.12715 2.30714 
-3.8726 -1.43118 1.88692 -2.26297 -1.73257 1.51034 -0.696985 -2.12753 1.24306 
-12.2281 1.53134 3.47694 -13.2863 1.63394 3.52408 -14.1905 1.72388 3.38282 
-15.0333 1.81064 2.96779 -15.8148 1.89963 2.36705 -16.4071 1.96877 1.70991 
-16.735 1.98146 1.03835 -16.8464 1.95917 0.388822 -16.8002 1.98908 -0.166458 
-12.4925 0.905953 3.42329 -13.9471 0.277888 3.5026 -15.1285 -0.500357 3.5552 
-16.1103 -1.56306 3.3806 -17.192 -2.96732 2.93294 -18.2816 -4.45587 2.43813 
-18.842 -5.64993 2.04082 -18.639 -6.41741 1.61881 -18.0206 -6.8537 1.06106 
9.70323 -0.0272672 3.40987 9.19551 0.500175 3.25845 8.67251 1.07726 3.02953 
8.02325 1.69732 2.70604 6.99943 2.27201 2.2155 5.52217 2.71963 1.63256 
3.7677 3.0723 1.17351 1.94766 3.43136 0.932811 0.215652 3.86428 0.833607 
9.55074 -1.0687 3.14676 8.96233 -1.5995 2.87821 8.41283 -2.06134 2.73541 
7.81552 -2.43523 2.70747 6.93865 -2.76375 2.61641 5.69622 -3.04478 2.34037 
4.33416 -3.18636 1.96439 3.09845 -3.12412 1.61248 1.94721 -2.90673 1.3168 
11.5057 -0.188575 3.83587 12.8508 0.17424 4.13624 13.9177 0.560145 4.04596 
14.6833 1.03075 3.48689 15.3506 1.60549 2.7482 16.0439 2.24821 2.15057 
16.6737 2.95609 1.68131 17.0762 3.71538 1.16177 17.1623 4.41074 0.554731 
11.3137 -0.901404 3.56238 12.4644 -1.42359 3.55711 13.6293 -2.10307 3.39734 
14.8676 -2.86033 3.11404 16.0483 -3.599 2.72833 16.9361 -4.28578 2.21281 
17.4609 -4.94196 1.56642 17.6924 -5.58055 0.852187 17.705 -6.17305 0.126199 
-0.744282 5.13598 -2.16596 -0.866592 5.49269 -1.8343 -0.957291 5.79542 -1.43426 
-1.02129 5.97293 -0.910749 -1.04011 5.96574 -0.36523 -1.01647 5.74624 -0.00496362 
-1.01763 5.37063 0.15066 -1.09791 4.96849 0.289088 -1.21958 4.63486 0.523327 
1.92367 4.699 -2.47554 4.62251 4.84612 -2.34173 7.25237 5.18966 -2.02758 
9.68962 5.53815 -1.71563 11.8225 5.73366 -1.58413 13.4663 5.81549 -1.50205 
14.6026 5.87062 -1.24377 15.4611 5.81583 -0.826852 16.243 5.49713 -0.40486 
-2.94988 5.30338 -2.25228 -4.95921 5.94933 -2.03831 -6.60273 6.43159 -1.85636 
-8.28717 6.5096 -1.60944 -10.2546 6.20182 -1.22009 -12.1673 5.63406 -0.81292 
-13.6529 4.83818 -0.58719 -14.7837 3.86903 -0.566219 -15.7637 2.90967 -0.612026 
1.41449 4.07368 0.610625 4.62538 4.29671 0.943643 7.42289 4.88018 1.53603 
9.23539 5.23169 1.78913 10.6399 5.11328 1.52552 12.4103 4.99642 1.16931 
14.2665 5.21148 0.969873 15.567 5.446 0.741507 16.3395 5.33767 0.364521 
-3.41556 5.13949 1.16534 -5.16415 5.93525 1.6124 -6.72704 6.34478 1.83096 
-8.35048 6.28603 1.78348 -9.99648 6.07775 1.71985 -11.5346 5.81824 1.6758 
-13.0049 5.20607 1.37458 -14.4179 4.1628 0.733686 -15.6489 3.03159 -0.00107152 
0.737625 -2.25456 -1.4165 0.973374 -2.63815 -1.43261 1.13625 -2.96097 -1.36714 
1.09005 -3.15826 -1.16008 0.858179 -3.24476 -0.811303 0.646195 -3.26305 -0.366459 
0.60776 -3.20909 0.104969 0.688371 -3.06447 0.523447 0.750092 -2.85734 0.844443 
3.90151 -2.52327 -1.80922 6.95688 -3.59659 -2.14637 8.97652 -4.91457 -2.33736 
10.2476 -6.06077 -2.45919 11.8755 -6.81417 -2.56541 14.1005 -7.34006 -2.53375 
15.9532 -7.74406 -2.22361 16.8503 -7.81196 -1.69029 17.2112 -7.39468 -1.11022 
-2.53345 -1.81478 -0.986651 -5.21782 -1.9527 -0.66157 -7.45286 -2.29258 -0.603906 
-9.69978 -2.87285 -0.839199 -12.0747 -3.6419 -1.02578 -14.0251 -4.43335 -0.851201 
-15.2272 -5.19972 -0.468653 -16.0014 -5.97895 -0.149933 -16.7189 -6.66065 0.116896 
2.86445 -3.49648 1.14162 4.95512 -4.4778 1.26146 6.99912 -5.30678 1.27522 
9.06295 -5.82181 1.10256 11.1954 -6.19674 0.85551 13.277 -6.68771 0.665895 
15.0172 -7.20583 0.485738 16.2313 -7.42285 0.193462 17.0182 -7.19663 -0.205307 
-1.62758 -2.13558 1.04694 -4.39108 -1.9585 1.1897 -7.15248 -2.22468 1.33112 
-9.55306 -2.78223 1.21823 -11.6732 -3.39718 0.907064 -13.7193 -4.03031 0.743765 
-15.4648 -4.77169 0.833855 -16.557 -5.6095 0.917024 -17.0877 -6.4154 0.778175 
17.9171 4.03193 -0.0474274 18.9963 3.04742 0.0904144 19.8329 1.99656 0.445582 
20.1586 0.696289 0.909832 20.2243 -0.90646 1.19456 20.294 -2.45214 1.05559 
20.0766 -3.65222 0.543225 19.3195 -4.66313 -0.0331945 18.3477 -5.68951 -0.416459 
-17.5864 1.31149 -0.781507 -18.4389 0.48331 -0.813245 -19.1117 -0.668223 -0.825866 
-19.588 -2.30077 -0.891657 -19.8117 -4.08048 -0.801563 -19.7179 -5.54377 -0.394504 
-19.3374 -6.56903 0.0871192 -18.7699 -7.18875 0.350758 -18.1131 -7.34914 0.419585 
-10.023 1.40913 -1.7567 -8.88166 2.02816 -1.83163 -7.94975 1.56376 -1.87643 
-7.54362 2.61283 -2.06421 -6.64195 2.04776 -2.11178 -5.35238 1.50862 -2.09579 
-6.09557 3.12684 -2.43787 -5.14996 2.45532 -2.43367 -3.77203 1.87815 -2.42229 
-2.05713 1.42315 -2.35495 -4.68736 3.538 -2.83833 -3.52922 2.8062 -2.75329 
-2.01714 2.19643 -2.74888 -0.211785 1.7376 -2.76183 1.56473 1.41453 -2.7159 
-3.3062 3.83897 -3.07862 -1.82827 3.15881 -2.9885 -0.143859 2.5658 -2.99387 
1.69783 2.08382 -3.11323 3.43842 1.71428 -3.18724 4.87951 1.38572 -3.17439 
-1.82389 4.05389 -3.07825 -0.0721405 3.52137 -3.08699 1.73812 3.04558 -3.12191 
3.53452 2.57435 -3.30828 5.19049 2.11228 -3.51036 6.52617 1.67983 -3.56059 
7.5851 1.20485 -3.51927 -0.276172 4.22807 -2.93195 1.62414 3.85435 -3.05533 
3.46274 3.54685 -3.1289 5.12711 3.16893 -3.3105 6.64129 2.66039 -3.5697 
7.92711 2.0962 -3.70174 8.91744 1.52342 -3.65114 9.73267 0.90395 -3.54797 
-13.0758 0.938696 -1.98 -14.3284 0.902141 -2.24027 -12.009 1.83436 -1.74293 
-15.2703 1.01679 -2.59597 -13.1467 1.99708 -1.8595 -10.5614 2.80649 -1.65355 
-15.652 1.34176 -2.90472 -13.9588 2.25822 -2.11274 -11.4769 3.16977 -1.67241 
-8.91797 3.75817 -1.93121 -15.6937 1.78891 -2.91435 -14.3211 2.60202 -2.34664 
-12.2039 3.50482 -1.83402 -9.68841 4.25066 -1.95406 -7.49983 4.52467 -2.50005 
-15.7689 2.18566 -2.51086 -14.4885 2.96965 -2.27142 -12.7167 3.80971 -1.9285 
-10.4293 4.60287 -1.9878 -8.24079 5.07407 -2.46086 -6.44212 5.00013 -2.90402 
-15.9121 2.44582 -1.86683 -14.6808 3.30182 -1.81452 -13.1376 4.1437 -1.70227 
-11.097 4.90641 -1.82877 -8.93639 5.46914 -2.2373 -7.1374 5.59223 -2.64097 
-5.44534 5.22001 -2.85112 -15.941 2.64661 -1.21123 -14.826 3.5869 -1.18426 
-13.4861 4.50563 -1.18573 -11.6978 5.26767 -1.39431 -9.59356 5.83191 -1.79694 
-7.69798 6.07886 -2.16932 -6.08989 5.85959 -2.38829 -4.26716 5.29229 -2.5325 
-14.7256 3.97246 0.0437874 -13.4574 5.11346 0.689513 -13.7203 4.98567 0.0319438 
-12.0124 5.94983 1.12268 -12.4268 5.96804 0.49083 -12.503 5.8639 -0.165746 
-10.4201 6.37031 1.33233 -10.9082 6.58456 0.802315 -11.1253 6.64692 0.140926 
-10.8471 6.50661 -0.563941 -8.70279 6.62903 1.49815 -9.19062 6.94707 1.09729 
-9.56057 7.14529 0.470393 -9.43067 7.13503 -0.291808 -8.8735 6.8933 -1.0063 
-7.00242 6.72227 1.58231 -7.3895 7.09461 1.30598 -7.83383 7.36984 0.802206 
-7.94063 7.44816 0.0391195 -7.54256 7.28015 -0.731101 -6.98854 6.90426 -1.34198 
-5.36191 6.31787 1.34987 -5.5777 6.72532 1.14342 -5.91271 7.08318 0.836907 
-6.1617 7.27054 0.23888 -6.02336 7.21044 -0.516562 -5.59273 6.9114 -1.13946 
[...]
POINT_DATA 1002
FIELD FieldData 4
_paraPhi 1 1002 double
6.2831853072 3.1415926536 6.2831853072 3.1415926536 4.7123889804 4.7123889804 1.5707963268 1.5707963268 3.6951670125 
5.7296109483 2.5880182947 0.5535743589 6.2831853072 6.2831853072 6.2831853072 6.2831853072 3.1415926536 3.1415926536 
3.1415926536 3.1415926536 3.1415926536 6.1053039672 5.898798347 5.6768734901 5.4599499503 5.2659633393 5.1032165617 
4.9713148346 4.8656852733 4.7809517865 0.17788134 0.38438696014 0.60631181711 0.82323535693 1.0172219679 1.1799687454 
1.3118704726 1.4175000338 1.5022335207 6.1892828907 6.1070320098 6.035312792 5.9728339911 5.9183214791 5.8706119594 
5.8286879411 5.7916808611 5.7588591896 0.093902416448 0.17615329733 0.2478725152 0.31035131605 0.36486382811 0.41257334776 
0.45449736604 0.4915044461 0.52432611754 3.3194739936 3.5259796137 3.7479044707 3.9648280105 4.1588146215 4.321561399 
4.4534631262 4.5590926874 4.6438261743 2.9637113136 2.7572056934 2.5352808365 2.3183572967 2.1243706857 1.9616239082 
1.829722181 1.7240926197 1.6393591329 3.23549507 3.3177459509 3.3894651688 3.4519439696 3.5064564817 3.5541660013 
3.5960900196 3.6330970997 3.6659187711 3.0476902371 2.9654393563 2.8937201384 2.8312413375 2.7767288255 2.7290193058 
2.6870952876 2.6500882075 2.617266536 6.2831853072 6.2831853072 6.2831853072 6.2831853072 3.1415926536 3.1415926536 
3.1415926536 3.1415926536 3.1415926536 6.1053039672 5.898798347 5.6768734901 5.4599499503 5.2659633393 5.1032165617 
4.9713148346 4.8656852733 4.7809517865 0.17788134 0.38438696014 0.60631181711 0.82323535693 1.0172219679 1.1799687454 
1.3118704726 1.4175000338 1.5022335207 6.1892828907 6.1070320098 6.035312792 5.9728339911 5.9183214791 5.8706119594 
5.8286879411 5.7916808611 5.7588591896 0.093902416448 0.17615329733 0.2478725152 0.31035131605 0.36486382811 0.41257334776 
0.45449736604 0.4915044461 0.52432611754 3.3194739936 3.5259796137 3.7479044707 3.9648280105 4.1588146215 4.321561399 
4.4534631262 4.5590926874 4.6438261743 2.9637113136 2.7572056934 2.5352808365 2.3183572967 2.1243706857 1.9616239082 
1.829722181 1.7240926197 1.6393591329 3.23549507 3.3177459509 3.3894651688 3.4519439696 3.5064564817 3.5541660013 
3.5960900196 3.6330970997 3.6659187711 3.0476902371 2.9654393563 2.8937201384 2.8312413375 2.7767288255 2.7290193058 
2.6870952876 2.6500882075 2.617266536 4.7123889804 4.7123889804 4.7123889804 4.7123889804 4.7123889804 4.7123889804 
4.7123889804 4.7123889804 4.7123889804 4.6087898617 4.4991390697 4.3857031936 4.2712800401 4.1588146215 4.0509635631 
3.94975894 3.8564636551 3.7716124825 4.8159880991 4.9256388911 5.0390747672 5.1534979207 5.2659633393 5.3738143976 
5.4750190208 5.5683143056 5.6531654782 4.6087898617 4.4991390697 4.3857031936 4.2712800401 4.1588146215 4.0509635631 
3.94975894 3.8564636551 3.7716124825 4.8159880991 4.9256388911 5.0390747672 5.1534979207 5.2659633393 5.3738143976 
5.4750190208 5.5683143056 5.6531654782 1.5707963268 1.5707963268 1.5707963268 1.5707963268 1.5707963268 1.5707963268 
1.5707963268 1.5707963268 1.5707963268 1.6743954455 1.7840462375 1.8974821136 2.0119052671 2.1243706857 2.232221744 
2.3334263672 2.426721652 2.5115728246 1.4671972081 1.3575464161 1.24411054 1.1296873865 1.0172219679 0.90937090954 
0.80816628637 0.71487100155 0.63001982895 1.6743954455 1.7840462375 1.8974821136 2.0119052671 2.1243706857 2.232221744 
2.3334263672 2.426721652 2.5115728246 1.4671972081 1.3575464161 1.24411054 1.1296873865 1.0172219679 0.90937090954 
0.80816628637 0.71487100155 0.63001982895 3.6007720849 3.4966939854 3.3839471039 3.2645756454 3.1415926536 3.0186096618 
2.8992382033 2.7864913217 2.6824132222 5.8240058758 5.9280839753 6.0408308569 6.1602023154 6.2831853072 0.12298299178 
0.2423544503 0.35510133185 0.45917943135 6.0560271438 5.7885595667 5.9702140275 5.5125918794 5.6029703303 5.7885595667 
5.2659633393 5.2659633393 5.2659633393 5.2659633393 5.0674903122 5.0120975802 4.9155579264 4.7123889804 4.1588146215 
4.9155579264 4.8353719722 4.7123889804 4.5092200343 4.1588146215 3.6362183941 4.8004512023 4.7123889804 4.5894059886 
4.4126803806 4.1588146215 3.8218076305 3.4545639333 4.7123889804 4.6243267584 4.5092200343 4.3572876485 4.1588146215 
3.9121860814 3.6362183941 3.368750817 6.0174235957 5.9434319871 5.8263323547 5.8809213739 5.7674481418 5.6279784266 
5.8278025282 5.718968232 5.5891129425 5.4372443565 5.7823484065 5.678536687 5.5575666702 5.4192596322 5.2659633393 
5.743164462 5.6444075337 5.5314983644 5.4046708639 5.2659633393 5.1195510325 5.7091357773 5.6152775188 5.5096229709 
5.3926039573 5.2659633393 5.1329233157 4.9978930058 5.6793730533 5.5901633916 5.4910209005 5.3824597928 5.2659633393 
5.1440684722 5.0201624502 4.8979782167 5.5683143056 5.4750190208 5.4750190208 5.3738143976 5.3738143976 5.3738143976 
5.2659633393 5.2659633393 5.2659633393 5.2659633393 5.1534979207 5.1534979207 5.1534979207 5.1534979207 5.1534979207 
5.0390747672 5.0390747672 5.0390747672 5.0390747672 5.0390747672 5.0390747672 4.9256388911 4.9256388911 4.9256388911 
4.9256388911 4.9256388911 4.9256388911 4.9256388911 4.8159880991 4.8159880991 4.8159880991 4.8159880991 4.8159880991 
4.8159880991 4.8159880991 4.8159880991 4.6087898617 4.6087898617 4.4991390697 4.6087898617 4.4991390697 4.3857031936 
4.6087898617 4.4991390697 4.3857031936 4.2712800401 4.6087898617 4.4991390697 4.3857031936 4.2712800401 4.1588146215 
4.6087898617 4.4991390697 4.3857031936 4.2712800401 4.1588146215 4.0509635631 4.6087898617 4.4991390697 4.3857031936 
4.2712800401 4.1588146215 4.0509635631 3.94975894 4.6087898617 4.4991390697 4.3857031936 4.2712800401 4.1588146215 
4.0509635631 3.94975894 3.8564636551 4.526799744 4.4046155105 4.426884955 4.2807094886 4.2918546451 4.3052269283 
4.1588146215 4.1588146215 4.1588146215 4.1588146215 4.042318168 4.0321740035 4.0201070968 4.0055183285 3.9875336042 
3.9337570603 3.9151549899 3.8932795963 3.8672112905 3.8356650183 3.7967995342 3.8346145692 3.809500442 3.7803704271 
3.7462412737 3.7058097288 3.657329819 3.5984456061 3.7454049075 3.7156421835 3.6816134988 3.6424295543 3.5969754326 
3.5438565869 3.4813459737 3.4073543651 3.5642842451 3.4524645613 3.5233842518 3.3320300872 3.403123212 3.4773852225 
3.20576226 3.2746326772 3.348015857 3.4255060145 3.0774230472 3.1415926536 3.2112816139 3.2864685043 3.3668817272 
2.95115522 3.00855263 3.0719036933 3.1415926536 3.2178377658 3.3005964304 2.8307207459 2.8800620952 2.9351694502 
2.9967168029 3.0653475414 3.1415926536 3.225752376 2.718901062 2.7598010554 2.8058000847 2.8576792927 2.91630358 
2.9825888767 3.0574329311 3.1415926536 3.5642842451 3.5233842518 3.4524645613 3.4773852225 3.403123212 3.3320300872 
3.4255060145 3.348015857 3.2746326772 3.20576226 3.3668817272 3.2864685043 3.2112816139 3.1415926536 3.0774230472 
3.3005964304 3.2178377658 3.1415926536 3.0719036933 3.00855263 2.95115522 3.225752376 3.1415926536 3.0653475414 
2.9967168029 2.9351694502 2.8800620952 2.8307207459 3.1415926536 3.0574329311 2.9825888767 2.91630358 2.8576792927 
2.8058000847 2.7598010554 2.718901062 4.526799744 4.426884955 4.4046155105 4.3052269283 4.2918546451 4.2807094886 
4.1588146215 4.1588146215 4.1588146215 4.1588146215 3.9875336042 4.0055183285 4.0201070968 4.0321740035 4.042318168 
3.7967995342 3.8356650183 3.8672112905 3.8932795963 3.9151549899 3.9337570603 3.5984456061 3.657329819 3.7058097288 
3.7462412737 3.7803704271 3.809500442 3.8346145692 3.4073543651 3.4813459737 3.5438565869 3.5969754326 3.6424295543 
3.6816134988 3.7156421835 3.7454049075 4.7123889804 4.8004512023 4.6243267584 4.9155579264 4.7123889804 4.5092200343 
5.0674903122 4.8353719722 4.5894059886 4.3572876485 5.2659633393 5.0120975802 4.7123889804 4.4126803806 4.1588146215 
5.5125918794 5.2659633393 4.9155579264 4.5092200343 4.1588146215 3.9121860814 5.7885595667 5.6029703303 5.2659633393 
4.7123889804 4.1588146215 3.8218076305 3.6362183941 6.0560271438 5.9702140275 5.7885595667 5.2659633393 4.1588146215 
3.6362183941 3.4545639333 3.368750817 0.22715816343 0.49462574053 0.3129712797 0.77059342779 0.68021497688 0.49462574053 
1.0172219679 1.0172219679 1.0172219679 1.0172219679 1.2156949949 1.271087727 1.3676273807 1.5707963268 2.1243706857 
1.3676273807 1.447813335 1.5707963268 1.7739652728 2.1243706857 2.6469669131 1.4827341049 1.5707963268 1.6937793186 
1.8705049266 2.1243706857 2.4613776767 2.8286213739 1.5707963268 1.6588585487 1.7739652728 1.9258976586 2.1243706857 
2.3709992258 2.6469669131 2.9144344902 1.7563855631 1.8785697967 1.8563003522 2.0024758186 1.9913306621 1.9779583789 
2.1243706857 2.1243706857 2.1243706857 2.1243706857 2.2408671392 2.2510113037 2.2630782103 2.2776669786 2.295651703 
2.3494282469 2.3680303173 2.3899057108 2.4159740166 2.4475202889 2.486385773 2.448570738 2.4736848652 2.5028148801 
2.5369440334 2.5773755784 2.6258554882 2.6847397011 2.5377803997 2.5675431237 2.6015718084 2.6407557529 2.6862098746 
2.7393287203 2.8018393335 2.8758309421 1.6743954455 1.6743954455 1.7840462375 1.6743954455 1.7840462375 1.8974821136 
1.6743954455 1.7840462375 1.8974821136 2.0119052671 1.6743954455 1.7840462375 1.8974821136 2.0119052671 2.1243706857 
1.6743954455 1.7840462375 1.8974821136 2.0119052671 2.1243706857 2.232221744 1.6743954455 1.7840462375 1.8974821136 
2.0119052671 2.1243706857 2.232221744 2.3334263672 1.6743954455 1.7840462375 1.8974821136 2.0119052671 2.1243706857 
2.232221744 2.3334263672 2.426721652 1.4671972081 1.3575464161 1.4671972081 1.24411054 1.3575464161 1.4671972081 
1.1296873865 1.24411054 1.3575464161 1.4671972081 1.0172219679 1.1296873865 1.24411054 1.3575464161 1.4671972081 
0.90937090954 1.0172219679 1.1296873865 1.24411054 1.3575464161 1.4671972081 0.80816628637 0.90937090954 1.0172219679 
1.1296873865 1.24411054 1.3575464161 1.4671972081 0.71487100155 0.80816628637 0.90937090954 1.0172219679 1.1296873865 
1.24411054 1.3575464161 1.4671972081 0.60381225391 0.57404952988 0.69302191562 0.54002084522 0.66790778838 0.79216440667 
0.50083690068 0.63877777351 0.77356233629 0.90072551443 0.45538277901 0.60464862014 0.75168694275 0.89058134991 1.0172219679 
0.40226393329 0.56421707518 0.72561863695 0.87851444325 1.0172219679 1.139116835 0.33975332011 0.51573716537 0.69407236469 
0.86392567495 1.0172219679 1.1502619915 1.2630228569 0.26576171152 0.45685295248 0.6552068806 0.84594095064 1.0172219679 
1.1636342747 1.2852923014 1.3852070904 0.22715816343 0.3129712797 0.49462574053 0.49462574053 0.68021497688 0.77059342779 
1.0172219679 1.0172219679 1.0172219679 1.0172219679 2.1243706857 1.5707963268 1.3676273807 1.271087727 1.2156949949 
2.6469669131 2.1243706857 1.7739652728 1.5707963268 1.447813335 1.3676273807 2.8286213739 2.4613776767 2.1243706857 
1.8705049266 1.6937793186 1.5707963268 1.4827341049 2.9144344902 2.6469669131 2.3709992258 2.1243706857 1.9258976586 
1.7739652728 1.6588585487 1.5707963268 1.7563855631 1.8563003522 1.8785697967 1.9779583789 1.9913306621 2.0024758186 
2.1243706857 2.1243706857 2.1243706857 2.1243706857 2.295651703 2.2776669786 2.2630782103 2.2510113037 2.2408671392 
2.486385773 2.4475202889 2.4159740166 2.3899057108 2.3680303173 2.3494282469 2.6847397011 2.6258554882 2.5773755784 
2.5369440334 2.5028148801 2.4736848652 2.448570738 2.8758309421 2.8018393335 2.7393287203 2.6862098746 2.6407557529 
2.6015718084 2.5675431237 2.5377803997 5.8604937156 5.901393709 5.9723133995 5.9473927383 6.0216547488 6.0927478736 
5.9992719463 6.0767621038 6.1501452836 6.2190157008 6.0578962336 6.1383094565 6.2134963469 0 0.064169606361 
6.1241815303 6.206940195 6.2831853072 0.069688960264 0.13304002361 0.19043743361 6.1990255847 0 0.07624511221 
0.14487585072 0.20642320337 0.26153055843 0.3108719077 0 0.084159722458 0.15900377685 0.22528907359 0.28391336087 
0.3357925689 0.38179159818 0.42269159155 5.8604937156 5.9723133995 5.901393709 6.0927478736 6.0216547488 5.9473927383 
6.2190157008 6.1501452836 6.0767621038 5.9992719463 0.064169606361 0 6.2134963469 6.1383094565 6.0578962336 
0.19043743361 0.13304002361 0.069688960264 6.2831853072 6.206940195 6.1241815303 0.3108719077 0.26153055843 0.20642320337 
0.14487585072 0.07624511221 6.2831853072 6.1990255847 0.42269159155 0.38179159818 0.3357925689 0.28391336087 0.22528907359 
0.15900377685 0.084159722458 0 5.6793730533 5.7091357773 5.5901633916 5.743164462 5.6152775188 5.4910209005 
5.7823484065 5.6444075337 5.5096229709 5.3824597928 5.8278025282 5.678536687 5.5314983644 5.3926039573 5.2659633393 
5.8809213739 5.718968232 5.5575666702 5.4046708639 5.2659633393 5.1440684722 5.9434319871 5.7674481418 5.5891129425 
5.4192596322 5.2659633393 5.1329233157 5.0201624502 6.0174235957 5.8263323547 5.6279784266 5.4372443565 5.2659633393 
5.1195510325 4.9978930058 4.8979782167 1.3852070904 1.2852923014 1.2630228569 1.1636342747 1.1502619915 1.139116835 
1.0172219679 1.0172219679 1.0172219679 1.0172219679 0.84594095064 0.86392567495 0.87851444325 0.89058134991 0.90072551443 
0.6552068806 0.69407236469 0.72561863695 0.75168694275 0.77356233629 0.79216440667 0.45685295248 0.51573716537 0.56421707518 
0.60464862014 0.63877777351 0.66790778838 0.69302191562 0.26576171152 0.33975332011 0.40226393329 0.45538277901 0.50083690068 
0.54002084522 0.57404952988 0.60381225391 
_paraPhiHalf 1 1002 double
0 3.1415926536 0 3.1415926536 1.5707963268 1.5707963268 1.5707963268 1.5707963268 2.5880182947 
0.5535743589 2.5880182947 0.5535743589 0 0 0 0 3.1415926536 3.1415926536 
3.1415926536 3.1415926536 3.1415926536 0.17788134 0.38438696014 0.60631181711 0.82323535693 1.0172219679 1.1799687454 
1.3118704726 1.4175000338 1.5022335207 0.17788134 0.38438696014 0.60631181711 0.82323535693 1.0172219679 1.1799687454 
1.3118704726 1.4175000338 1.5022335207 0.093902416448 0.17615329733 0.2478725152 0.31035131605 0.36486382811 0.41257334776 
0.45449736604 0.4915044461 0.52432611754 0.093902416448 0.17615329733 0.2478725152 0.31035131605 0.36486382811 0.41257334776 
0.45449736604 0.4915044461 0.52432611754 2.9637113136 2.7572056934 2.5352808365 2.3183572967 2.1243706857 1.9616239082 
1.829722181 1.7240926197 1.6393591329 2.9637113136 2.7572056934 2.5352808365 2.3183572967 2.1243706857 1.9616239082 
1.829722181 1.7240926197 1.6393591329 3.0476902371 2.9654393563 2.8937201384 2.8312413375 2.7767288255 2.7290193058 
2.6870952876 2.6500882075 2.617266536 3.0476902371 2.9654393563 2.8937201384 2.8312413375 2.7767288255 2.7290193058 
2.6870952876 2.6500882075 2.617266536 0 0 0 0 3.1415926536 3.1415926536 
3.1415926536 3.1415926536 3.1415926536 0.17788134 0.38438696014 0.60631181711 0.82323535693 1.0172219679 1.1799687454 
1.3118704726 1.4175000338 1.5022335207 0.17788134 0.38438696014 0.60631181711 0.82323535693 1.0172219679 1.1799687454 
1.3118704726 1.4175000338 1.5022335207 0.093902416448 0.17615329733 0.2478725152 0.31035131605 0.36486382811 0.41257334776 
0.45449736604 0.4915044461 0.52432611754 0.093902416448 0.17615329733 0.2478725152 0.31035131605 0.36486382811 0.41257334776 
0.45449736604 0.4915044461 0.52432611754 2.9637113136 2.7572056934 2.5352808365 2.3183572967 2.1243706857 1.9616239082 
1.829722181 1.7240926197 1.6393591329 2.9637113136 2.7572056934 2.5352808365 2.3183572967 2.1243706857 1.9616239082 
1.829722181 1.7240926197 1.6393591329 3.0476902371 2.9654393563 2.8937201384 2.8312413375 2.7767288255 2.7290193058 
2.6870952876 2.6500882075 2.617266536 3.0476902371 2.9654393563 2.8937201384 2.8312413375 2.7767288255 2.7290193058 
2.6870952876 2.6500882075 2.617266536 1.5707963268 1.5707963268 1.5707963268 1.5707963268 1.5707963268 1.5707963268 
1.5707963268 1.5707963268 1.5707963268 1.6743954455 1.7840462375 1.8974821136 2.0119052671 2.1243706857 2.232221744 
2.3334263672 2.426721652 2.5115728246 1.4671972081 1.3575464161 1.24411054 1.1296873865 1.0172219679 0.90937090954 
0.80816628637 0.71487100155 0.63001982895 1.6743954455 1.7840462375 1.8974821136 2.0119052671 2.1243706857 2.232221744 
2.3334263672 2.426721652 2.5115728246 1.4671972081 1.3575464161 1.24411054 1.1296873865 1.0172219679 0.90937090954 
0.80816628637 0.71487100155 0.63001982895 1.5707963268 1.5707963268 1.5707963268 1.5707963268 1.5707963268 1.5707963268 
1.5707963268 1.5707963268 1.5707963268 1.6743954455 1.7840462375 1.8974821136 2.0119052671 2.1243706857 2.232221744 
2.3334263672 2.426721652 2.5115728246 1.4671972081 1.3575464161 1.24411054 1.1296873865 1.0172219679 0.90937090954 
0.80816628637 0.71487100155 0.63001982895 1.6743954455 1.7840462375 1.8974821136 2.0119052671 2.1243706857 2.232221744 
2.3334263672 2.426721652 2.5115728246 1.4671972081 1.3575464161 1.24411054 1.1296873865 1.0172219679 0.90937090954 
0.80816628637 0.71487100155 0.63001982895 2.6824132222 2.7864913217 2.8992382033 3.0186096618 3.1415926536 3.0186096618 
2.8992382033 2.7864913217 2.6824132222 0.45917943135 0.35510133185 0.2423544503 0.12298299178 0 0.12298299178 
0.2423544503 0.35510133185 0.45917943135 0.22715816343 0.49462574053 0.3129712797 0.77059342779 0.68021497688 0.49462574053 
1.0172219679 1.0172219679 1.0172219679 1.0172219679 1.2156949949 1.271087727 1.3676273807 1.5707963268 2.1243706857 
1.3676273807 1.447813335 1.5707963268 1.7739652728 2.1243706857 2.6469669131 1.4827341049 1.5707963268 1.6937793186 
1.8705049266 2.1243706857 2.4613776767 2.8286213739 1.5707963268 1.6588585487 1.7739652728 1.9258976586 2.1243706857 
2.3709992258 2.6469669131 2.9144344902 0.26576171152 0.33975332011 0.45685295248 0.40226393329 0.51573716537 0.6552068806 
0.45538277901 0.56421707518 0.69407236469 0.84594095064 0.50083690068 0.60464862014 0.72561863695 0.86392567495 1.0172219679 
0.54002084522 0.63877777351 0.75168694275 0.87851444325 1.0172219679 1.1636342747 0.57404952988 0.66790778838 0.77356233629 
0.89058134991 1.0172219679 1.1502619915 1.2852923014 0.60381225391 0.69302191562 0.79216440667 0.90072551443 1.0172219679 
1.139116835 1.2630228569 1.3852070904 0.71487100155 0.80816628637 0.80816628637 0.90937090954 0.90937090954 0.90937090954 
1.0172219679 1.0172219679 1.0172219679 1.0172219679 1.1296873865 1.1296873865 1.1296873865 1.1296873865 1.1296873865 
1.24411054 1.24411054 1.24411054 1.24411054 1.24411054 1.24411054 1.3575464161 1.3575464161 1.3575464161 
1.3575464161 1.3575464161 1.3575464161 1.3575464161 1.4671972081 1.4671972081 1.4671972081 1.4671972081 1.4671972081 
1.4671972081 1.4671972081 1.4671972081 1.6743954455 1.6743954455 1.7840462375 1.6743954455 1.7840462375 1.8974821136 
1.6743954455 1.7840462375 1.8974821136 2.0119052671 1.6743954455 1.7840462375 1.8974821136 2.0119052671 2.1243706857 
1.6743954455 1.7840462375 1.8974821136 2.0119052671 2.1243706857 2.232221744 1.6743954455 1.7840462375 1.8974821136 
2.0119052671 2.1243706857 2.232221744 2.3334263672 1.6743954455 1.7840462375 1.8974821136 2.0119052671 2.1243706857 
2.232221744 2.3334263672 2.426721652 1.7563855631 1.8785697967 1.8563003522 2.0024758186 1.9913306621 1.9779583789 
2.1243706857 2.1243706857 2.1243706857 2.1243706857 2.2408671392 2.2510113037 2.2630782103 2.2776669786 2.295651703 
2.3494282469 2.3680303173 2.3899057108 2.4159740166 2.4475202889 2.486385773 2.448570738 2.4736848652 2.5028148801 
2.5369440334 2.5773755784 2.6258554882 2.6847397011 2.5377803997 2.5675431237 2.6015718084 2.6407557529 2.6862098746 
2.7393287203 2.8018393335 2.8758309421 2.718901062 2.8307207459 2.7598010554 2.95115522 2.8800620952 2.8058000847 
3.0774230472 3.00855263 2.9351694502 2.8576792927 3.0774230472 3.1415926536 3.0719036933 2.9967168029 2.91630358 
2.95115522 3.00855263 3.0719036933 3.1415926536 3.0653475414 2.9825888767 2.8307207459 2.8800620952 2.9351694502 
2.9967168029 3.0653475414 3.1415926536 3.0574329311 2.718901062 2.7598010554 2.8058000847 2.8576792927 2.91630358 
2.9825888767 3.0574329311 3.1415926536 2.718901062 2.7598010554 2.8307207459 2.8058000847 2.8800620952 2.95115522 
2.8576792927 2.9351694502 3.00855263 3.0774230472 2.91630358 2.9967168029 3.0719036933 3.1415926536 3.0774230472 
2.9825888767 3.0653475414 3.1415926536 3.0719036933 3.00855263 2.95115522 3.0574329311 3.1415926536 3.0653475414 