# vtk DataFile Version 5.1
vtk output
ASCII
DATASET POLYDATA
POINTS 1002 float
-11.7259 -0.82683 -3.68527 11.5024 0.979378 -4.34066 -11.9252 0.467356 3.09806 
11.843 -0.0205958 4.02438 1.70153 7.46235 -2.27414 0.673231 7.05283 2.84625 
-0.0964106 -3.93961 -1.22455 0.326994 -4.40273 2.9312 18.6871 4.0629 -0.110594 
-19.143 4.89855 -0.0817978 18.0666 -7.82181 -0.686194 -18.8292 -7.58129 -0.245436 
-9.74337 -0.307833 -3.35955 -7.43478 0.25971 -2.97195 -4.99057 0.8217 -2.64379 
-2.50566 1.28364 -2.50483 0.140741 1.53669 -2.63824 2.98396 1.57129 -3.03926 
5.73444 1.49505 -3.57744 8.07526 1.38517 -4.04663 9.9591 1.2232 -4.30461 
-11.0988 -0.0562012 -3.58849 -10.2509 0.802131 -3.37097 -9.19709 1.68216 -3.03992 
-7.90201 2.52449 -2.67009 -6.27509 3.35256 -2.36615 -4.37835 4.21989 -2.20158 
-2.49578 5.10709 -2.17665 -0.8598 5.95612 -2.22357 0.515634 6.74343 -2.26741 
-11.06 -1.2231 -3.50914 -10.2231 -1.59341 -3.24506 -9.22171 -1.95998 -2.96211 
-8.0736 -2.28661 -2.68803 -6.80982 -2.52545 -2.37033 -5.4825 -2.72003 -1.98985 
-4.13842 -2.95883 -1.63959 -2.78555 -3.26132 -1.41011 -1.42491 -3.59511 -1.29121 
-13.1806 -0.795672 -3.85977 -14.5598 -0.549331 -3.86209 -15.8278 -0.0307441 -3.69841 
-17.0386 0.679047 -3.42844 -18.1963 1.44104 -3.05003 -19.1128 2.21875 -2.52622 
-19.5771 3.03682 -1.911 -19.6146 3.83081 -1.29311 -19.4222 4.474 -0.687136 
-13.1078 -1.61608 -3.85248 -14.3978 -2.48967 -3.93837 -15.6297 -3.40526 -3.89351 
-16.7783 -4.31563 -3.68708 -17.6623 -5.21791 -3.32991 -18.1741 -6.11371 -2.82662 
-18.4778 -6.90765 -2.17583 -18.743 -7.4434 -1.45128 -18.904 -7.64924 -0.782492 
10.9553 1.76107 -4.32081 10.2489 2.57484 -4.29367 9.40618 3.38707 -4.26052 
8.46624 4.1755 -4.18065 7.42665 4.93166 -4.02827 6.26239 5.65403 -3.81211 
5.03498 6.32672 -3.52255 3.86436 6.89074 -3.1439 2.77773 7.27407 -2.70836 
11.0428 0.388895 -4.3472 10.4579 -0.197778 -4.22308 9.72185 -0.751913 -3.89299 
8.77669 -1.2638 -3.39586 7.52275 -1.73528 -2.88303 5.91955 -2.1805 -2.46927 
4.13141 -2.63068 -2.14399 2.45039 -3.09883 -1.84329 1.04946 -3.55078 -1.53386 
12.6606 1.16748 -4.23047 13.8804 1.38017 -4.05542 15.0829 1.64143 -3.84033 
16.1797 1.94143 -3.53919 17.1684 2.2497 -3.11674 18.0557 2.57929 -2.6099 
18.7296 2.96465 -2.04652 19.049 3.38052 -1.41618 19.0008 3.75917 -0.746753 
12.6587 0.244011 -4.24122 13.7564 -0.706149 -3.96833 14.7904 -1.86674 -3.55782 
15.8551 -3.11983 -3.1847 16.9307 -4.28094 -2.98834 17.7336 -5.27819 -2.85008 
18.0624 -6.1745 -2.52756 18.0924 -6.96995 -1.96729 18.0835 -7.54677 -1.30935 
-10.0885 0.637694 3.33533 -7.93601 0.799513 3.69222 -5.49645 0.930322 4.02284 
-2.75056 1.03802 4.02842 0.32357 1.10639 3.69382 3.52194 1.07613 3.47833 
6.40556 0.918995 3.70522 8.68698 0.661537 4.10044 10.433 0.338114 4.23377 
-11.3616 1.05355 3.18497 -10.558 1.70593 3.24332 -9.58396 2.42019 3.33507 
-8.49808 3.15986 3.48252 -7.23007 3.86929 3.60686 -5.67598 4.52092 3.6142 
-3.90328 5.14552 3.50162 -2.14204 5.78829 3.31989 -0.59489 6.44255 3.09884 
-11.2164 -0.00349327 3.05145 -10.2873 -0.514998 2.92305 -9.19263 -1.06585 2.82951 
-7.96106 -1.62158 2.90634 -6.56688 -2.1611 3.09884 -5.03727 -2.69415 3.20372 
-3.50566 -3.20769 3.16061 -2.09507 -3.66431 3.08172 -0.829245 -4.05591 3.02405 
-13.3183 0.695039 2.96085 -14.6652 1.05117 2.77672 -15.931 1.55112 2.5937 
-17.0705 2.13957 2.48366 -18.0092 2.76186 2.39793 -18.6991 3.4114 2.16293 
-19.1393 4.04627 1.68901 -19.3402 4.5488 1.06955 -19.3254 4.82861 0.452364 
-13.2106 -0.0137722 2.9094 -14.4449 -0.591149 2.6953 -15.6877 -1.3226 2.46069 
-16.9586 -2.2527 2.22367 -18.0554 -3.32527 1.93588 -18.7315 -4.40597 1.53092 
-19.0213 -5.41218 1.05775 -19.1191 -6.32053 0.612826 -19.0764 -7.07165 0.196675 
11.2279 0.867096 4.02975 10.4893 1.82268 3.92197 9.58412 2.75698 3.68003 
8.49864 3.62961 3.41125 7.26392 4.4683 3.27937 5.9148 5.27661 3.2967 
4.49472 5.98536 3.31028 3.09728 6.52097 3.21466 1.81714 6.86561 3.03848 
11.5416 -0.613648 4.16992 11.055 -1.17464 4.22811 10.3162 -1.71424 4.10563 
9.31281 -2.24063 3.81696 8.10265 -2.71386 3.52276 6.72525 -3.09097 3.33738 
5.17403 -3.39857 3.21237 3.50272 -3.70186 3.09024 1.84792 -4.03719 2.99305 
12.7794 0.154859 3.68069 13.7303 0.405429 3.34238 14.7393 0.755028 3.08674 
15.8258 1.18098 2.81697 16.9297 1.61093 2.40896 17.8913 2.01505 1.92444 
18.5423 2.45766 1.47725 18.8398 2.98992 1.02593 18.86 3.558 0.486603 
13.0378 -0.807936 3.73541 14.2659 -1.67242 3.41738 15.3701 -2.60707 3.20833 
16.2532 -3.64042 3.08736 17.0286 -4.75887 2.86756 17.8341 -5.84631 2.39288 
18.5192 -6.75378 1.67622 18.7851 -7.38949 0.848446 18.5671 -7.73273 0.0394915 
1.69475 7.95677 -1.96701 1.62627 8.45166 -1.54934 1.45026 8.88262 -0.979237 
1.18921 9.13049 -0.261951 0.949085 9.08551 0.517381 0.820285 8.76874 1.22749 
0.782847 8.33074 1.78459 0.758479 7.89509 2.20381 0.714696 7.47722 2.54613 
3.47522 8.03503 -2.51469 5.24343 8.44142 -2.70026 7.03994 8.58765 -2.74757 
8.92275 8.4584 -2.57409 10.9374 8.09262 -2.18146 13.0016 7.5336 -1.69952 
14.9041 6.81954 -1.25758 16.4884 5.98285 -0.866173 17.7365 5.04996 -0.484772 
-0.358902 7.05373 -1.85897 -3.04866 6.55765 -1.5074 -6.19475 6.20239 -1.31109 
-9.26324 6.10803 -1.24896 -11.7846 6.09883 -1.17892 -13.7759 5.92759 -0.993645 
-15.505 5.61475 -0.728972 -17.041 5.33916 -0.476361 -18.2711 5.13824 -0.268695 
2.46896 7.51737 2.64702 4.34447 7.8307 2.34735 6.49894 7.92168 2.01604 
8.9164 7.87744 1.77516 11.2574 7.77044 1.63465 13.2297 7.46631 1.4499 
14.8751 6.81995 1.12376 16.3424 5.92246 0.707095 17.6384 4.97046 0.282964 
-1.34057 6.789 2.79577 -3.84331 6.53331 2.67661 -6.67817 6.39413 2.4588 
-9.4346 6.32859 2.13878 -11.8058 6.17693 1.79817 -13.826 5.91435 1.52775 
-15.6098 5.68289 1.27413 -17.1157 5.52342 0.909964 -18.2796 5.30169 0.424384 
0.0563615 -4.37236 -0.962501 0.19046 -4.78081 -0.615905 0.264979 -5.13943 -0.225857 
0.260386 -5.46396 0.168173 0.176049 -5.74429 0.62289 0.0431247 -5.8648 1.22081 
-0.0523123 -5.71053 1.88745 -0.0245314 -5.32559 2.43331 0.126515 -4.85662 2.76406 
2.01721 -4.11477 -1.39914 4.52522 -4.39275 -1.62231 7.34793 -4.86428 -1.85095 
10.0799 -5.65588 -2.07533 12.1952 -6.69742 -2.24609 13.5812 -7.60818 -2.25072 
14.6463 -8.04499 -2.03592 15.7795 -8.06103 -1.65768 16.9862 -7.93468 -1.19165 
-2.03788 -4.10733 -1.00938 -4.27358 -4.4351 -0.976781 -6.81083 -5.05681 -1.15524 
-9.311 -5.92797 -1.41268 -11.4025 -6.7856 -1.5791 -13.1552 -7.41241 -1.5703 
-14.8627 -7.79615 -1.3618 -16.5139 -7.96971 -0.991217 -17.8688 -7.90285 -0.580468 
2.49849 -4.55783 2.76615 4.99782 -4.87639 2.47472 7.64491 -5.43512 2.12874 
10.0653 -6.23234 1.82155 11.969 -7.08233 1.51893 13.4539 -7.69903 1.08604 
14.8204 -7.96786 0.523945 16.1432 -8.01013 -0.00372143 17.2624 -7.95819 -0.394344 
-1.87188 -4.63374 2.9204 -4.27006 -4.96616 2.78477 -6.89217 -5.37677 2.51167 
-9.51215 -5.86614 2.18267 -11.7543 -6.41073 1.84227 -13.561 -6.91525 1.42055 
-15.1922 -7.2855 0.905365 -16.7212 -7.50914 0.422254 -17.9664 -7.60964 0.0547632 
19.6925 2.79388 -0.0971529 20.4851 1.30209 -0.0175715 20.972 -0.31723 0.109076 
21.136 -1.8933 0.160627 20.9886 -3.38274 0.0439659 20.6082 -4.85688 -0.149972 
20.1491 -6.19536 -0.285414 19.6467 -7.1249 -0.382967 18.9731 -7.59571 -0.522214 
-19.9855 4.23201 -0.26014 -20.7444 3.16921 -0.405352 -21.5145 1.75491 -0.509924 
-22.2879 0.137873 -0.6115 -22.7505 -1.58067 -0.72114 -22.5239 -3.33812 -0.756248 
-21.6763 -4.97047 -0.641267 -20.6502 -6.25888 -0.442305 -19.7183 -7.10716 -0.293729 
-8.85334 0.482274 -3.21606 -7.7433 1.34498 -2.93308 -6.31437 1.07448 -2.77803 
-6.42318 2.21452 -2.5834 -4.99146 1.92813 -2.48683 -3.71167 1.62547 -2.46727 
-4.83466 3.0615 -2.34215 -3.44803 2.75931 -2.28896 -2.22428 2.41069 -2.33161 
-1.05963 2.00187 -2.48772 -2.99064 3.93008 -2.32627 -1.67869 3.57973 -2.38811 
-0.520745 3.15556 -2.46888 0.591199 2.67484 -2.65494 1.77931 2.14615 -2.88038 
-1.14487 4.83698 -2.47314 0.123256 4.43993 -2.72555 1.2636 3.92363 -2.90641 
2.3447 3.35121 -3.08607 3.48499 2.76334 -3.29066 4.65625 2.14518 -3.46138 
0.425712 5.72423 -2.63003 1.66248 5.31693 -3.03604 2.84331 4.7468 -3.35204 
3.96667 4.09877 -3.57396 5.07338 3.44593 -3.74691 6.17447 2.78661 -3.87675 
7.19604 2.09278 -3.96803 1.69497 6.54127 -2.70791 2.86569 6.1448 -3.16293 
4.06901 5.56752 -3.54968 5.26739 4.89145 -3.82931 6.3949 4.19076 -4.02181 
7.44298 3.48131 -4.14145 8.40928 2.74309 -4.20398 9.25669 1.97712 -4.25256 
-12.6026 0.109952 -3.71174 -13.9829 0.509971 -3.65647 -11.7889 1.07921 -3.45071 
-15.1921 1.131 -3.44696 -13.1561 1.55859 -3.36846 -10.7491 2.00476 -3.09857 
-16.3205 1.84636 -3.12925 -14.2972 2.18824 -3.14081 -12.1042 2.48767 -3.01599 
-9.41181 2.85452 -2.69329 -17.3752 2.57171 -2.68746 -15.3282 2.88021 -2.78611 
-13.2159 3.11173 -2.78745 -10.7575 3.33666 -2.59195 -7.67715 3.70202 -2.29839 
-18.1415 3.3271 -2.12452 -16.2412 3.60781 -2.30197 -14.1812 3.83848 -2.4201 
-11.9059 3.98951 -2.36932 -9.02589 4.18785 -2.14991 -5.66398 4.58296 -2.01419 
-18.4631 4.0836 -1.51122 -16.8375 4.33356 -1.72585 -14.9422 4.58826 -1.92982 
-12.8545 4.74853 -2.02763 -10.2541 4.82251 -1.94056 -7.01608 5.0193 -1.81192 
-3.67525 5.44878 -1.88952 -18.4461 4.71691 -0.890957 -17.0567 4.94055 -1.10887 
-15.3651 5.21573 -1.35328 -13.4846 5.44779 -1.56171 -11.2159 5.51449 -1.63003 
-8.28983 5.54735 -1.58495 -4.96712 5.79811 -1.61879 -1.9008 6.27065 -1.86563 
-17.1942 5.50488 0.230856 -15.8325 5.7703 0.701678 -15.7506 5.76103 -0.0135885 
-14.1833 6.07242 1.07467 -14.2018 6.15819 0.429751 -14.028 6.14021 -0.309443 
-12.2399 6.42256 1.38745 -12.3639 6.57878 0.830836 -12.2483 6.62644 0.137691 
-12.067 6.48122 -0.577375 -9.88378 6.66228 1.72367 -10.1162 6.91756 1.22198 
-10.0828 7.04676 0.608957 -9.92478 6.95749 -0.0854613 -9.69331 6.61349 -0.745955 
-7.05159 6.76027 2.06706 -7.34461 7.1005 1.60781 -7.43666 7.36028 1.06695 
-7.33318 7.4039 0.425077 -7.1126 7.14841 -0.26941 -6.7477 6.69133 -0.880885 
-4.05311 6.90104 2.33381 -4.28163 7.27638 1.9263 -4.44241 7.64521 1.43593 
-4.43145 7.87716 0.835049 -4.24455 7.80826 0.134499 -3.93156 7.45371 -0.562008 
[...]
POINT_DATA 1002
FIELD FieldData 4
_paraPhi 1 1002 double
6.2831853072 3.1415926536 6.2831853072 3.1415926536 4.7123889804 4.7123889804 1.5707963268 1.5707963268 3.6951670125 
5.7296109483 2.5880182947 0.5535743589 6.2831853072 6.2831853072 6.2831853072 6.2831853072 3.1415926536 3.1415926536 
3.1415926536 3.1415926536 3.1415926536 6.1053039672 5.898798347 5.6768734901 5.4599499503 5.2659633393 5.1032165617 
4.9713148346 4.8656852733 4.7809517865 0.17788134 0.38438696014 0.60631181711 0.82323535693 1.0172219679 1.1799687454 
1.3118704726 1.4175000338 1.5022335207 6.1892828907 6.1070320098 6.035312792 5.9728339911 5.9183214791 5.8706119594 
5.8286879411 5.7916808611 5.7588591896 0.093902416448 0.17615329733 0.2478725152 0.31035131605 0.36486382811 0.41257334776 
0.45449736604 0.4915044461 0.52432611754 3.3194739936 3.5259796137 3.7479044707 3.9648280105 4.1588146215 4.321561399 
4.4534631262 4.5590926874 4.6438261743 2.9637113136 2.7572056934 2.5352808365 2.3183572967 2.1243706857 1.9616239082 
1.829722181 1.7240926197 1.6393591329 3.23549507 3.3177459509 3.3894651688 3.4519439696 3.5064564817 3.5541660013 
3.5960900196 3.6330970997 3.6659187711 3.0476902371 2.9654393563 2.8937201384 2.8312413375 2.7767288255 2.7290193058 
2.6870952876 2.6500882075 2.617266536 6.2831853072 6.2831853072 6.2831853072 6.2831853072 3.1415926536 3.1415926536 
3.1415926536 3.1415926536 3.1415926536 6.1053039672 5.898798347 5.6768734901 5.4599499503 5.2659633393 5.1032165617 
4.9713148346 4.8656852733 4.7809517865 0.17788134 0.38438696014 0.60631181711 0.82323535693 1.0172219679 1.1799687454 
1.3118704726 1.4175000338 1.5022335207 6.1892828907 6.1070320098 6.035312792 5.9728339911 5.9183214791 5.8706119594 
5.8286879411 5.7916808611 5.7588591896 0.093902416448 0.17615329733 0.2478725152 0.31035131605 0.36486382811 0.41257334776 
0.45449736604 0.4915044461 0.52432611754 3.3194739936 3.5259796137 3.7479044707 3.9648280105 4.1588146215 4.321561399 
4.4534631262 4.5590926874 4.6438261743 2.9637113136 2.7572056934 2.5352808365 2.3183572967 2.1243706857 1.9616239082 
1.829722181 1.7240926197 1.6393591329 3.23549507 3.3177459509 3.3894651688 3.4519439696 3.5064564817 3.5541660013 
3.5960900196 3.6330970997 3.6659187711 3.0476902371 2.9654393563 2.8937201384 2.8312413375 2.7767288255 2.7290193058 
2.6870952876 2.6500882075 2.617266536 4.7123889804 4.7123889804 4.7123889804 4.7123889804 4.7123889804 4.7123889804 
4.7123889804 4.7123889804 4.7123889804 4.6087898617 4.4991390697 4.3857031936 4.2712800401 4.1588146215 4.0509635631 
3.94975894 3.8564636551 3.7716124825 4.8159880991 4.9256388911 5.0390747672 5.1534979207 5.2659633393 5.3738143976 
5.4750190208 5.5683143056 5.6531654782 4.6087898617 4.4991390697 4.3857031936 4.2712800401 4.1588146215 4.0509635631 
3.94975894 3.8564636551 3.7716124825 4.8159880991 4.9256388911 5.0390747672 5.1534979207 5.2659633393 5.3738143976 
5.4750190208 5.5683143056 5.6531654782 1.5707963268 1.5707963268 1.5707963268 1.5707963268 1.5707963268 1.5707963268 
1.5707963268 1.5707963268 1.5707963268 1.6743954455 1.7840462375 1.8974821136 2.0119052671 2.1243706857 2.232221744 
2.3334263672 2.426721652 2.5115728246 1.4671972081 1.3575464161 1.24411054 1.1296873865 1.0172219679 0.90937090954 
0.80816628637 0.71487100155 0.63001982895 1.6743954455 1.7840462375 1.8974821136 2.0119052671 2.1243706857 2.232221744 
2.3334263672 2.426721652 2.5115728246 1.4671972081 1.3575464161 1.24411054 1.1296873865 1.0172219679 0.90937090954 
0.80816628637 0.71487100155 0.63001982895 3.6007720849 3.4966939854 3.3839471039 3.2645756454 3.1415926536 3.0186096618 
2.8992382033 2.7864913217 2.6824132222 5.8240058758 5.9280839753 6.0408308569 6.1602023154 6.2831853072 0.12298299178 
0.2423544503 0.35510133185 0.45917943135 6.0560271438 5.7885595667 5.9702140275 5.5125918794 5.6029703303 5.7885595667 
5.2659633393 5.2659633393 5.2659633393 5.2659633393 5.0674903122 5.0120975802 4.9155579264 4.7123889804 4.1588146215 
4.9155579264 4.8353719722 4.7123889804 4.5092200343 4.1588146215 3.6362183941 4.8004512023 4.7123889804 4.5894059886 
4.4126803806 4.1588146215 3.8218076305 3.4545639333 4.7123889804 4.6243267584 4.5092200343 4.3572876485 4.1588146215 
3.9121860814 3.6362183941 3.368750817 6.0174235957 5.9434319871 5.8263323547 5.8809213739 5.7674481418 5.6279784266 
5.8278025282 5.718968232 5.5891129425 5.4372443565 5.7823484065 5.678536687 5.5575666702 5.4192596322 5.2659633393 
5.743164462 5.6444075337 5.5314983644 5.4046708639 5.2659633393 5.1195510325 5.7091357773 5.6152775188 5.5096229709 
5.3926039573 5.2659633393 5.1329233157 4.9978930058 5.6793730533 5.5901633916 5.4910209005 5.3824597928 5.2659633393 
5.1440684722 5.0201624502 4.8979782167 5.5683143056 5.4750190208 5.4750190208 5.3738143976 5.3738143976 5.3738143976 
5.2659633393 5.2659633393 5.2659633393 5.2659633393 5.1534979207 5.1534979207 5.1534979207 5.1534979207 5.1534979207 
5.0390747672 5.0390747672 5.0390747672 5.0390747672 5.0390747672 5.0390747672 4.9256388911 4.9256388911 4.9256388911 
4.9256388911 4.9256388911 4.9256388911 4.9256388911 4.8159880991 4.8159880991 4.8159880991 4.8159880991 4.8159880991 
4.8159880991 4.8159880991 4.8159880991 4.6087898617 4.6087898617 4.4991390697 4.6087898617 4.4991390697 4.3857031936 
4.6087898617 4.4991390697 4.3857031936 4.2712800401 4.6087898617 4.4991390697 4.3857031936 4.2712800401 4.1588146215 
4.6087898617 4.4991390697 4.3857031936 4.2712800401 4.1588146215 4.0509635631 4.6087898617 4.4991390697 4.3857031936 
4.2712800401 4.1588146215 4.0509635631 3.94975894 4.6087898617 4.4991390697 4.3857031936 4.2712800401 4.1588146215 
4.0509635631 3.94975894 3.8564636551 4.526799744 4.4046155105 4.426884955 4.2807094886 4.2918546451 4.3052269283 
4.1588146215 4.1588146215 4.1588146215 4.1588146215 4.042318168 4.0321740035 4.0201070968 4.0055183285 3.9875336042 
3.9337570603 3.9151549899 3.8932795963 3.8672112905 3.8356650183 3.7967995342 3.8346145692 3.809500442 3.7803704271 
3.7462412737 3.7058097288 3.657329819 3.5984456061 3.7454049075 3.7156421835 3.6816134988 3.6424295543 3.5969754326 
3.5438565869 3.4813459737 3.4073543651 3.5642842451 3.4524645613 3.5233842518 3.3320300872 3.403123212 3.4773852225 
3.20576226 3.2746326772 3.348015857 3.4255060145 3.0774230472 3.1415926536 3.2112816139 3.2864685043 3.3668817272 
2.95115522 3.00855263 3.0719036933 3.1415926536 3.2178377658 3.3005964304 2.8307207459 2.8800620952 2.9351694502 
2.9967168029 3.0653475414 3.1415926536 3.225752376 2.718901062 2.7598010554 2.8058000847 2.8576792927 2.91630358 
2.9825888767 3.0574329311 3.1415926536 3.5642842451 3.5233842518 3.4524645613 3.4773852225 3.403123212 3.3320300872 
3.4255060145 3.348015857 3.2746326772 3.20576226 3.3668817272 3.2864685043 3.2112816139 3.1415926536 3.0774230472 
3.3005964304 3.2178377658 3.1415926536 3.0719036933 3.00855263 2.95115522 3.225752376 3.1415926536 3.0653475414 
2.9967168029 2.9351694502 2.8800620952 2.8307207459 3.1415926536 3.0574329311 2.9825888767 2.91630358 2.8576792927 
2.8058000847 2.7598010554 2.718901062 4.526799744 4.426884955 4.4046155105 4.3052269283 4.2918546451 4.2807094886 
4.1588146215 4.1588146215 4.1588146215 4.1588146215 3.9875336042 4.0055183285 4.0201070968 4.0321740035 4.042318168 
3.7967995342 3.8356650183 3.8672112905 3.8932795963 3.9151549899 3.9337570603 3.5984456061 3.657329819 3.7058097288 
3.7462412737 3.7803704271 3.809500442 3.8346145692 3.4073543651 3.4813459737 3.5438565869 3.5969754326 3.6424295543 
3.6816134988 3.7156421835 3.7454049075 4.7123889804 4.8004512023 4.6243267584 4.9155579264 4.7123889804 4.5092200343 
5.0674903122 4.8353719722 4.5894059886 4.3572876485 5.2659633393 5.0120975802 4.7123889804 4.4126803806 4.1588146215 
5.5125918794 5.2659633393 4.9155579264 4.5092200343 4.1588146215 3.9121860814 5.7885595667 5.6029703303 5.2659633393 
4.7123889804 4.1588146215 3.8218076305 3.6362183941 6.0560271438 5.9702140275 5.7885595667 5.2659633393 4.1588146215 
3.6362183941 3.4545639333 3.368750817 0.22715816343 0.49462574053 0.3129712797 0.77059342779 0.68021497688 0.49462574053 
1.0172219679 1.0172219679 1.0172219679 1.0172219679 1.2156949949 1.271087727 1.3676273807 1.5707963268 2.1243706857 
1.3676273807 1.447813335 1.5707963268 1.7739652728 2.1243706857 2.6469669131 1.4827341049 1.5707963268 1.6937793186 
1.8705049266 2.1243706857 2.4613776767 2.8286213739 1.5707963268 1.6588585487 1.7739652728 1.9258976586 2.1243706857 
2.3709992258 2.6469669131 2.9144344902 1.7563855631 1.8785697967 1.8563003522 2.0024758186 1.9913306621 1.9779583789 
2.1243706857 2.1243706857 2.1243706857 2.1243706857 2.2408671392 2.2510113037 2.2630782103 2.2776669786 2.295651703 
2.3494282469 2.3680303173 2.3899057108 2.4159740166 2.4475202889 2.486385773 2.448570738 2.4736848652 2.5028148801 
2.5369440334 2.5773755784 2.6258554882 2.6847397011 2.5377803997 2.5675431237 2.6015718084 2.6407557529 2.6862098746 
2.7393287203 2.8018393335 2.8758309421 1.6743954455 1.6743954455 1.7840462375 1.6743954455 1.7840462375 1.8974821136 
1.6743954455 1.7840462375 1.8974821136 2.0119052671 1.6743954455 1.7840462375 1.8974821136 2.0119052671 2.1243706857 
1.6743954455 1.7840462375 1.8974821136 2.0119052671 2.1243706857 2.232221744 1.6743954455 1.7840462375 1.8974821136 
2.0119052671 2.1243706857 2.232221744 2.3334263672 1.6743954455 1.7840462375 1.8974821136 2.0119052671 2.1243706857 
2.232221744 2.3334263672 2.426721652 1.4671972081 1.3575464161 1.4671972081 1.24411054 1.3575464161 1.4671972081 
1.1296873865 1.24411054 1.3575464161 1.4671972081 1.0172219679 1.1296873865 1.24411054 1.3575464161 1.4671972081 
0.90937090954 1.0172219679 1.1296873865 1.24411054 1.3575464161 1.4671972081 0.80816628637 0.90937090954 1.0172219679 
1.1296873865 1.24411054 1.3575464161 1.4671972081 0.71487100155 0.80816628637 0.90937090954 1.0172219679 1.1296873865 
1.24411054 1.3575464161 1.4671972081 0.60381225391 0.57404952988 0.69302191562 0.54002084522 0.66790778838 0.79216440667 
0.50083690068 0.63877777351 0.77356233629 0.90072551443 0.45538277901 0.60464862014 0.75168694275 0.89058134991 1.0172219679 
0.40226393329 0.56421707518 0.72561863695 0.87851444325 1.0172219679 1.139116835 0.33975332011 0.51573716537 0.69407236469 
0.86392567495 1.0172219679 1.1502619915 1.2630228569 0.26576171152 0.45685295248 0.6552068806 0.84594095064 1.0172219679 
1.1636342747 1.2852923014 1.3852070904 0.22715816343 0.3129712797 0.49462574053 0.49462574053 0.68021497688 0.77059342779 
1.0172219679 1.0172219679 1.0172219679 1.0172219679 2.1243706857 1.5707963268 1.3676273807 1.271087727 1.2156949949 
2.6469669131 2.1243706857 1.7739652728 1.5707963268 1.447813335 1.3676273807 2.8286213739 2.4613776767 2.1243706857 
1.8705049266 1.6937793186 1.5707963268 1.4827341049 2.9144344902 2.6469669131 2.3709992258 2.1243706857 1.9258976586 
1.7739652728 1.6588585487 1.5707963268 1.7563855631 1.8563003522 1.8785697967 1.9779583789 1.9913306621 2.0024758186 
2.1243706857 2.1243706857 2.1243706857 2.1243706857 2.295651703 2.2776669786 2.2630782103 2.2510113037 2.2408671392 
2.486385773 2.4475202889 2.4159740166 2.3899057108 2.3680303173 2.3494282469 2.6847397011 2.6258554882 2.5773755784 
2.5369440334 2.5028148801 2.4736848652 2.448570738 2.8758309421 2.8018393335 2.7393287203 2.6862098746 2.6407557529 
2.6015718084 2.5675431237 2.5377803997 5.8604937156 5.901393709 5.9723133995 5.9473927383 6.0216547488 6.0927478736 
5.9992719463 6.0767621038 6.1501452836 6.2190157008 6.0578962336 6.1383094565 6.2134963469 0 0.064169606361 
6.1241815303 6.206940195 6.2831853072 0.069688960264 0.13304002361 0.19043743361 6.1990255847 0 0.07624511221 
0.14487585072 0.20642320337 0.26153055843 0.3108719077 0 0.084159722458 0.15900377685 0.22528907359 0.28391336087 
0.3357925689 0.38179159818 0.42269159155 5.8604937156 5.9723133995 5.901393709 6.0927478736 6.0216547488 5.9473927383 
6.2190157008 6.1501452836 6.0767621038 5.9992719463 0.064169606361 0 6.2134963469 6.1383094565 6.0578962336 
0.19043743361 0.13304002361 0.069688960264 6.2831853072 6.206940195 6.1241815303 0.3108719077 0.26153055843 0.20642320337 
0.14487585072 0.07624511221 6.2831853072 6.1990255847 0.42269159155 0.38179159818 0.3357925689 0.28391336087 0.22528907359 
0.15900377685 0.084159722458 0 5.6793730533 5.7091357773 5.5901633916 5.743164462 5.6152775188 5.4910209005 
5.7823484065 5.6444075337 5.5096229709 5.3824597928 5.8278025282 5.678536687 5.5314983644 5.3926039573 5.2659633393 
5.8809213739 5.718968232 5.5575666702 5.4046708639 5.2659633393 5.1440684722 5.9434319871 5.7674481418 5.5891129425 
5.4192596322 5.2659633393 5.1329233157 5.0201624502 6.0174235957 5.8263323547 5.6279784266 5.4372443565 5.2659633393 
5.1195510325 4.9978930058 4.8979782167 1.3852070904 1.2852923014 1.2630228569 1.1636342747 1.1502619915 1.139116835 
1.0172219679 1.0172219679 1.0172219679 1.0172219679 0.84594095064 0.86392567495 0.87851444325 0.89058134991 0.90072551443 
0.6552068806 0.69407236469 0.72561863695 0.75168694275 0.77356233629 0.79216440667 0.45685295248 0.51573716537 0.56421707518 
0.60464862014 0.63877777351 0.66790778838 0.69302191562 0.26576171152 0.33975332011 0.40226393329 0.45538277901 0.50083690068 
0.54002084522 0.57404952988 0.60381225391 
_paraPhiHalf 1 1002 double
0 3.1415926536 0 3.1415926536 1.5707963268 1.5707963268 1.5707963268 1.5707963268 2.5880182947 
0.5535743589 2.5880182947 0.5535743589 0 0 0 0 3.1415926536 3.1415926536 
3.1415926536 3.1415926536 3.1415926536 0.17788134 0.38438696014 0.60631181711 0.82323535693 1.0172219679 1.1799687454 
1.3118704726 1.4175000338 1.5022335207 0.17788134 0.38438696014 0.60631181711 0.82323535693 1.0172219679 1.1799687454 
1.3118704726 1.4175000338 1.5022335207 0.093902416448 0.17615329733 0.2478725152 0.31035131605 0.36486382811 0.41257334776 
0.45449736604 0.4915044461 0.52432611754 0.093902416448 0.17615329733 0.2478725152 0.31035131605 0.36486382811 0.41257334776 
0.45449736604 0.4915044461 0.52432611754 2.9637113136 2.7572056934 2.5352808365 2.3183572967 2.1243706857 1.9616239082 
1.829722181 1.7240926197 1.6393591329 2.9637113136 2.7572056934 2.5352808365 2.3183572967 2.1243706857 1.9616239082 
1.829722181 1.7240926197 1.6393591329 3.0476902371 2.9654393563 2.8937201384 2.8312413375 2.7767288255 2.7290193058 
2.6870952876 2.6500882075 2.617266536 3.0476902371 2.9654393563 2.8937201384 2.8312413375 2.7767288255 2.7290193058 
2.6870952876 2.6500882075 2.617266536 0 0 0 0 3.1415926536 3.1415926536 
3.1415926536 3.1415926536 3.1415926536 0.17788134 0.38438696014 0.60631181711 0.82323535693 1.0172219679 1.1799687454 
1.3118704726 1.4175000338 1.5022335207 0.17788134 0.38438696014 0.60631181711 0.82323535693 1.0172219679 1.1799687454 
1.3118704726 1.4175000338 1.5022335207 0.093902416448 0.17615329733 0.2478725152 0.31035131605 0.36486382811 0.41257334776 
0.45449736604 0.4915044461 0.52432611754 0.093902416448 0.17615329733 0.2478725152 0.31035131605 0.36486382811 0.41257334776 
0.45449736604 0.4915044461 0.52432611754 2.9637113136 2.7572056934 2.5352808365 2.3183572967 2.1243706857 1.9616239082 
1.829722181 1.7240926197 1.6393591329 2.9637113136 2.7572056934 2.5352808365 2.3183572967 2.1243706857 1.9616239082 
1.829722181 1.7240926197 1.6393591329 3.0476902371 2.9654393563 2.8937201384 2.8312413375 2.7767288255 2.7290193058 
2.6870952876 2.6500882075 2.617266536 3.0476902371 2.9654393563 2.8937201384 2.8312413375 2.7767288255 2.7290193058 
2.6870952876 2.6500882075 2.617266536 1.5707963268 1.5707963268 1.5707963268 1.5707963268 1.5707963268 1.5707963268 
1.5707963268 1.5707963268 1.5707963268 1.6743954455 1.7840462375 1.8974821136 2.0119052671 2.1243706857 2.232221744 
2.3334263672 2.426721652 2.5115728246 1.4671972081 1.3575464161 1.24411054 1.1296873865 1.0172219679 0.90937090954 
0.80816628637 0.71487100155 0.63001982895 1.6743954455 1.7840462375 1.8974821136 2.0119052671 2.1243706857 2.232221744 
2.3334263672 2.426721652 2.5115728246 1.4671972081 1.3575464161 1.24411054 1.1296873865 1.0172219679 0.90937090954 
0.80816628637 0.71487100155 0.63001982895 1.5707963268 1.5707963268 1.5707963268 1.5707963268 1.5707963268 1.5707963268 
1.5707963268 1.5707963268 1.5707963268 1.6743954455 1.7840462375 1.8974821136 2.0119052671 2.1243706857 2.232221744 
2.3334263672 2.426721652 2.5115728246 1.4671972081 1.3575464161 1.24411054 1.1296873865 1.0172219679 0.90937090954 
0.80816628637 0.71487100155 0.63001982895 1.6743954455 1.7840462375 1.8974821136 2.0119052671 2.1243706857 2.232221744 
2.3334263672 2.426721652 2.5115728246 1.4671972081 1.3575464161 1.24411054 1.1296873865 1.0172219679 0.90937090954 
0.80816628637 0.71487100155 0.63001982895 2.6824132222 2.7864913217 2.8992382033 3.0186096618 3.1415926536 3.0186096618 
2.8992382033 2.7864913217 2.6824132222 0.45917943135 0.35510133185 0.2423544503 0.12298299178 0 0.12298299178 
0.2423544503 0.35510133185 0.45917943135 0.22715816343 0.49462574053 0.3129712797 0.77059342779 0.68021497688 0.49462574053 
1.0172219679 1.0172219679 1.0172219679 1.0172219679 1.2156949949 1.271087727 1.3676273807 1.5707963268 2.1243706857 
1.3676273807 1.447813335 1.5707963268 1.7739652728 2.1243706857 2.6469669131 1.4827341049 1.5707963268 1.6937793186 
1.8705049266 2.1243706857 2.4613776767 2.8286213739 1.5707963268 1.6588585487 1.7739652728 1.9258976586 2.1243706857 
2.3709992258 2.6469669131 2.9144344902 0.26576171152 0.33975332011 0.45685295248 0.40226393329 0.51573716537 0.6552068806 
0.45538277901 0.56421707518 0.69407236469 0.84594095064 0.50083690068 0.60464862014 0.72561863695 0.86392567495 1.0172219679 
0.54002084522 0.63877777351 0.75168694275 0.87851444325 1.0172219679 1.1636342747 0.57404952988 0.66790778838 0.77356233629 
0.89058134991 1.0172219679 1.1502619915 1.2852923014 0.60381225391 0.69302191562 0.79216440667 0.90072551443 1.0172219679 
1.139116835 1.2630228569 1.3852070904 0.71487100155 0.80816628637 0.80816628637 0.90937090954 0.90937090954 0.90937090954 
1.0172219679 1.0172219679 1.0172219679 1.0172219679 1.1296873865 1.1296873865 1.1296873865 1.1296873865 1.1296873865 
1.24411054 1.24411054 1.24411054 1.24411054 1.24411054 1.24411054 1.3575464161 1.3575464161 1.3575464161 
1.3575464161 1.3575464161 1.3575464161 1.3575464161 1.4671972081 1.4671972081 1.4671972081 1.4671972081 1.4671972081 
1.4671972081 1.4671972081 1.4671972081 1.6743954455 1.6743954455 1.7840462375 1.6743954455 1.7840462375 1.8974821136 
1.6743954455 1.7840462375 1.8974821136 2.0119052671 1.6743954455 1.7840462375 1.8974821136 2.0119052671 2.1243706857 
1.6743954455 1.7840462375 1.8974821136 2.0119052671 2.1243706857 2.232221744 1.6743954455 1.7840462375 1.8974821136 
2.0119052671 2.1243706857 2.232221744 2.3334263672 1.6743954455 1.7840462375 1.8974821136 2.0119052671 2.1243706857 
2.232221744 2.3334263672 2.426721652 1.7563855631 1.8785697967 1.8563003522 2.0024758186 1.9913306621 1.9779583789 
2.1243706857 2.1243706857 2.1243706857 2.1243706857 2.2408671392 2.2510113037 2.2630782103 2.2776669786 2.295651703 
2.3494282469 2.3680303173 2.3899057108 2.4159740166 2.4475202889 2.486385773 2.448570738 2.4736848652 2.5028148801 
2.5369440334 2.5773755784 2.6258554882 2.6847397011 2.5377803997 2.5675431237 2.6015718084 2.6407557529 2.6862098746 
2.7393287203 2.8018393335 2.8758309421 2.718901062 2.8307207459 2.7598010554 2.95115522 2.8800620952 2.8058000847 
3.0774230472 3.00855263 2.9351694502 2.8576792927 3.0774230472 3.1415926536 3.0719036933 2.9967168029 2.91630358 
2.95115522 3.00855263 3.0719036933 3.1415926536 3.0653475414 2.9825888767 2.8307207459 2.8800620952 2.9351694502 
2.9967168029 3.0653475414 3.1415926536 3.0574329311 2.718901062 2.7598010554 2.8058000847 2.8576792927 2.91630358 
2.9825888767 3.0574329311 3.1415926536 2.718901062 2.7598010554 2.8307207459 2.8058000847 2.8800620952 2.95115522 
2.8576792927 2.9351694502 3.00855263 3.0774230472 2.91630358 2.9967168029 3.0719036933 3.1415926536 3.0774230472 
2.9825888767 3.0653475414 3.1415926536 3.0719036933 3.00855263 2.95115522 3.0574329311 3.1415926536 3.0653475414 