# vtk DataFile Version 5.1
vtk output
ASCII
DATASET POLYDATA
POINTS 1002 float
-120.234 -102.01 99.1429 -124.363 -124.376 87.8017 -121.472 -98.8199 92.9513 
-123.252 -118.928 81.1584 -129.799 -111.735 92.3899 -129.352 -109.031 88.7138 
-121.579 -110.422 90.1151 -120.493 -111.202 87.144 -127.587 -128.208 80.8674 
-121.533 -96.3224 100.951 -117.21 -130.891 82.0777 -109.837 -98.5863 100.656 
-121.179 -102.335 97.6298 -122.22 -103.336 96.0397 -123.294 -105.202 94.5203 
-124.261 -107.758 93.0745 -124.906 -110.875 91.7367 -125.098 -114.609 90.7347 
-124.943 -118.53 90.1534 -124.683 -121.656 89.6586 -124.482 -123.477 88.8769 
-121.11 -102.125 98.6107 -122.104 -102.34 97.9473 -123.193 -102.69 97.1227 
-124.303 -103.299 96.142 -125.382 -104.349 95.1336 -126.451 -105.894 94.3004 
-127.509 -107.719 93.7169 -128.472 -109.453 93.2731 -129.246 -110.81 92.8418 
-119.988 -102.029 98.6665 -119.813 -102.164 98.0517 -119.757 -102.516 97.3188 
-119.87 -103.039 96.4446 -120.143 -103.628 95.4112 -120.474 -104.345 94.2972 
-120.778 -105.375 93.216 -121.073 -106.787 92.1795 -121.368 -108.507 91.1396 
-119.891 -101.912 100.207 -119.661 -101.561 101.022 -119.612 -100.861 101.532 
-119.796 -100.177 101.963 -120.211 -99.8005 102.495 -120.733 -99.356 102.894 
-121.148 -98.4156 102.825 -121.35 -97.283 102.326 -121.428 -96.5358 101.652 
-119.113 -101.992 100.324 -117.849 -102.087 101.444 -116.443 -102.047 102.326 
-114.924 -101.599 102.862 -113.356 -100.795 103.094 -111.841 -100.063 103.045 
-110.546 -99.6684 102.637 -109.693 -99.417 101.929 -109.458 -99.051 101.197 
-124.883 -124.089 88.3722 -125.586 -123.759 88.9241 -126.421 -123.251 89.4504 
-127.194 -122.127 89.9018 -127.763 -120.229 90.2381 -128.194 -118.105 90.5313 
-128.613 -116.312 90.9174 -129.045 -114.78 91.4266 -129.452 -113.251 91.9547 
-124.007 -124.124 87.9089 -123.704 -123.584 87.9728 -123.399 -122.558 88.0217 
-123.073 -121.124 88.1198 -122.808 -119.595 88.2882 -122.657 -118.029 88.4884 
-122.526 -116.187 88.7282 -122.296 -114.09 89.079 -121.963 -112.088 89.5621 
-124.596 -124.945 86.9532 -124.896 -125.747 86.0929 -125.209 -126.768 85.374 
-125.541 -127.687 84.7831 -125.953 -128.303 84.1722 -126.424 -128.762 83.4728 
-126.848 -129.146 82.7317 -127.174 -129.247 81.9999 -127.42 -128.906 81.3443 
-124.002 -124.899 86.6176 -123.493 -125.387 85.3177 -122.736 -125.946 84.18 
-121.828 -126.894 83.4818 -120.961 -128.594 83.2952 -120.108 -130.704 83.3823 
-119.134 -132.178 83.3665 -118.172 -132.424 83.063 -117.503 -131.797 82.5718 
-122.424 -99.5765 91.5822 -123.349 -101.152 90.3052 -124.054 -103.868 89.2092 
-124.428 -107.163 88.0682 -124.493 -109.949 86.6351 -124.337 -111.927 85.093 
-124.063 -113.745 83.8191 -123.762 -115.747 82.8558 -123.485 -117.584 81.9984 
-122.372 -98.8839 92.2897 -123.43 -99.2456 91.5998 -124.511 -100.056 90.9695 
-125.453 -101.264 90.4883 -126.247 -102.691 90.1739 -127.02 -104.186 89.9186 
-127.797 -105.624 89.602 -128.475 -106.91 89.2396 -128.984 -108.032 88.9297 
-121.285 -99.2358 92.7297 -121.208 -99.7537 92.4321 -121.149 -100.321 91.993 
-121.055 -101.027 91.403 -121.063 -102.154 90.738 -121.275 -103.857 90.0705 
-121.469 -105.859 89.3908 -121.364 -107.774 88.657 -120.976 -109.52 87.8821 
-121.097 -98.31 93.9631 -120.806 -97.7975 95.0381 -120.577 -97.1365 96.048 
-120.412 -96.3701 96.9024 -120.408 -95.8353 97.6865 -120.593 -95.7479 98.5454 
-120.828 -95.8782 99.4278 -121.014 -95.9598 100.149 -121.22 -96.053 100.638 
-120.374 -98.4608 94.1911 -119.199 -97.8355 95.3605 -117.938 -96.974 96.3993 
-116.685 -96.4575 97.4471 -115.598 -96.7398 98.6068 -114.58 -97.4401 99.6963 
-113.316 -97.8812 100.414 -111.825 -97.9874 100.681 -110.544 -98.1446 100.681 
-124.034 -118.406 81.526 -124.821 -117.682 82.0426 -125.568 -116.756 82.7073 
-126.295 -115.689 83.4864 -127.024 -114.553 84.3185 -127.716 -113.39 85.1657 
-128.303 -112.237 86.0441 -128.756 -111.125 86.9664 -129.094 -110.059 87.8832 
-122.612 -118.578 81.3998 -122.001 -117.984 81.698 -121.476 -117.179 82.0293 
-121.013 -116.271 82.4 -120.571 -115.366 82.8674 -120.208 -114.564 83.4974 
-120.048 -113.944 84.2994 -120.127 -113.369 85.2213 -120.333 -112.516 86.1912 
-123.545 -119.677 80.5053 -123.913 -120.43 79.8812 -124.371 -121.491 79.373 
-124.896 -122.874 79.002 -125.421 -124.208 78.809 -125.931 -125.272 78.876 
-126.459 -126.229 79.1875 -126.967 -127.174 79.6442 -127.357 -127.906 80.2039 
-122.625 -119.843 80.4793 -121.962 -120.742 79.8775 -121.288 -121.747 79.4543 
-120.602 -123.077 79.3094 -119.925 -124.883 79.4604 -119.312 -126.879 79.7762 
-118.757 -128.47 80.1331 -118.199 -129.449 80.5899 -117.648 -130.151 81.2534 
-130.298 -111.269 92.3335 -130.837 -110.765 92.2356 -131.342 -110.176 91.9923 
-131.681 -109.452 91.5054 -131.721 -108.744 90.8374 -131.409 -108.369 90.2071 
-130.847 -108.441 89.7548 -130.238 -108.725 89.418 -129.733 -108.946 89.0791 
-129.928 -113.349 91.576 -129.91 -115.192 90.5385 -130.002 -117.617 89.4068 
-130.254 -120.193 88.2843 -130.285 -121.901 87.131 -129.77 -122.699 85.8371 
-128.962 -123.693 84.3981 -128.32 -125.381 82.9778 -127.928 -127.112 81.7778 
-129.667 -109.613 92.9723 -129.129 -107.127 93.48 -128.28 -104.549 94.1626 
-127.428 -102.211 95.2238 -126.678 -100.299 96.5521 -125.78 -98.9561 97.882 
-124.599 -98.1777 99.0499 -123.37 -97.6277 99.9625 -122.346 -96.9902 100.575 
-129.462 -110.753 88.0402 -129.504 -112.77 87.2548 -129.621 -114.845 86.2088 
-129.815 -116.675 84.9536 -129.815 -118.385 83.8461 -129.412 -120.36 83.071 
-128.797 -122.609 82.4022 -128.278 -124.812 81.6985 -127.916 -126.72 81.135 
-129.31 -107.33 89.6155 -129.098 -105.344 90.5015 -128.749 -103.022 91.2829 
-128.217 -100.704 92.0631 -127.268 -99.0668 93.198 -125.813 -98.3405 94.8996 
-124.234 -97.9825 96.8711 -122.999 -97.463 98.6205 -122.17 -96.8179 99.9495 
-121.417 -110.787 89.8209 -121.212 -111.273 89.5039 -120.889 -111.818 89.2106 
-120.481 -112.31 88.9101 -120.158 -112.616 88.5258 -120.037 -112.61 88.0845 
-120.063 -112.273 87.713 -120.145 -111.784 87.4674 -120.282 -111.389 87.2958 
-121.702 -113.638 88.7992 -121.212 -116.983 87.6377 -120.238 -119.495 86.6583 
-119.22 -121.037 85.7137 -118.377 -122.873 84.8218 -117.549 -125.911 84.2525 
-116.764 -129.098 84.0083 -116.388 -130.894 83.6781 -116.603 -131.192 82.9886 
-120.889 -107.823 91.4053 -119.793 -105.602 92.8102 -118.429 -103.8 94.1909 
-116.966 -102.497 95.6711 -115.467 -101.951 97.4039 -113.919 -101.909 99.0211 
-112.372 -101.507 99.9418 -111.025 -100.445 100.205 -110.134 -99.3003 100.34 
-119.77 -113.616 85.926 -118.837 -115.491 84.9746 -117.984 -116.967 84.385 
-117.362 -118.546 83.8628 -116.911 -120.65 83.1035 -116.573 -123.31 82.3469 
-116.4 -126.104 82.0221 -116.45 -128.419 82.0722 -116.728 -129.961 82.1427 
-120.592 -108.093 88.6063 -119.846 -104.451 90.1539 -118.265 -101.707 91.5508 
-116.542 -100.707 92.7973 -115.364 -100.537 94.2631 -114.553 -99.9047 96.1449 
-113.483 -98.9337 97.9925 -112.066 -98.4016 99.2687 -110.734 -98.4096 100.022 
-127.011 -129.166 80.3573 -126.127 -129.631 79.8671 -125.073 -129.965 79.3349 
-124.058 -130.636 78.9962 -122.987 -131.595 79.1599 -121.696 -132.236 79.674 
-120.347 -132.148 80.1809 -119.151 -131.617 80.697 -118.105 -131.158 81.3692 
-120.542 -95.814 101.698 -119.154 -95.5765 102.478 -117.443 -95.6429 103.146 
-115.677 -95.9685 103.497 -113.975 -96.5405 103.592 -112.327 -97.2615 103.584 
-110.911 -97.889 103.282 -109.991 -98.261 102.491 -109.655 -98.4357 101.481 
-122.107 -102.711 97.012 -123.14 -103.306 96.2784 -123.17 -104.134 95.3789 
-124.23 -104.205 95.4334 -124.168 -105.309 94.6689 -124.181 -106.534 93.8963 
-125.307 -105.542 94.57 -125.153 -106.896 93.9594 -125.012 -108.297 93.3215 
-124.956 -109.618 92.5713 -126.356 -107.346 93.8571 -126.11 -108.841 93.3438 
-125.787 -110.332 92.8098 -125.537 -111.785 92.1858 -125.347 -113.182 91.4402 
-127.371 -109.354 93.3575 -127.049 -110.891 92.8728 -126.583 -112.364 92.351 
-126.139 -113.939 91.8277 -125.768 -115.551 91.2494 -125.379 -117.083 90.6534 
-128.273 -111.137 92.944 -127.906 -112.668 92.4597 -127.394 -114.1 91.9129 
-126.865 -115.778 91.4291 -126.365 -117.649 91.0006 -125.815 -119.297 90.5557 
-125.219 -120.6 90.1008 -128.97 -112.427 92.4783 -128.577 -113.943 91.9808 
-128.094 -115.391 91.4421 -127.602 -117.147 90.9949 -127.104 -119.23 90.6505 
-126.487 -121.032 90.2985 -125.741 -122.183 89.8747 -125.03 -122.918 89.3967 
-120.857 -101.893 99.6286 -120.728 -101.431 100.37 -121.957 -101.941 98.894 
-120.799 -100.742 100.826 -121.937 -101.413 99.5772 -123.137 -102.098 97.9599 
-121.124 -100.178 101.257 -122.133 -100.808 100.026 -123.205 -101.535 98.5854 
-124.303 -102.496 96.8111 -121.649 -99.7955 101.749 -122.578 -100.298 100.453 
-123.503 -101.021 99.0339 -124.427 -101.858 97.3305 -125.432 -103.325 95.5987 
-122.149 -99.1618 102.003 -123.114 -99.7428 100.833 -124 -100.492 99.4161 
-124.778 -101.356 97.7307 -125.6 -102.521 95.9664 -126.579 -104.677 94.5858 
-122.395 -98.1858 101.792 -123.456 -98.9285 100.898 -124.45 -99.7495 99.6346 
-125.252 -100.765 98.0362 -125.951 -101.927 96.2816 -126.793 -103.698 94.8105 
-127.739 -106.414 93.8844 -122.396 -97.3481 101.247 -123.487 -98.0962 100.557 
-124.635 -98.8566 99.5096 -125.615 -99.8953 98.1228 -126.356 -101.249 96.5225 
-127.105 -102.984 95.0391 -128.001 -105.356 94.0135 -128.805 -108.176 93.3923 
-123.063 -97.4446 99.3762 -124.174 -97.9051 97.7448 -124.322 -97.8556 98.4981 
-125.751 -98.1889 95.7667 -125.72 -98.0386 96.6495 -125.751 -98.2327 97.4055 
-127.382 -98.7065 93.9006 -127.354 -98.4058 94.7487 -127.171 -98.5129 95.6103 
-126.931 -99.2467 96.2592 -128.536 -100.165 92.5685 -128.716 -99.6505 93.2343 
-128.584 -99.5794 94.0263 -128.214 -100.233 94.7297 -127.805 -101.297 95.1328 
-129.172 -102.501 91.6755 -129.586 -101.912 92.1542 -129.745 -101.675 92.78 
-129.542 -102.164 93.4461 -129.136 -103.147 93.9309 -128.699 -104.022 94.1378 
-129.548 -104.951 90.8613 -130.101 -104.435 91.233 -130.572 -104.13 91.7096 
-130.727 -104.459 92.3151 -130.528 -105.35 92.8945 -130.116 -106.24 93.2675 
[...]
POINT_DATA 1002
FIELD FieldData 4
_paraPhi 1 1002 double
6.2831853072 3.1415926536 6.2831853072 3.1415926536 4.7123889804 4.7123889804 1.5707963268 1.5707963268 3.6951670125 
5.7296109483 2.5880182947 0.5535743589 6.2831853072 6.2831853072 6.2831853072 6.2831853072 3.1415926536 3.1415926536 
3.1415926536 3.1415926536 3.1415926536 6.1053039672 5.898798347 5.6768734901 5.4599499503 5.2659633393 5.1032165617 
4.9713148346 4.8656852733 4.7809517865 0.17788134 0.38438696014 0.60631181711 0.82323535693 1.0172219679 1.1799687454 
1.3118704726 1.4175000338 1.5022335207 6.1892828907 6.1070320098 6.035312792 5.9728339911 5.9183214791 5.8706119594 
5.8286879411 5.7916808611 5.7588591896 0.093902416448 0.17615329733 0.2478725152 0.31035131605 0.36486382811 0.41257334776 
0.45449736604 0.4915044461 0.52432611754 3.3194739936 3.5259796137 3.7479044707 3.9648280105 4.1588146215 4.321561399 
4.4534631262 4.5590926874 4.6438261743 2.9637113136 2.7572056934 2.5352808365 2.3183572967 2.1243706857 1.9616239082 
1.829722181 1.7240926197 1.6393591329 3.23549507 3.3177459509 3.3894651688 3.4519439696 3.5064564817 3.5541660013 
3.5960900196 3.6330970997 3.6659187711 3.0476902371 2.9654393563 2.8937201384 2.8312413375 2.7767288255 2.7290193058 
2.6870952876 2.6500882075 2.617266536 6.2831853072 6.2831853072 6.2831853072 6.2831853072 3.1415926536 3.1415926536 
3.1415926536 3.1415926536 3.1415926536 6.1053039672 5.898798347 5.6768734901 5.4599499503 5.2659633393 5.1032165617 
4.9713148346 4.8656852733 4.7809517865 0.17788134 0.38438696014 0.60631181711 0.82323535693 1.0172219679 1.1799687454 
1.3118704726 1.4175000338 1.5022335207 6.1892828907 6.1070320098 6.035312792 5.9728339911 5.9183214791 5.8706119594 
5.8286879411 5.7916808611 5.7588591896 0.093902416448 0.17615329733 0.2478725152 0.31035131605 0.36486382811 0.41257334776 
0.45449736604 0.4915044461 0.52432611754 3.3194739936 3.5259796137 3.7479044707 3.9648280105 4.1588146215 4.321561399 
4.4534631262 4.5590926874 4.6438261743 2.9637113136 2.7572056934 2.5352808365 2.3183572967 2.1243706857 1.9616239082 
1.829722181 1.7240926197 1.6393591329 3.23549507 3.3177459509 3.3894651688 3.4519439696 3.5064564817 3.5541660013 
3.5960900196 3.6330970997 3.6659187711 3.0476902371 2.9654393563 2.8937201384 2.8312413375 2.7767288255 2.7290193058 
2.6870952876 2.6500882075 2.617266536 4.7123889804 4.7123889804 4.7123889804 4.7123889804 4.7123889804 4.7123889804 
4.7123889804 4.7123889804 4.7123889804 4.6087898617 4.4991390697 4.3857031936 4.2712800401 4.1588146215 4.0509635631 
3.94975894 3.8564636551 3.7716124825 4.8159880991 4.9256388911 5.0390747672 5.1534979207 5.2659633393 5.3738143976 
5.4750190208 5.5683143056 5.6531654782 4.6087898617 4.4991390697 4.3857031936 4.2712800401 4.1588146215 4.0509635631 
3.94975894 3.8564636551 3.7716124825 4.8159880991 4.9256388911 5.0390747672 5.1534979207 5.2659633393 5.3738143976 
5.4750190208 5.5683143056 5.6531654782 1.5707963268 1.5707963268 1.5707963268 1.5707963268 1.5707963268 1.5707963268 
1.5707963268 1.5707963268 1.5707963268 1.6743954455 1.7840462375 1.8974821136 2.0119052671 2.1243706857 2.232221744 
2.3334263672 2.426721652 2.5115728246 1.4671972081 1.3575464161 1.24411054 1.1296873865 1.0172219679 0.90937090954 
0.80816628637 0.71487100155 0.63001982895 1.6743954455 1.7840462375 1.8974821136 2.0119052671 2.1243706857 2.232221744 
2.3334263672 2.426721652 2.5115728246 1.4671972081 1.3575464161 1.24411054 1.1296873865 1.0172219679 0.90937090954 
0.80816628637 0.71487100155 0.63001982895 3.6007720849 3.4966939854 3.3839471039 3.2645756454 3.1415926536 3.0186096618 
2.8992382033 2.7864913217 2.6824132222 5.8240058758 5.9280839753 6.0408308569 6.1602023154 6.2831853072 0.12298299178 
0.2423544503 0.35510133185 0.45917943135 6.0560271438 5.7885595667 5.9702140275 5.5125918794 5.6029703303 5.7885595667 
5.2659633393 5.2659633393 5.2659633393 5.2659633393 5.0674903122 5.0120975802 4.9155579264 4.7123889804 4.1588146215 
4.9155579264 4.8353719722 4.7123889804 4.5092200343 4.1588146215 3.6362183941 4.8004512023 4.7123889804 4.5894059886 
4.4126803806 4.1588146215 3.8218076305 3.4545639333 4.7123889804 4.6243267584 4.5092200343 4.3572876485 4.1588146215 
3.9121860814 3.6362183941 3.368750817 6.0174235957 5.9434319871 5.8263323547 5.8809213739 5.7674481418 5.6279784266 
5.8278025282 5.718968232 5.5891129425 5.4372443565 5.7823484065 5.678536687 5.5575666702 5.4192596322 5.2659633393 
5.743164462 5.6444075337 5.5314983644 5.4046708639 5.2659633393 5.1195510325 5.7091357773 5.6152775188 5.5096229709 
5.3926039573 5.2659633393 5.1329233157 4.9978930058 5.6793730533 5.5901633916 5.4910209005 5.3824597928 5.2659633393 
5.1440684722 5.0201624502 4.8979782167 5.5683143056 5.4750190208 5.4750190208 5.3738143976 5.3738143976 5.3738143976 
5.2659633393 5.2659633393 5.2659633393 5.2659633393 5.1534979207 5.1534979207 5.1534979207 5.1534979207 5.1534979207 
5.0390747672 5.0390747672 5.0390747672 5.0390747672 5.0390747672 5.0390747672 4.9256388911 4.9256388911 4.9256388911 
4.9256388911 4.9256388911 4.9256388911 4.9256388911 4.8159880991 4.8159880991 4.8159880991 4.8159880991 4.8159880991 
4.8159880991 4.8159880991 4.8159880991 4.6087898617 4.6087898617 4.4991390697 4.6087898617 4.4991390697 4.3857031936 
4.6087898617 4.4991390697 4.3857031936 4.2712800401 4.6087898617 4.4991390697 4.3857031936 4.2712800401 4.1588146215 
4.6087898617 4.4991390697 4.3857031936 4.2712800401 4.1588146215 4.0509635631 4.6087898617 4.4991390697 4.3857031936 
4.2712800401 4.1588146215 4.0509635631 3.94975894 4.6087898617 4.4991390697 4.3857031936 4.2712800401 4.1588146215 
4.0509635631 3.94975894 3.8564636551 4.526799744 4.4046155105 4.426884955 4.2807094886 4.2918546451 4.3052269283 
4.1588146215 4.1588146215 4.1588146215 4.1588146215 4.042318168 4.0321740035 4.0201070968 4.0055183285 3.9875336042 
3.9337570603 3.9151549899 3.8932795963 3.8672112905 3.8356650183 3.7967995342 3.8346145692 3.809500442 3.7803704271 
3.7462412737 3.7058097288 3.657329819 3.5984456061 3.7454049075 3.7156421835 3.6816134988 3.6424295543 3.5969754326 
3.5438565869 3.4813459737 3.4073543651 3.5642842451 3.4524645613 3.5233842518 3.3320300872 3.403123212 3.4773852225 
3.20576226 3.2746326772 3.348015857 3.4255060145 3.0774230472 3.1415926536 3.2112816139 3.2864685043 3.3668817272 
2.95115522 3.00855263 3.0719036933 3.1415926536 3.2178377658 3.3005964304 2.8307207459 2.8800620952 2.9351694502 
2.9967168029 3.0653475414 3.1415926536 3.225752376 2.718901062 2.7598010554 2.8058000847 2.8576792927 2.91630358 
2.9825888767 3.0574329311 3.1415926536 3.5642842451 3.5233842518 3.4524645613 3.4773852225 3.403123212 3.3320300872 
3.4255060145 3.348015857 3.2746326772 3.20576226 3.3668817272 3.2864685043 3.2112816139 3.1415926536 3.0774230472 
3.3005964304 3.2178377658 3.1415926536 3.0719036933 3.00855263 2.95115522 3.225752376 3.1415926536 3.0653475414 
2.9967168029 2.9351694502 2.8800620952 2.8307207459 3.1415926536 3.0574329311 2.9825888767 2.91630358 2.8576792927 
2.8058000847 2.7598010554 2.718901062 4.526799744 4.426884955 4.4046155105 4.3052269283 4.2918546451 4.2807094886 
4.1588146215 4.1588146215 4.1588146215 4.1588146215 3.9875336042 4.0055183285 4.0201070968 4.0321740035 4.042318168 
3.7967995342 3.8356650183 3.8672112905 3.8932795963 3.9151549899 3.9337570603 3.5984456061 3.657329819 3.7058097288 
3.7462412737 3.7803704271 3.809500442 3.8346145692 3.4073543651 3.4813459737 3.5438565869 3.5969754326 3.6424295543 
3.6816134988 3.7156421835 3.7454049075 4.7123889804 4.8004512023 4.6243267584 4.9155579264 4.7123889804 4.5092200343 
5.0674903122 4.8353719722 4.5894059886 4.3572876485 5.2659633393 5.0120975802 4.7123889804 4.4126803806 4.1588146215 
5.5125918794 5.2659633393 4.9155579264 4.5092200343 4.1588146215 3.9121860814 5.7885595667 5.6029703303 5.2659633393 
4.7123889804 4.1588146215 3.8218076305 3.6362183941 6.0560271438 5.9702140275 5.7885595667 5.2659633393 4.1588146215 
3.6362183941 3.4545639333 3.368750817 0.22715816343 0.49462574053 0.3129712797 0.77059342779 0.68021497688 0.49462574053 
1.0172219679 1.0172219679 1.0172219679 1.0172219679 1.2156949949 1.271087727 1.3676273807 1.5707963268 2.1243706857 
1.3676273807 1.447813335 1.5707963268 1.7739652728 2.1243706857 2.6469669131 1.4827341049 1.5707963268 1.6937793186 
1.8705049266 2.1243706857 2.4613776767 2.8286213739 1.5707963268 1.6588585487 1.7739652728 1.9258976586 2.1243706857 
2.3709992258 2.6469669131 2.9144344902 1.7563855631 1.8785697967 1.8563003522 2.0024758186 1.9913306621 1.9779583789 
2.1243706857 2.1243706857 2.1243706857 2.1243706857 2.2408671392 2.2510113037 2.2630782103 2.2776669786 2.295651703 
2.3494282469 2.3680303173 2.3899057108 2.4159740166 2.4475202889 2.486385773 2.448570738 2.4736848652 2.5028148801 
2.5369440334 2.5773755784 2.6258554882 2.6847397011 2.5377803997 2.5675431237 2.6015718084 2.6407557529 2.6862098746 
2.7393287203 2.8018393335 2.8758309421 1.6743954455 1.6743954455 1.7840462375 1.6743954455 1.7840462375 1.8974821136 
1.6743954455 1.7840462375 1.8974821136 2.0119052671 1.6743954455 1.7840462375 1.8974821136 2.0119052671 2.1243706857 
1.6743954455 1.7840462375 1.8974821136 2.0119052671 2.1243706857 2.232221744 1.6743954455 1.7840462375 1.8974821136 
2.0119052671 2.1243706857 2.232221744 2.3334263672 1.6743954455 1.7840462375 1.8974821136 2.0119052671 2.1243706857 
2.232221744 2.3334263672 2.426721652 1.4671972081 1.3575464161 1.4671972081 1.24411054 1.3575464161 1.4671972081 
1.1296873865 1.24411054 1.3575464161 1.4671972081 1.0172219679 1.1296873865 1.24411054 1.3575464161 1.4671972081 
0.90937090954 1.0172219679 1.1296873865 1.24411054 1.3575464161 1.4671972081 0.80816628637 0.90937090954 1.0172219679 
1.1296873865 1.24411054 1.3575464161 1.4671972081 0.71487100155 0.80816628637 0.90937090954 1.0172219679 1.1296873865 
1.24411054 1.3575464161 1.4671972081 0.60381225391 0.57404952988 0.69302191562 0.54002084522 0.66790778838 0.79216440667 
0.50083690068 0.63877777351 0.77356233629 0.90072551443 0.45538277901 0.60464862014 0.75168694275 0.89058134991 1.0172219679 
0.40226393329 0.56421707518 0.72561863695 0.87851444325 1.0172219679 1.139116835 0.33975332011 0.51573716537 0.69407236469 
0.86392567495 1.0172219679 1.1502619915 1.2630228569 0.26576171152 0.45685295248 0.6552068806 0.84594095064 1.0172219679 
1.1636342747 1.2852923014 1.3852070904 0.22715816343 0.3129712797 0.49462574053 0.49462574053 0.68021497688 0.77059342779 
1.0172219679 1.0172219679 1.0172219679 1.0172219679 2.1243706857 1.5707963268 1.3676273807 1.271087727 1.2156949949 
2.6469669131 2.1243706857 1.7739652728 1.5707963268 1.447813335 1.3676273807 2.8286213739 2.4613776767 2.1243706857 
1.8705049266 1.6937793186 1.5707963268 1.4827341049 2.9144344902 2.6469669131 2.3709992258 2.1243706857 1.9258976586 
1.7739652728 1.6588585487 1.5707963268 1.7563855631 1.8563003522 1.8785697967 1.9779583789 1.9913306621 2.0024758186 
2.1243706857 2.1243706857 2.1243706857 2.1243706857 2.295651703 2.2776669786 2.2630782103 2.2510113037 2.2408671392 
2.486385773 2.4475202889 2.4159740166 2.3899057108 2.3680303173 2.3494282469 2.6847397011 2.6258554882 2.5773755784 
2.5369440334 2.5028148801 2.4736848652 2.448570738 2.8758309421 2.8018393335 2.7393287203 2.6862098746 2.6407557529 
2.6015718084 2.5675431237 2.5377803997 5.8604937156 5.901393709 5.9723133995 5.9473927383 6.0216547488 6.0927478736 
5.9992719463 6.0767621038 6.1501452836 6.2190157008 6.0578962336 6.1383094565 6.2134963469 0 0.064169606361 
6.1241815303 6.206940195 6.2831853072 0.069688960264 0.13304002361 0.19043743361 6.1990255847 0 0.07624511221 
0.14487585072 0.20642320337 0.26153055843 0.3108719077 0 0.084159722458 0.15900377685 0.22528907359 0.28391336087 
0.3357925689 0.38179159818 0.42269159155 5.8604937156 5.9723133995 5.901393709 6.0927478736 6.0216547488 5.9473927383 
6.2190157008 6.1501452836 6.0767621038 5.9992719463 0.064169606361 0 6.2134963469 6.1383094565 6.0578962336 
0.19043743361 0.13304002361 0.069688960264 6.2831853072 6.206940195 6.1241815303 0.3108719077 0.26153055843 0.20642320337 
0.14487585072 0.07624511221 6.2831853072 6.1990255847 0.42269159155 0.38179159818 0.3357925689 0.28391336087 0.22528907359 
0.15900377685 0.084159722458 0 5.6793730533 5.7091357773 5.5901633916 5.743164462 5.6152775188 5.4910209005 
5.7823484065 5.6444075337 5.5096229709 5.3824597928 5.8278025282 5.678536687 5.5314983644 5.3926039573 5.2659633393 
5.8809213739 5.718968232 5.5575666702 5.4046708639 5.2659633393 5.1440684722 5.9434319871 5.7674481418 5.5891129425 
5.4192596322 5.2659633393 5.1329233157 5.0201624502 6.0174235957 5.8263323547 5.6279784266 5.4372443565 5.2659633393 
5.1195510325 4.9978930058 4.8979782167 1.3852070904 1.2852923014 1.2630228569 1.1636342747 1.1502619915 1.139116835 
1.0172219679 1.0172219679 1.0172219679 1.0172219679 0.84594095064 0.86392567495 0.87851444325 0.89058134991 0.90072551443 
0.6552068806 0.69407236469 0.72561863695 0.75168694275 0.77356233629 0.79216440667 0.45685295248 0.51573716537 0.56421707518 
0.60464862014 0.63877777351 0.66790778838 0.69302191562 0.26576171152 0.33975332011 0.40226393329 0.45538277901 0.50083690068 
0.54002084522 0.57404952988 0.60381225391 
_paraPhiHalf 1 1002 double
0 3.1415926536 0 3.1415926536 1.5707963268 1.5707963268 1.5707963268 1.5707963268 2.5880182947 
0.5535743589 2.5880182947 0.5535743589 0 0 0 0 3.1415926536 3.1415926536 
3.1415926536 3.1415926536 3.1415926536 0.17788134 0.38438696014 0.60631181711 0.82323535693 1.0172219679 1.1799687454 
1.3118704726 1.4175000338 1.5022335207 0.17788134 0.38438696014 0.60631181711 0.82323535693 1.0172219679 1.1799687454 
1.3118704726 1.4175000338 1.5022335207 0.093902416448 0.17615329733 0.2478725152 0.31035131605 0.36486382811 0.41257334776 
0.45449736604 0.4915044461 0.52432611754 0.093902416448 0.17615329733 0.2478725152 0.31035131605 0.36486382811 0.41257334776 
0.45449736604 0.4915044461 0.52432611754 2.9637113136 2.7572056934 2.5352808365 2.3183572967 2.1243706857 1.9616239082 
1.829722181 1.7240926197 1.6393591329 2.9637113136 2.7572056934 2.5352808365 2.3183572967 2.1243706857 1.9616239082 
1.829722181 1.7240926197 1.6393591329 3.0476902371 2.9654393563 2.8937201384 2.8312413375 2.7767288255 2.7290193058 
2.6870952876 2.6500882075 2.617266536 3.0476902371 2.9654393563 2.8937201384 2.8312413375 2.7767288255 2.7290193058 
2.6870952876 2.6500882075 2.617266536 0 0 0 0 3.1415926536 3.1415926536 
3.1415926536 3.1415926536 3.1415926536 0.17788134 0.38438696014 0.60631181711 0.82323535693 1.0172219679 1.1799687454 
1.3118704726 1.4175000338 1.5022335207 0.17788134 0.38438696014 0.60631181711 0.82323535693 1.0172219679 1.1799687454 
1.3118704726 1.4175000338 1.5022335207 0.093902416448 0.17615329733 0.2478725152 0.31035131605 0.36486382811 0.41257334776 
0.45449736604 0.4915044461 0.52432611754 0.093902416448 0.17615329733 0.2478725152 0.31035131605 0.36486382811 0.41257334776 
0.45449736604 0.4915044461 0.52432611754 2.9637113136 2.7572056934 2.5352808365 2.3183572967 2.1243706857 1.9616239082 
1.829722181 1.7240926197 1.6393591329 2.9637113136 2.7572056934 2.5352808365 2.3183572967 2.1243706857 1.9616239082 
1.829722181 1.7240926197 1.6393591329 3.0476902371 2.9654393563 2.8937201384 2.8312413375 2.7767288255 2.7290193058 
2.6870952876 2.6500882075 2.617266536 3.0476902371 2.9654393563 2.8937201384 2.8312413375 2.7767288255 2.7290193058 
2.6870952876 2.6500882075 2.617266536 1.5707963268 1.5707963268 1.5707963268 1.5707963268 1.5707963268 1.5707963268 
1.5707963268 1.5707963268 1.5707963268 1.6743954455 1.7840462375 1.8974821136 2.0119052671 2.1243706857 2.232221744 
2.3334263672 2.426721652 2.5115728246 1.4671972081 1.3575464161 1.24411054 1.1296873865 1.0172219679 0.90937090954 
0.80816628637 0.71487100155 0.63001982895 1.6743954455 1.7840462375 1.8974821136 2.0119052671 2.1243706857 2.232221744 
2.3334263672 2.426721652 2.5115728246 1.4671972081 1.3575464161 1.24411054 1.1296873865 1.0172219679 0.90937090954 
0.80816628637 0.71487100155 0.63001982895 1.5707963268 1.5707963268 1.5707963268 1.5707963268 1.5707963268 1.5707963268 
1.5707963268 1.5707963268 1.5707963268 1.6743954455 1.7840462375 1.8974821136 2.0119052671 2.1243706857 2.232221744 
2.3334263672 2.426721652 2.5115728246 1.4671972081 1.3575464161 1.24411054 1.1296873865 1.0172219679 0.90937090954 
0.80816628637 0.71487100155 0.63001982895 1.6743954455 1.7840462375 1.8974821136 2.0119052671 2.1243706857 2.232221744 
2.3334263672 2.426721652 2.5115728246 1.4671972081 1.3575464161 1.24411054 1.1296873865 1.0172219679 0.90937090954 
0.80816628637 0.71487100155 0.63001982895 2.6824132222 2.7864913217 2.8992382033 3.0186096618 3.1415926536 3.0186096618 
2.8992382033 2.7864913217 2.6824132222 0.45917943135 0.35510133185 0.2423544503 0.12298299178 0 0.12298299178 
0.2423544503 0.35510133185 0.45917943135 0.22715816343 0.49462574053 0.3129712797 0.77059342779 0.68021497688 0.49462574053 
1.0172219679 1.0172219679 1.0172219679 1.0172219679 1.2156949949 1.271087727 1.3676273807 1.5707963268 2.1243706857 
1.3676273807 1.447813335 1.5707963268 1.7739652728 2.1243706857 2.6469669131 1.4827341049 1.5707963268 1.6937793186 
1.8705049266 2.1243706857 2.4613776767 2.8286213739 1.5707963268 1.6588585487 1.7739652728 1.9258976586 2.1243706857 
2.3709992258 2.6469669131 2.9144344902 0.26576171152 0.33975332011 0.45685295248 0.40226393329 0.51573716537 0.6552068806 
0.45538277901 0.56421707518 0.69407236469 0.84594095064 0.50083690068 0.60464862014 0.72561863695 0.86392567495 1.0172219679 
0.54002084522 0.63877777351 0.75168694275 0.87851444325 1.0172219679 1.1636342747 0.57404952988 0.66790778838 0.77356233629 
0.89058134991 1.0172219679 1.1502619915 1.2852923014 0.60381225391 0.69302191562 0.79216440667 0.90072551443 1.0172219679 
1.139116835 1.2630228569 1.3852070904 0.71487100155 0.80816628637 0.80816628637 0.90937090954 0.90937090954 0.90937090954 
1.0172219679 1.0172219679 1.0172219679 1.0172219679 1.1296873865 1.1296873865 1.1296873865 1.1296873865 1.1296873865 
1.24411054 1.24411054 1.24411054 1.24411054 1.24411054 1.24411054 1.3575464161 1.3575464161 1.3575464161 
1.3575464161 1.3575464161 1.3575464161 1.3575464161 1.4671972081 1.4671972081 1.4671972081 1.4671972081 1.4671972081 
1.4671972081 1.4671972081 1.4671972081 1.6743954455 1.6743954455 1.7840462375 1.6743954455 1.7840462375 1.8974821136 
1.6743954455 1.7840462375 1.8974821136 2.0119052671 1.6743954455 1.7840462375 1.8974821136 2.0119052671 2.1243706857 
1.6743954455 1.7840462375 1.8974821136 2.0119052671 2.1243706857 2.232221744 1.6743954455 1.7840462375 1.8974821136 
2.0119052671 2.1243706857 2.232221744 2.3334263672 1.6743954455 1.7840462375 1.8974821136 2.0119052671 2.1243706857 
2.232221744 2.3334263672 2.426721652 1.7563855631 1.8785697967 1.8563003522 2.0024758186 1.9913306621 1.9779583789 
2.1243706857 2.1243706857 2.1243706857 2.1243706857 2.2408671392 2.2510113037 2.2630782103 2.2776669786 2.295651703 
2.3494282469 2.3680303173 2.3899057108 2.4159740166 2.4475202889 2.486385773 2.448570738 2.4736848652 2.5028148801 
2.5369440334 2.5773755784 2.6258554882 2.6847397011 2.5377803997 2.5675431237 2.6015718084 2.6407557529 2.6862098746 
2.7393287203 2.8018393335 2.8758309421 2.718901062 2.8307207459 2.7598010554 2.95115522 2.8800620952 2.8058000847 
3.0774230472 3.00855263 2.9351694502 2.8576792927 3.0774230472 3.1415926536 3.0719036933 2.9967168029 2.91630358 
2.95115522 3.00855263 3.0719036933 3.1415926536 3.0653475414 2.9825888767 2.8307207459 2.8800620952 2.9351694502 
2.9967168029 3.0653475414 3.1415926536 3.0574329311 2.718901062 2.7598010554 2.8058000847 2.8576792927 2.91630358 
2.9825888767 3.0574329311 3.1415926536 2.718901062 2.7598010554 2.8307207459 2.8058000847 2.8800620952 2.95115522 
2.8576792927 2.9351694502 3.00855263 3.0774230472 2.91630358 2.9967168029 3.0719036933 3.1415926536 3.0774230472 
2.9825888767 3.0653475414 3.1415926536 3.0719036933 3.00855263 2.95115522 3.0574329311 3.1415926536 3.0653475414 