# vtk DataFile Version 5.1
vtk output
ASCII
DATASET POLYDATA
POINTS 100 float
-125.654 -88.8173 111.621 -125.656 -88.8276 111.617 -125.664 -88.8526 111.6 
-125.676 -88.89 111.568 -125.692 -88.936 111.518 -125.714 -88.9864 111.448 
-125.742 -89.037 111.353 -125.776 -89.0844 111.232 -125.818 -89.1264 111.082 
-125.867 -89.1623 110.903 -125.926 -89.1933 110.695 -125.995 -89.2222 110.46 
-126.075 -89.2528 110.2 -126.168 -89.2898 109.92 -126.274 -89.3379 109.624 
-126.395 -89.401 109.315 -126.53 -89.4817 108.998 -126.681 -89.5813 108.674 
-126.845 -89.699 108.347 -127.024 -89.8325 108.015 -127.215 -89.9782 107.679 
-127.418 -90.1321 107.337 -127.631 -90.2897 106.987 -127.852 -90.4478 106.626 
-128.079 -90.6039 106.253 -128.311 -90.7574 105.866 -128.547 -90.9097 105.465 
-128.785 -91.0636 105.05 -129.025 -91.2234 104.621 -129.267 -91.394 104.183 
-129.511 -91.5806 103.736 -129.757 -91.7878 103.284 -130.006 -92.019 102.829 
-130.258 -92.276 102.373 -130.514 -92.5594 101.916 -130.774 -92.8678 101.461 
-131.036 -93.1991 101.004 -131.299 -93.5506 100.545 -131.562 -93.9198 100.081 
-131.821 -94.3049 99.6106 -132.072 -94.7055 99.1308 -132.312 -95.1228 98.6402 
-132.536 -95.5594 98.1381 -132.739 -96.0192 97.6245 -132.916 -96.5067 97.101 
-133.065 -97.026 96.5697 -133.18 -97.5802 96.0339 -133.259 -98.1701 95.497 
-133.302 -98.7942 94.963 -133.309 -99.4476 94.4353 -133.279 -100.123 93.917 
-133.216 -100.809 93.4103 -133.122 -101.495 92.9167 -133.001 -102.167 92.4369 
-132.859 -102.814 91.9706 -132.699 -103.425 91.5174 -132.526 -103.994 91.0764 
-132.345 -104.517 90.6468 -132.159 -104.994 90.2281 -131.971 -105.432 89.8203 
-131.784 -105.837 89.4237 -131.599 -106.22 89.0391 -131.418 -106.593 88.6677 
-131.24 -106.966 88.3108 -131.067 -107.348 87.9693 -130.897 -107.745 87.644 
-130.73 -108.158 87.3347 -130.567 -108.584 87.0407 -130.408 -109.019 86.7605 
-130.253 -109.452 86.4916 -130.102 -109.874 86.2312 -129.957 -110.273 85.9763 
-129.818 -110.643 85.724 -129.688 -110.975 85.4715 -129.566 -111.268 85.2171 
-129.455 -111.524 84.9595 -129.355 -111.749 84.6989 -129.266 -111.953 84.4359 
-129.188 -112.147 84.1722 -129.12 -112.343 83.91 -129.063 -112.553 83.6517 
-129.013 -112.785 83.3994 -128.97 -113.043 83.1552 -128.932 -113.329 82.9203 
-128.898 -113.636 82.6953 -128.865 -113.956 82.4802 -128.833 -114.276 82.2744 
-128.799 -114.582 82.0768 -128.765 -114.86 81.8865 -128.729 -115.096 81.7027 
-128.691 -115.283 81.5254 -128.653 -115.415 81.3551 -128.615 -115.493 81.1935 
-128.578 -115.522 81.0427 -128.543 -115.512 80.9061 -128.512 -115.476 80.7871 
-128.486 -115.429 80.6894 -128.466 -115.383 80.6164 -128.453 -115.35 80.5708 
-128.448 -115.337 80.5544 
LINES 2 100
OFFSETS vtktypeint64
0 100 
CONNECTIVITY vtktypeint64
0 1 2 3 4 5 6 7 8 
9 10 11 12 13 14 15 16 17 
18 19 20 21 22 23 24 25 26 
27 28 29 30 31 32 33 34 35 
36 37 38 39 40 41 42 43 44 
45 46 47 48 49 50 51 52 53 
54 55 56 57 58 59 60 61 62 
63 64 65 66 67 68 69 70 71 
72 73 74 75 76 77 78 79 80 
81 82 83 84 85 86 87 88 89 
90 91 92 93 94 95 96 97 98 
99 
POINT_DATA 100
FIELD FieldData 3
_theta 1 100 double
0 0.031733259127 0.063466518254 0.095199777382 0.12693303651 0.15866629564 0.19039955476 0.22213281389 0.25386607302 
0.28559933214 0.31733259127 0.3490658504 0.38079910953 0.41253236865 0.44426562778 0.47599888691 0.50773214603 0.53946540516 
0.57119866429 0.60293192342 0.63466518254 0.66639844167 0.6981317008 0.72986495992 0.76159821905 0.79333147818 0.82506473731 
0.85679799643 0.88853125556 0.92026451469 0.95199777382 0.98373103294 1.0154642921 1.0471975512 1.0789308103 1.1106640695 
1.1423973286 1.1741305877 1.2058638468 1.237597106 1.2693303651 1.3010636242 1.3327968833 1.3645301425 1.3962634016 
1.4279966607 1.4597299198 1.491463179 1.5231964381 1.5549296972 1.5866629564 1.6183962155 1.6501294746 1.6818627337 
1.7135959929 1.745329252 1.7770625111 1.8087957702 1.8405290294 1.8722622885 1.9039955476 1.9357288068 1.9674620659 
1.999195325 2.0309285841 2.0626618433 2.0943951024 2.1261283615 2.1578616206 2.1895948798 2.2213281389 2.253061398 
2.2847946572 2.3165279163 2.3482611754 2.3799944345 2.4117276937 2.4434609528 2.4751942119 2.506927471 2.5386607302 
2.5703939893 2.6021272484 2.6338605076 2.6655937667 2.6973270258 2.7290602849 2.7607935441 2.7925268032 2.8242600623 
2.8559933214 2.8877265806 2.9194598397 2.9511930988 2.982926358 3.0146596171 3.0463928762 3.0781261353 3.1098593945 
3.1415926536 
_radius 1 100 double
1.8583103881e-13 0.40468813099 0.80131679319 1.1824126894 1.5420617122 1.8764327367 2.184008466 2.465481902 2.7233337 
2.9611754521 3.1830059275 3.3925459251 3.5927700876 3.7856643681 3.9721627212 4.1521923584 4.3247726853 4.4881358883 
4.6398516911 4.7769656251 4.8962227757 4.9944913767 5.069406817 5.120059998 5.1474593494 5.1545826939 5.1459904276 
5.1270951003 5.1032588157 5.0789241788 5.0569693611 5.0384096495 5.0224679719 5.0069455443 4.988772949 4.9646192221 
4.9314702075 4.8871335881 4.8306546514 4.7626116844 4.6852146308 4.6021059932 4.5178230811 4.4370392602 4.3638537844 
4.3013969919 4.2518699096 4.2169804363 4.1986122008 4.1994358749 4.2230884006 4.2735879208 4.3538653095 4.463753584 
4.5985388321 4.7493756197 4.9054421501 5.0563703991 5.1939334871 5.3128775641 5.4110921983 5.4892976072 5.550394679 
5.5986192217 5.6386401588 5.6747281594 5.7100977351 5.7464986406 5.7840959971 5.8216121875 5.8566147258 5.8857996361 
5.9052085085 5.9104616046 5.8971307832 5.861265739 5.7999463688 5.7116891257 5.5965895299 5.4561730423 5.2930071028 
5.1101822508 4.9107929885 4.6975344161 4.4724816253 4.237052933 3.9921026744 3.7380657644 3.4750884996 3.2031171934 
2.9219586483 2.6313504482 2.3310692332 2.0210705237 1.7016233984 1.3733996861 1.0374971974 0.69540110535 0.34890291306 
2.4980402928e-13 
_area 1 100 double
0 0.4580724146 1.8026751204 3.9495538182 6.7727658517 10.123575742 13.851482852 17.822570394 21.930473198 
26.098044 30.273086928 34.424093162 38.538101486 42.618180047 46.678091937 50.73447053 54.798442996 58.867684335 
62.916752748 66.880209431 70.628132351 73.960709468 76.658135959 78.561289921 79.62489643 79.926056161 79.640443837 
79.00006352 78.243831632 77.571406555 77.110876023 76.909074804 76.943146438 77.137576001 77.372893489 77.496002163 
77.349233049 76.809104394 75.81579547 74.389605272 72.637946575 70.743598993 68.897824663 67.210404755 65.7172627 
64.422120001 63.320107989 62.408749429 61.700939432 61.248996559 61.176408118 61.684498332 62.990767599 65.235861939 
68.422530603 72.37466446 76.759261155 81.183119085 85.290545303 88.821423236 91.640563292 93.755542841 95.343570796 
96.787096358 98.494761917 100.28400273 102.16792106 104.11075486 106.0250127 108.02959991 109.85554677 111.38169639 
112.41760186 112.75683383 112.21707394 110.6653001 108.04065869 104.36784828 99.753082511 94.363096328 88.395257482 
82.047827075 75.497053657 68.884253147 62.312853026 55.853388171 49.553083043 43.4457488 37.558935075 31.918758 
26.554903791 21.506667881 16.827811335 12.586795184 8.8606288479 5.7239451368 3.2377938436 1.4430896502 0.36117879574 
0 
