# vtk DataFile Version 5.1
vtk output
ASCII
DATASET POLYDATA
POINTS 100 float
-113.975 -96.5405 103.592 -113.98 -96.5553 103.594 -113.996 -96.5951 103.595 
-114.025 -96.6571 103.592 -114.068 -96.7373 103.58 -114.13 -96.8305 103.555 
-114.212 -96.9312 103.509 -114.318 -97.0338 103.437 -114.448 -97.1336 103.335 
-114.603 -97.2273 103.201 -114.781 -97.313 103.033 -114.982 -97.3905 102.834 
-115.2 -97.4615 102.607 -115.433 -97.5295 102.357 -115.675 -97.5987 102.091 
-115.924 -97.6743 101.814 -116.177 -97.7612 101.532 -116.43 -97.8639 101.251 
-116.685 -97.9855 100.971 -116.94 -98.1277 100.695 -117.198 -98.2901 100.422 
-117.461 -98.4703 100.146 -117.731 -98.6645 99.8654 -118.011 -98.8673 99.5733 
-118.301 -99.0727 99.2646 -118.604 -99.275 98.9347 -118.917 -99.4691 98.5805 
-119.24 -99.6516 98.2004 -119.57 -99.8215 97.7953 -119.905 -99.9802 97.3681 
-120.24 -100.132 96.9235 -120.574 -100.284 96.4678 -120.903 -100.445 96.0082 
-121.226 -100.627 95.5516 -121.543 -100.84 95.1047 -121.854 -101.096 94.6727 
-122.16 -101.406 94.259 -122.462 -101.777 93.8652 -122.762 -102.215 93.4906 
-123.06 -102.722 93.1328 -123.356 -103.296 92.788 -123.646 -103.934 92.4516 
-123.927 -104.628 92.1187 -124.194 -105.369 91.7847 -124.442 -106.146 91.4463 
-124.662 -106.947 91.1013 -124.849 -107.763 90.7495 -124.998 -108.584 90.3918 
-125.104 -109.402 90.0309 -125.165 -110.211 89.6705 -125.184 -111.007 89.3148 
-125.162 -111.787 88.9679 -125.105 -112.552 88.6334 -125.021 -113.299 88.3138 
-124.919 -114.031 88.0103 -124.806 -114.745 87.7225 -124.692 -115.441 87.4486 
-124.583 -116.118 87.1853 -124.483 -116.773 86.9287 -124.396 -117.404 86.6743 
-124.321 -118.007 86.4179 -124.256 -118.58 86.1558 -124.198 -119.122 85.8855 
-124.142 -119.634 85.6057 -124.082 -120.118 85.3167 -124.014 -120.579 85.0205 
-123.935 -121.021 84.72 -123.843 -121.454 84.4192 -123.738 -121.885 84.1227 
-123.623 -122.322 83.8348 -123.501 -122.772 83.5594 -123.378 -123.239 83.2996 
-123.259 -123.728 83.057 -123.15 -124.236 82.8319 -123.054 -124.761 82.6234 
-122.975 -125.295 82.4291 -122.914 -125.831 82.2458 -122.871 -126.356 82.0696 
-122.844 -126.861 81.8966 -122.829 -127.336 81.7233 -122.823 -127.772 81.5467 
-122.822 -128.164 81.365 -122.823 -128.509 81.1775 -122.821 -128.809 80.9847 
-122.817 -129.069 80.7885 -122.809 -129.295 80.5916 -122.799 -129.497 80.3974 
-122.789 -129.684 80.2097 -122.781 -129.865 80.0322 -122.778 -130.048 79.8683 
-122.783 -130.238 79.7207 -122.795 -130.436 79.591 -122.816 -130.641 79.4803 
-122.843 -130.846 79.3883 -122.876 -131.044 79.3143 -122.909 -131.225 79.2569 
-122.94 -131.38 79.2143 -122.965 -131.498 79.1849 -122.982 -131.571 79.167 
-122.987 -131.595 79.1599 
LINES 2 100
OFFSETS vtktypeint64
0 100 
CONNECTIVITY vtktypeint64
0 1 2 3 4 5 6 7 8 
9 10 11 12 13 14 15 16 17 
18 19 20 21 22 23 24 25 26 
27 28 29 30 31 32 33 34 35 
36 37 38 39 40 41 42 43 44 
45 46 47 48 49 50 51 52 53 
54 55 56 57 58 59 60 61 62 
63 64 65 66 67 68 69 70 71 
72 73 74 75 76 77 78 79 80 
81 82 83 84 85 86 87 88 89 
90 91 92 93 94 95 96 97 98 
99 
POINT_DATA 100
FIELD FieldData 3
_theta 1 100 double
0 0.031733259127 0.063466518254 0.095199777382 0.12693303651 0.15866629564 0.19039955476 0.22213281389 0.25386607302 
0.28559933214 0.31733259127 0.3490658504 0.38079910953 0.41253236865 0.44426562778 0.47599888691 0.50773214603 0.53946540516 
0.57119866429 0.60293192342 0.63466518254 0.66639844167 0.6981317008 0.72986495992 0.76159821905 0.79333147818 0.82506473731 
0.85679799643 0.88853125556 0.92026451469 0.95199777382 0.98373103294 1.0154642921 1.0471975512 1.0789308103 1.1106640695 
1.1423973286 1.1741305877 1.2058638468 1.237597106 1.2693303651 1.3010636242 1.3327968833 1.3645301425 1.3962634016 
1.4279966607 1.4597299198 1.491463179 1.5231964381 1.5549296972 1.5866629564 1.6183962155 1.6501294746 1.6818627337 
1.7135959929 1.745329252 1.7770625111 1.8087957702 1.8405290294 1.8722622885 1.9039955476 1.9357288068 1.9674620659 
1.999195325 2.0309285841 2.0626618433 2.0943951024 2.1261283615 2.1578616206 2.1895948798 2.2213281389 2.253061398 
2.2847946572 2.3165279163 2.3482611754 2.3799944345 2.4117276937 2.4434609528 2.4751942119 2.506927471 2.5386607302 
2.5703939893 2.6021272484 2.6338605076 2.6655937667 2.6973270258 2.7290602849 2.7607935441 2.7925268032 2.8242600623 
2.8559933214 2.8877265806 2.9194598397 2.9511930988 2.982926358 3.0146596171 3.0463928762 3.0781261353 3.1098593945 
3.1415926536 
_radius 1 100 double
2.8563464472e-13 0.36443469338 0.72773987804 1.0882222016 1.4436779817 1.7914174029 2.1284573813 2.4518161559 2.7588324516 
3.047416945 3.3161399227 3.5641131078 3.7907286403 3.9954044619 4.1774894655 4.3363973412 4.4719131193 4.5845205738 
4.675584029 4.7472908313 4.8023785996 4.8437698023 4.8742641615 4.8963850419 4.9123728534 4.9242269619 4.9336689894 
4.941950176 4.9495314474 4.955776488 4.9588502895 4.955961656 4.9439434039 4.9200066869 4.8824211792 4.830900756 
4.7665993136 4.6917848187 4.6093827607 4.5226018769 4.4347695722 4.3493675511 4.27015127 4.2012113564 4.1468798402 
4.1114436794 4.0986548467 4.1110464617 4.1492169836 4.2115479462 4.2948188662 4.3954964062 4.5107383353 4.6382665042 
4.77520136 4.9169615444 5.0573612828 5.1898264228 5.3086758029 5.4097336562 5.4903075793 5.5488967942 5.584940501 
5.5987664321 5.5917602244 5.5666440201 5.5276405254 5.4802588618 5.4305341088 5.3838080322 5.3434474413 5.3100172019 
5.2812243025 5.2525962372 5.2186051571 5.1738697158 5.1141093987 5.0366517192 4.9404615196 4.8258105054 4.6937799513 
4.5457796154 4.3832020006 4.2072552724 4.0189552417 3.8192110973 3.6089135318 3.3889410347 3.1600505921 2.922694665 
2.6768613836 2.4220318751 2.1572945362 1.8815955947 1.5940730338 1.2944104501 0.98313814087 0.66180543674 0.33297053264 
3.8052200577e-13 
_area 1 100 double
0 0.35121649394 1.4055339136 3.1632885606 5.6198806599 8.7570817058 12.525512766 16.823314883 21.49396171 
26.35103017 31.213437898 35.934934486 40.42011148 44.626401044 48.556987506 52.248878802 55.75085694 59.085259745 
62.216565667 65.059218601 67.51217224 69.489900323 70.942735088 71.870169757 72.328142083 72.427745972 72.321601982 
72.175998526 72.130744784 72.255885174 72.526579044 72.835611674 73.032602371 72.969913312 72.536781243 71.67467592 
70.389153452 68.740530781 66.822218391 64.744101654 62.626742221 60.604465283 58.827679482 57.452076369 56.610373378 
56.375327136 56.737825112 57.632695671 59.000404395 60.816452732 63.045774787 65.593076203 68.367548515 71.396702804 
74.806749458 78.597760167 82.767459578 86.858688165 90.643641843 93.876829516 96.364391748 97.976141333 98.702957351 
98.576643832 97.663319565 96.075922721 93.992612867 91.676168686 89.471304342 87.721013359 86.623799737 86.159088792 
86.118139939 86.196808453 86.085770123 85.522104105 84.316717696 82.36547774 79.645039736 76.197400846 72.110230896 
67.4992739 62.495138628 57.233271108 51.844971137 46.448487048 41.141049281 35.993816936 31.052009741 26.341948376 
21.883752649 17.704190183 13.843459042 10.35383172 7.2930621427 4.716763697 2.6719054666 1.1924852166 0.29874139715 
0 
