# vtk DataFile Version 5.1
vtk output
ASCII
DATASET POLYDATA
POINTS 100 float
-115.525 -86.1572 90.0548 -115.527 -86.1607 90.0544 -115.535 -86.1707 90.0481 
-115.549 -86.1894 90.0347 -115.569 -86.22 90.0127 -115.599 -86.266 89.9799 
-115.639 -86.3308 89.9341 -115.691 -86.4168 89.8732 -115.757 -86.525 89.7951 
-115.836 -86.6544 89.6982 -115.929 -86.802 89.5816 -116.035 -86.963 89.4448 
-116.155 -87.1314 89.2879 -116.286 -87.3004 89.1116 -116.428 -87.4636 88.9171 
-116.579 -87.6155 88.7058 -116.74 -87.7527 88.4796 -116.91 -87.8739 88.2402 
-117.09 -87.9808 87.9895 -117.28 -88.0777 87.7292 -117.481 -88.1711 87.461 
-117.694 -88.269 87.1865 -117.922 -88.3803 86.9071 -118.163 -88.5134 86.6243 
-118.419 -88.6755 86.3395 -118.688 -88.8716 86.0539 -118.97 -89.1042 85.769 
-119.263 -89.3728 85.4857 -119.564 -89.6743 85.2051 -119.871 -90.0035 84.9279 
-120.182 -90.3539 84.6544 -120.494 -90.7185 84.3846 -120.806 -91.0913 84.1178 
-121.118 -91.4679 83.8533 -121.427 -91.8465 83.5898 -121.736 -92.2285 83.3259 
-122.044 -92.6181 83.06 -122.352 -93.0226 82.7911 -122.66 -93.4515 82.5183 
-122.969 -93.9154 82.2413 -123.276 -94.4252 81.9606 -123.581 -94.9906 81.6774 
-123.879 -95.6192 81.3938 -124.167 -96.3153 81.1124 -124.44 -97.0798 80.8363 
-124.692 -97.9096 80.5689 -124.918 -98.7977 80.3133 -125.113 -99.7342 80.0724 
-125.274 -100.707 79.8483 -125.398 -101.701 79.6422 -125.485 -102.702 79.4544 
-125.535 -103.698 79.284 -125.552 -104.675 79.1293 -125.538 -105.624 78.9877 
-125.5 -106.538 78.8561 -125.442 -107.41 78.7312 -125.37 -108.24 78.6097 
-125.29 -109.027 78.4887 -125.206 -109.772 78.366 -125.12 -110.477 78.2401 
-125.035 -111.145 78.1103 -124.952 -111.779 77.9769 -124.871 -112.381 77.8405 
-124.791 -112.953 77.7025 -124.71 -113.497 77.5643 -124.629 -114.014 77.4272 
-124.545 -114.506 77.2925 -124.46 -114.974 77.1608 -124.373 -115.42 77.0323 
-124.287 -115.846 76.9068 -124.204 -116.255 76.7834 -124.127 -116.651 76.6609 
-124.058 -117.036 76.5382 -123.999 -117.414 76.4141 -123.953 -117.787 76.2876 
-123.921 -118.157 76.1584 -123.903 -118.525 76.0265 -123.897 -118.89 75.8925 
-123.904 -119.25 75.7575 -123.919 -119.601 75.623 -123.94 -119.94 75.4907 
-123.964 -120.262 75.3624 -123.99 -120.563 75.2396 -124.014 -120.838 75.1237 
-124.036 -121.083 75.0154 -124.055 -121.297 74.9152 -124.072 -121.478 74.8229 
-124.087 -121.625 74.7381 -124.101 -121.741 74.6602 -124.116 -121.828 74.5884 
-124.132 -121.888 74.522 -124.152 -121.927 74.4606 -124.173 -121.949 74.404 
-124.197 -121.957 74.3523 -124.221 -121.957 74.3062 -124.245 -121.951 74.2662 
-124.266 -121.943 74.2335 -124.282 -121.936 74.2088 -124.293 -121.931 74.1929 
-124.296 -121.928 74.1863 
LINES 2 100
OFFSETS vtktypeint64
0 100 
CONNECTIVITY vtktypeint64
0 1 2 3 4 5 6 7 8 
9 10 11 12 13 14 15 16 17 
18 19 20 21 22 23 24 25 26 
27 28 29 30 31 32 33 34 35 
36 37 38 39 40 41 42 43 44 
45 46 47 48 49 50 51 52 53 
54 55 56 57 58 59 60 61 62 
63 64 65 66 67 68 69 70 71 
72 73 74 75 76 77 78 79 80 
81 82 83 84 85 86 87 88 89 
90 91 92 93 94 95 96 97 98 
99 
POINT_DATA 100
FIELD FieldData 3
_theta 1 100 double
0 0.031733259127 0.063466518254 0.095199777382 0.12693303651 0.15866629564 0.19039955476 0.22213281389 0.25386607302 
0.28559933214 0.31733259127 0.3490658504 0.38079910953 0.41253236865 0.44426562778 0.47599888691 0.50773214603 0.53946540516 
0.57119866429 0.60293192342 0.63466518254 0.66639844167 0.6981317008 0.72986495992 0.76159821905 0.79333147818 0.82506473731 
0.85679799643 0.88853125556 0.92026451469 0.95199777382 0.98373103294 1.0154642921 1.0471975512 1.0789308103 1.1106640695 
1.1423973286 1.1741305877 1.2058638468 1.237597106 1.2693303651 1.3010636242 1.3327968833 1.3645301425 1.3962634016 
1.4279966607 1.4597299198 1.491463179 1.5231964381 1.5549296972 1.5866629564 1.6183962155 1.6501294746 1.6818627337 
1.7135959929 1.745329252 1.7770625111 1.8087957702 1.8405290294 1.8722622885 1.9039955476 1.9357288068 1.9674620659 
1.999195325 2.0309285841 2.0626618433 2.0943951024 2.1261283615 2.1578616206 2.1895948798 2.2213281389 2.253061398 
2.2847946572 2.3165279163 2.3482611754 2.3799944345 2.4117276937 2.4434609528 2.4751942119 2.506927471 2.5386607302 
2.5703939893 2.6021272484 2.6338605076 2.6655937667 2.6973270258 2.7290602849 2.7607935441 2.7925268032 2.8242600623 
2.8559933214 2.8877265806 2.9194598397 2.9511930988 2.982926358 3.0146596171 3.0463928762 3.0781261353 3.1098593945 
3.1415926536 
_radius 1 100 double
1.1457157354e-13 0.34847584134 0.69265787658 1.0286162341 1.3532261248 1.6643981345 1.9611519863 2.2435442874 2.512483879 
2.769474599 3.0163170499 3.2547882488 3.4863126397 3.7116465054 3.9306170892 4.1419752458 4.3434213577 4.5318406626 
4.7037394662 4.8558197608 4.9855827987 5.0918306641 5.1749524645 5.2369369605 5.2811269296 5.3117916542 5.3336142237 
5.3511650927 5.3683953263 5.3881786556 5.4119665339 5.4396421605 5.4696202908 5.4991646918 5.5248468145 5.5430656641 
5.5505666457 5.5449245593 5.5249847416 5.4912505792 5.4461506369 5.3940778723 5.3411317113 5.2945798037 5.2621069919 
5.2508923827 5.2665016863 5.3117040554 5.3857494184 5.4847491845 5.6030023519 5.7344963204 5.8741473144 6.0187403704 
6.1674908784 6.3219483555 6.4848283195 6.6575351777 6.8373589836 7.0170158338 7.187298179 7.3399850114 7.4691756172 
7.5714758863 7.6457057274 7.6923898136 7.7131153516 7.7098412264 7.6842828751 7.6375022808 7.5697807446 7.48076625 
7.3698108521 7.2363761436 7.0803894259 6.9024678096 6.7039762015 6.4869315145 6.2537967051 6.0072204407 5.7497757536 
5.4837408322 5.2109511003 4.9327347806 4.6499263907 4.3629398648 4.0718798883 3.7766735962 3.4772072708 3.1734506903 
2.8655494856 2.5538688728 2.2389815905 1.9216054449 1.6025071552 1.2823962042 0.96183382116 0.64117784983 0.32057495463 
2.565836622e-13 
_area 1 100 double
0 0.34491327063 1.3566975142 2.9706711544 5.0919007034 7.6113747802 10.424022995 13.44589077 16.627115579 
19.956216847 23.452602248 27.149648197 31.07442635 35.227005887 39.560415417 43.969612951 48.301343956 52.385387989 
56.074245396 59.270469082 61.92637673 64.036320114 65.644072673 66.82051301 67.601930097 67.991580516 68.049492817 
67.964795417 68.039506437 68.566476584 69.672459612 71.296314718 73.287305388 75.479378535 77.713128243 79.83490187 
81.702264581 83.204744338 84.280986405 84.910111591 85.081453653 84.785267526 84.057031914 83.034824357 81.944842142 
81.114135062 81.0127628 82.042123352 84.343436114 87.75214417 91.902115179 96.417421113 101.04368038 105.63287963 
110.00834857 114.05816808 117.90853728 121.85063281 126.17544514 130.97552175 135.94652628 140.68894669 144.84660349 
148.25406022 150.89073082 152.77986989 153.96233028 154.46996583 154.31857715 153.50508819 151.89064115 149.20756546 
145.23634137 139.91153219 133.31835573 125.66017231 117.21832725 108.30878434 99.241211821 90.287116477 81.661274444 
73.514806175 65.932447248 58.928370907 52.447983478 46.393623549 40.671529165 35.226553337 30.046766314 25.151441036 
20.577762316 16.371240433 12.579224749 9.2455895233 6.4056653989 4.0823020862 2.2846717832 1.0106093654 0.25181001147 
0 
