# vtk DataFile Version 5.1
vtk output
ASCII
DATASET POLYDATA
POINTS 100 float
-115.558 -102.901 106.368 -115.569 -102.907 106.372 -115.607 -102.926 106.383 
-115.673 -102.955 106.396 -115.769 -102.996 106.41 -115.898 -103.048 106.418 
-116.062 -103.111 106.415 -116.261 -103.187 106.396 -116.497 -103.274 106.356 
-116.769 -103.376 106.293 -117.076 -103.492 106.202 -117.415 -103.623 106.085 
-117.781 -103.77 105.94 -118.17 -103.932 105.768 -118.577 -104.106 105.573 
-118.996 -104.291 105.357 -119.422 -104.48 105.12 -119.851 -104.671 104.866 
-120.278 -104.855 104.594 -120.702 -105.029 104.307 -121.121 -105.187 104.002 
-121.534 -105.326 103.679 -121.941 -105.444 103.337 -122.344 -105.544 102.976 
-122.743 -105.629 102.595 -123.14 -105.706 102.194 -123.534 -105.785 101.774 
-123.928 -105.877 101.338 -124.32 -105.993 100.889 -124.71 -106.144 100.429 
-125.097 -106.341 99.9631 -125.481 -106.591 99.4932 -125.86 -106.898 99.0224 
-126.232 -107.264 98.5523 -126.595 -107.685 98.0837 -126.949 -108.156 97.6162 
-127.29 -108.668 97.1486 -127.618 -109.213 96.679 -127.929 -109.781 96.2054 
-128.22 -110.363 95.7262 -128.487 -110.953 95.2403 -128.729 -111.546 94.7479 
-128.939 -112.141 94.2503 -129.114 -112.74 93.7505 -129.251 -113.346 93.2523 
-129.346 -113.967 92.7606 -129.398 -114.607 92.2807 -129.404 -115.272 91.8178 
-129.367 -115.964 91.3764 -129.289 -116.685 90.9596 -129.173 -117.43 90.569 
-129.024 -118.193 90.2045 -128.849 -118.965 89.8639 -128.655 -119.731 89.5435 
-128.448 -120.478 89.2383 -128.234 -121.192 88.9426 -128.019 -121.86 88.6505 
-127.807 -122.472 88.3568 -127.599 -123.021 88.0573 -127.396 -123.504 87.7494 
-127.197 -123.924 87.4321 -127 -124.288 87.1063 -126.803 -124.604 86.7745 
-126.601 -124.887 86.4402 -126.393 -125.147 86.108 -126.177 -125.4 85.7823 
-125.953 -125.656 85.4675 -125.72 -125.925 85.167 -125.482 -126.211 84.8828 
-125.241 -126.517 84.6157 -125.002 -126.842 84.3651 -124.768 -127.18 84.1291 
-124.545 -127.528 83.9049 -124.335 -127.876 83.689 -124.141 -128.218 83.4779 
-123.964 -128.547 83.2684 -123.805 -128.859 83.0578 -123.661 -129.151 82.8443 
-123.531 -129.421 82.6271 -123.412 -129.672 82.406 -123.3 -129.904 82.182 
-123.194 -130.122 81.9562 -123.091 -130.329 81.7303 -122.99 -130.527 81.5059 
-122.893 -130.718 81.2845 -122.8 -130.902 81.0671 -122.713 -131.079 80.8548 
-122.636 -131.246 80.6481 -122.572 -131.4 80.4476 -122.522 -131.539 80.2538 
-122.488 -131.659 80.0676 -122.47 -131.76 79.8904 -122.468 -131.841 79.7238 
-122.479 -131.902 79.5703 -122.499 -131.945 79.4325 -122.525 -131.973 79.3136 
-122.55 -131.99 79.2164 -122.572 -131.999 79.1439 -122.587 -132.002 79.0982 
-122.592 -132.003 79.0808 
LINES 2 100
OFFSETS vtktypeint64
0 100 
CONNECTIVITY vtktypeint64
0 1 2 3 4 5 6 7 8 
9 10 11 12 13 14 15 16 17 
18 19 20 21 22 23 24 25 26 
27 28 29 30 31 32 33 34 35 
36 37 38 39 40 41 42 43 44 
45 46 47 48 49 50 51 52 53 
54 55 56 57 58 59 60 61 62 
63 64 65 66 67 68 69 70 71 
72 73 74 75 76 77 78 79 80 
81 82 83 84 85 86 87 88 89 
90 91 92 93 94 95 96 97 98 
99 
POINT_DATA 100
FIELD FieldData 3
_theta 1 100 double
0 0.031733259127 0.063466518254 0.095199777382 0.12693303651 0.15866629564 0.19039955476 0.22213281389 0.25386607302 
0.28559933214 0.31733259127 0.3490658504 0.38079910953 0.41253236865 0.44426562778 0.47599888691 0.50773214603 0.53946540516 
0.57119866429 0.60293192342 0.63466518254 0.66639844167 0.6981317008 0.72986495992 0.76159821905 0.79333147818 0.82506473731 
0.85679799643 0.88853125556 0.92026451469 0.95199777382 0.98373103294 1.0154642921 1.0471975512 1.0789308103 1.1106640695 
1.1423973286 1.1741305877 1.2058638468 1.237597106 1.2693303651 1.3010636242 1.3327968833 1.3645301425 1.3962634016 
1.4279966607 1.4597299198 1.491463179 1.5231964381 1.5549296972 1.5866629564 1.6183962155 1.6501294746 1.6818627337 
1.7135959929 1.745329252 1.7770625111 1.8087957702 1.8405290294 1.8722622885 1.9039955476 1.9357288068 1.9674620659 
1.999195325 2.0309285841 2.0626618433 2.0943951024 2.1261283615 2.1578616206 2.1895948798 2.2213281389 2.253061398 
2.2847946572 2.3165279163 2.3482611754 2.3799944345 2.4117276937 2.4434609528 2.4751942119 2.506927471 2.5386607302 
2.5703939893 2.6021272484 2.6338605076 2.6655937667 2.6973270258 2.7290602849 2.7607935441 2.7925268032 2.8242600623 
2.8559933214 2.8877265806 2.9194598397 2.9511930988 2.982926358 3.0146596171 3.0463928762 3.0781261353 3.1098593945 
3.1415926536 
_radius 1 100 double
2.1504925414e-13 0.5514533142 1.0904558615 1.6055204303 2.0865935174 2.525656801 2.9172164484 3.2586435618 3.5503169811 
3.7955085831 3.9999610589 4.1711516308 4.3173045619 4.4462854215 4.5645542322 4.6763608081 4.7833356995 4.8845645613 
4.9771318738 5.0570038329 5.1200389565 5.1629071678 5.183757118 5.1825571917 5.1611109233 5.1227967281 5.0721054241 
5.014055153 4.9535642806 4.8948695178 4.8410862558 4.7939993302 4.7541231491 4.7209905523 4.6935661518 4.6706687163 
4.6513144563 4.6349263631 4.6213926336 4.6110051529 4.6043491766 4.6022343668 4.6057555328 4.6165377074 4.6371361685 
4.6714307304 4.7247117133 4.8031009867 4.912197635 5.0554502768 5.2330567425 5.4415429478 5.6736739238 5.9189601698 
6.1652294628 6.4006993387 6.6155575701 6.8027446242 6.9581554186 7.080502958 7.1709709624 7.2327095602 7.2702066095 
7.2885739574 7.2928069506 7.2870963675 7.2742843584 7.2555489688 7.2303684575 7.1967608881 7.151733607 7.0918348901 
7.0136933202 6.9144601377 6.7921192955 6.6456714173 6.4752087897 6.2818848731 6.0677753366 5.835646844 5.588677352 
5.3301786561 5.0633508277 4.79106852 4.5156873017 4.2388729711 3.9614831649 3.6835441135 3.4043510302 3.1226834 
2.8370891387 2.546176573 2.2488627824 1.9445454867 1.633180695 1.3152617673 0.99171491036 0.66374934767 0.33271360247 
2.4818190804e-13 
_area 1 100 double
0 0.51398367263 2.0228010689 4.438556826 7.6455647429 11.525437781 15.967200219 20.863524003 26.101995703 
31.558452474 37.096996553 42.579666926 47.884821761 52.928001125 57.674726553 62.130336496 66.297160388 70.130304125 
73.539093483 76.418684388 78.675996429 80.240385532 81.065932207 81.140968548 80.508119023 79.274831722 77.600483504 
75.670240599 73.669656896 71.763133542 70.078687802 68.704958607 67.693055042 67.041158747 66.708158015 66.68103291 
67.001002795 67.728542233 68.875451564 70.35124319 71.978796314 73.56164591 74.937129372 75.99797541 76.709210598 
77.143998209 77.545859941 78.392198312 80.301438942 83.67495538 88.55662767 94.837867329 102.36523758 110.89266675 
120.02343354 129.22439573 137.9321662 145.66805982 152.10514181 157.08937152 160.64962092 163.03277495 164.36442394 
164.89059836 164.61300338 163.59829295 161.94792256 159.75965106 157.13477405 154.18227371 151.01417058 147.69825039 
144.18577054 140.31138254 135.86227525 130.66027118 124.61441098 117.72668902 110.09218804 101.8907047 93.364439495 
84.776620553 76.361332299 68.288212036 60.657900832 53.519670346 46.888416491 40.748480759 35.0518988 29.731195151 
24.732005894 20.041199144 15.690649757 11.743134535 8.2733853305 5.351510574 3.0326752435 1.3544391047 0.3395497079 
0 
