# vtk DataFile Version 5.1
vtk output
ASCII
DATASET POLYDATA
POINTS 100 float
-125.823 -140.738 79.8908 -125.828 -140.737 79.895 -125.843 -140.737 79.9125 
-125.866 -140.736 79.9441 -125.896 -140.732 79.9907 -125.929 -140.721 80.054 
-125.962 -140.701 80.1353 -125.994 -140.668 80.2357 -126.022 -140.619 80.3561 
-126.045 -140.553 80.4965 -126.063 -140.468 80.6565 -126.078 -140.363 80.8346 
-126.091 -140.239 81.0289 -126.107 -140.096 81.2367 -126.127 -139.935 81.455 
-126.157 -139.756 81.6806 -126.198 -139.561 81.9105 -126.253 -139.35 82.142 
-126.325 -139.123 82.3731 -126.413 -138.88 82.6023 -126.517 -138.62 82.8293 
-126.635 -138.342 83.0542 -126.767 -138.047 83.2782 -126.909 -137.735 83.5028 
-127.058 -137.406 83.73 -127.212 -137.063 83.9618 -127.369 -136.705 84.2001 
-127.528 -136.337 84.4463 -127.687 -135.959 84.7016 -127.846 -135.574 84.9663 
-128.006 -135.184 85.2403 -128.165 -134.788 85.5229 -128.326 -134.387 85.8132 
-128.488 -133.979 86.11 -128.65 -133.564 86.4125 -128.812 -133.136 86.7199 
-128.974 -132.696 87.0322 -129.134 -132.238 87.3498 -129.291 -131.762 87.674 
-129.442 -131.267 88.0063 -129.587 -130.752 88.349 -129.725 -130.22 88.7041 
-129.855 -129.671 89.0739 -129.976 -129.111 89.4598 -130.09 -128.543 89.8629 
-130.196 -127.971 90.283 -130.296 -127.398 90.7193 -130.39 -126.827 91.1694 
-130.477 -126.258 91.6304 -130.558 -125.691 92.0985 -130.631 -125.124 92.5696 
-130.695 -124.554 93.0394 -130.747 -123.978 93.5043 -130.783 -123.392 93.9612 
-130.8 -122.794 94.4081 -130.795 -122.183 94.8446 -130.765 -121.559 95.2712 
-130.708 -120.925 95.6901 -130.622 -120.286 96.1043 -130.507 -119.648 96.5175 
-130.364 -119.021 96.934 -130.195 -118.413 97.3576 -130.003 -117.832 97.7917 
-129.792 -117.286 98.2387 -129.566 -116.78 98.6997 -129.329 -116.317 99.1743 
-129.084 -115.899 99.6608 -128.835 -115.523 100.156 -128.584 -115.184 100.656 
-128.333 -114.876 101.156 -128.082 -114.593 101.652 -127.832 -114.329 102.138 
-127.583 -114.077 102.611 -127.334 -113.835 103.067 -127.086 -113.6 103.506 
-126.838 -113.376 103.927 -126.592 -113.164 104.33 -126.349 -112.969 104.717 
-126.111 -112.799 105.089 -125.881 -112.657 105.45 -125.66 -112.55 105.801 
-125.452 -112.478 106.143 -125.258 -112.442 106.477 -125.081 -112.437 106.803 
-124.921 -112.458 107.12 -124.779 -112.496 107.426 -124.654 -112.54 107.716 
-124.546 -112.578 107.99 -124.453 -112.602 108.242 -124.373 -112.603 108.471 
-124.305 -112.576 108.674 -124.246 -112.519 108.851 -124.196 -112.434 109 
-124.153 -112.329 109.124 -124.116 -112.211 109.222 -124.086 -112.093 109.299 
-124.062 -111.985 109.355 -124.045 -111.899 109.394 -124.034 -111.844 109.418 
-124.031 -111.825 109.427 
LINES 2 100
OFFSETS vtktypeint64
0 100 
CONNECTIVITY vtktypeint64
0 1 2 3 4 5 6 7 8 
9 10 11 12 13 14 15 16 17 
18 19 20 21 22 23 24 25 26 
27 28 29 30 31 32 33 34 35 
36 37 38 39 40 41 42 43 44 
45 46 47 48 49 50 51 52 53 
54 55 56 57 58 59 60 61 62 
63 64 65 66 67 68 69 70 71 
72 73 74 75 76 77 78 79 80 
81 82 83 84 85 86 87 88 89 
90 91 92 93 94 95 96 97 98 
99 
POINT_DATA 100
FIELD FieldData 3
_theta 1 100 double
0 0.031733259127 0.063466518254 0.095199777382 0.12693303651 0.15866629564 0.19039955476 0.22213281389 0.25386607302 
0.28559933214 0.31733259127 0.3490658504 0.38079910953 0.41253236865 0.44426562778 0.47599888691 0.50773214603 0.53946540516 
0.57119866429 0.60293192342 0.63466518254 0.66639844167 0.6981317008 0.72986495992 0.76159821905 0.79333147818 0.82506473731 
0.85679799643 0.88853125556 0.92026451469 0.95199777382 0.98373103294 1.0154642921 1.0471975512 1.0789308103 1.1106640695 
1.1423973286 1.1741305877 1.2058638468 1.237597106 1.2693303651 1.3010636242 1.3327968833 1.3645301425 1.3962634016 
1.4279966607 1.4597299198 1.491463179 1.5231964381 1.5549296972 1.5866629564 1.6183962155 1.6501294746 1.6818627337 
1.7135959929 1.745329252 1.7770625111 1.8087957702 1.8405290294 1.8722622885 1.9039955476 1.9357288068 1.9674620659 
1.999195325 2.0309285841 2.0626618433 2.0943951024 2.1261283615 2.1578616206 2.1895948798 2.2213281389 2.253061398 
2.2847946572 2.3165279163 2.3482611754 2.3799944345 2.4117276937 2.4434609528 2.4751942119 2.506927471 2.5386607302 
2.5703939893 2.6021272484 2.6338605076 2.6655937667 2.6973270258 2.7290602849 2.7607935441 2.7925268032 2.8242600623 
2.8559933214 2.8877265806 2.9194598397 2.9511930988 2.982926358 3.0146596171 3.0463928762 3.0781261353 3.1098593945 
3.1415926536 
_radius 1 100 double
2.4939948808e-13 0.3421167183 0.67924547881 1.0073160682 1.3241391036 1.6295598717 1.9249753427 2.2124125723 2.4935094053 
2.7687570858 3.0372550577 3.297013045 3.5455950806 3.7807679076 4.0008734032 4.2048404501 4.3919527632 4.561588524 
4.7131215038 4.8460651244 4.9604148726 5.0570521127 5.1380383784 5.2066487649 5.2670485144 5.3236115079 5.3800278115 
5.4384949696 5.4992903533 5.5608264287 5.6200608163 5.6730424006 5.7154243453 5.7428782608 5.7514318809 5.7377894891 
5.6996755511 5.6361899748 5.5481103723 5.4380480833 5.3103729077 5.1708659548 5.0261280094 4.8828403507 4.7470212788 
4.6234251946 4.5151863546 4.4237328128 4.3489227078 4.2893197944 4.2425411085 4.2056569474 4.1756557278 4.1499635244 
4.1269333323 4.1061450346 4.0883532077 4.075026369 4.0676124171 4.0668388339 4.0723828113 4.0830773072 4.0975514675 
4.1150019435 4.1357501814 4.1613448759 4.1941490531 4.2365392116 4.2899871768 4.3543531616 4.4276617818 4.5064544994 
4.5865596526 4.6639251205 4.7351535249 4.7975652108 4.8488628997 4.886647979 4.9080610706 4.909698547 4.8877966665 
4.8385812349 4.7586712397 4.6454569447 4.4974067308 4.3142773785 4.0972115457 3.8487127576 3.5724989746 3.2732495675 
2.9562702736 2.6271020382 2.2910974423 1.9529934515 1.6165266455 1.2841572622 0.95696911164 0.63477522272 0.31639295725 
3.5542634714e-13 
_area 1 100 double
0 0.31449169059 1.255688399 2.8171153923 4.9881815761 7.7519801565 11.080071805 14.926246662 19.223210432 
23.885635618 28.820107105 33.938523315 39.168570226 44.45514659 49.750905262 55.000298578 60.125539603 65.022224431 
69.568186314 73.643999825 77.159074731 80.07502156 82.419433083 84.287647234 85.833970724 87.254049764 88.75685695 
90.523832213 92.661969458 95.171532152 97.945360829 100.79269963 103.46596747 105.68138884 107.14266675 107.57711569 
106.78102292 104.66236438 101.26894268 96.793606902 91.552891975 85.941374054 80.370085611 75.200693861 70.687849467 
66.943040005 63.935095716 61.538184464 59.601700795 57.999587601 56.64567393 55.487773029 54.498495038 53.66923819 
53.007809147 52.540210383 52.299833551 52.305936152 52.527730081 52.883460918 53.264354477 53.578462968 53.768961592 
53.837578173 53.820914466 53.762445574 53.744802255 53.840861958 54.123136854 54.658429314 55.490841459 56.599146014 
57.906886739 59.346356061 60.876152058 62.451871857 63.987339074 65.341478196 66.334766871 66.779610882 66.514154585 
65.428395591 63.472212661 60.645475314 56.984714707 52.561765458 47.493013802 41.945623346 36.1308386 30.283682964 
24.635065845 19.384987012 14.684057066 10.626458167 7.2533518736 4.56363611 2.5291375783 1.1114222999 0.27592017807 
1.8189894035e-12 
