# vtk DataFile Version 5.1
vtk output
ASCII
DATASET POLYDATA
POINTS 1002 float
-118.494 -118.67 79.3471 -119.87 -102.386 90.2619 -121.036 -125.681 84.533 
-119.142 -105.384 96.2129 -125.359 -110.947 84.6835 -127.05 -114.941 88.7189 
-115.865 -115.334 85.2861 -118.088 -114.734 88.1125 -119.571 -98.5393 97.5835 
-123.069 -125.967 77.8834 -113.041 -97.3762 101.122 -112.696 -128.141 80.2155 
-118.702 -117.91 80.0044 -118.972 -116.996 80.7736 -119.265 -115.918 81.6712 
-119.573 -114.621 82.7313 -119.899 -112.941 83.9305 -120.164 -110.768 85.1753 
-120.283 -108.28 86.4138 -120.264 -105.873 87.6721 -120.132 -103.874 88.9672 
-119.196 -118.196 79.3971 -119.926 -117.679 79.5742 -120.698 -117.039 79.9034 
-121.514 -116.164 80.3644 -122.329 -115.079 80.9443 -123.079 -114.036 81.6576 
-123.757 -113.246 82.4663 -124.377 -112.602 83.2711 -124.921 -111.861 84.0098 
-117.885 -118.694 79.7394 -117.239 -118.624 80.1724 -116.596 -118.393 80.6336 
-116.012 -118.053 81.12 -115.543 -117.673 81.6532 -115.224 -117.248 82.275 
-115.093 -116.816 82.9925 -115.19 -116.432 83.757 -115.484 -115.997 84.5232 
-118.804 -119.11 78.7187 -119.206 -119.665 78.028 -119.664 -120.295 77.2732 
-120.182 -120.838 76.4891 -120.828 -121.396 75.8224 -121.586 -122.357 75.5098 
-122.266 -123.714 75.6945 -122.704 -124.93 76.294 -122.926 -125.643 77.0877 
-117.944 -119.436 79.008 -117.351 -120.311 78.7582 -116.699 -121.27 78.5988 
-115.921 -122.358 78.4975 -114.978 -123.744 78.4454 -113.981 -125.341 78.4923 
-113.179 -126.626 78.7042 -112.738 -127.295 79.1036 -112.624 -127.663 79.6417 
-120.375 -102.921 89.6679 -120.896 -103.671 89.0392 -121.432 -104.479 88.3761 
-122.018 -105.193 87.6918 -122.662 -105.935 87.0311 -123.307 -106.93 86.4408 
-123.901 -108.116 85.9282 -124.448 -109.231 85.47 -124.944 -110.155 85.0525 
-119.593 -102.896 90.0218 -119.33 -103.676 89.7204 -119.066 -104.572 89.3434 
-118.773 -105.565 88.88 -118.46 -106.93 88.3272 -118.141 -108.796 87.6868 
-117.762 -110.828 86.9882 -117.239 -112.642 86.3079 -116.575 -114.136 85.7278 
-119.798 -101.502 91.2281 -119.635 -100.759 92.253 -119.399 -99.999 93.29 
-119.161 -99.2623 94.3172 -119.008 -98.8045 95.2928 -118.978 -98.6377 96.1251 
-119.04 -98.5 96.7509 -119.154 -98.3434 97.1844 -119.321 -98.3396 97.4575 
-119.248 -101.397 91.5122 -118.38 -100.462 92.9491 -117.333 -99.5229 94.4589 
-116.306 -98.7212 95.9161 -115.505 -98.3458 97.3186 -114.931 -98.2451 98.6982 
-114.411 -97.8913 99.9015 -113.852 -97.2825 100.699 -113.349 -96.9982 101.057 
-121.327 -123.9 85.1822 -121.654 -121.742 85.9147 -121.971 -119.322 86.8404 
-122.168 -116.554 87.9536 -122.152 -113.467 89.1281 -121.895 -110.623 90.3688 
-121.394 -108.657 91.82 -120.684 -107.496 93.438 -119.889 -106.536 94.9628 
-121.716 -124.974 84.732 -122.43 -124.206 84.9821 -123.144 -123.269 85.2983 
-123.844 -122.003 85.688 -124.53 -120.578 86.1566 -125.184 -119.334 86.684 
-125.765 -118.297 87.2258 -126.262 -117.26 87.7557 -126.689 -116.132 88.2629 
-120.56 -125.333 84.7548 -120.107 -124.787 84.9741 -119.674 -123.926 85.1861 
-119.25 -122.792 85.4391 -118.858 -121.603 85.7892 -118.549 -120.466 86.2299 
-118.347 -119.241 86.7065 -118.228 -117.812 87.1793 -118.152 -116.259 87.6433 
-121.196 -126.731 83.9615 -121.398 -127.534 83.3249 -121.615 -127.984 82.6411 
-121.848 -128.166 81.8627 -122.101 -128.27 80.9722 -122.323 -128.216 80.1082 
-122.475 -127.783 79.4218 -122.612 -127.099 78.8825 -122.813 -126.481 78.3774 
-120.409 -126.874 83.967 -119.683 -127.406 83.2589 -118.877 -127.118 82.4721 
-117.978 -126.816 81.8006 -116.939 -127.577 81.395 -115.824 -129.133 81.2001 
-114.818 -130.104 81.0525 -114.015 -129.886 80.8475 -113.336 -129.027 80.5603 
-119.935 -105.939 95.5969 -120.836 -106.484 94.8155 -121.769 -107.065 93.9168 
-122.686 -107.996 92.9811 -123.621 -109.507 92.0777 -124.576 -111.285 91.263 
-125.446 -112.769 90.5676 -126.139 -113.763 89.9547 -126.66 -114.43 89.3509 
-118.872 -105.662 96.0032 -118.667 -105.958 95.6575 -118.553 -106.211 95.1309 
-118.538 -106.419 94.384 -118.592 -106.716 93.4496 -118.675 -107.353 92.4118 
-118.748 -108.552 91.3052 -118.732 -110.339 90.1477 -118.524 -112.508 89.0393 
-118.908 -104.352 96.9727 -118.719 -103.301 97.6897 -118.61 -102.486 98.3469 
-118.633 -101.859 98.9215 -118.776 -101.098 99.3886 -118.921 -100.096 99.6709 
-118.987 -99.1451 99.6237 -119.057 -98.5638 99.1763 -119.246 -98.4099 98.4344 
-118.241 -104.137 97.2164 -117.316 -102.715 98.242 -116.356 -101.315 99.4041 
-115.319 -100.098 100.741 -114.21 -99.2502 102.034 -113.172 -98.8781 102.896 
-112.463 -98.6865 103.1 -112.275 -98.2675 102.722 -112.552 -97.6937 101.994 
-125.818 -110.826 84.9048 -126.27 -110.717 85.1881 -126.745 -110.629 85.5266 
-127.285 -110.661 85.9358 -127.833 -110.999 86.4604 -128.189 -111.744 87.0964 
-128.196 -112.741 87.7305 -127.901 -113.686 88.2249 -127.475 -114.41 88.5372 
-125.462 -109.299 85.5841 -125.418 -107.41 86.5742 -125.207 -105.652 87.6577 
-124.852 -104.112 88.8541 -124.341 -102.528 90.2026 -123.62 -100.98 91.6964 
-122.69 -99.9465 93.2432 -121.627 -99.4691 94.7544 -120.549 -99.089 96.2064 
-125.454 -112.311 83.9026 -125.499 -113.797 83.0665 -125.519 -115.495 82.2074 
-125.473 -117.149 81.3094 -125.293 -118.457 80.3475 -124.989 -119.744 79.4007 
-124.618 -121.524 78.6357 -124.173 -123.533 78.1555 -123.64 -125.085 77.9348 
-127.076 -113.242 89.5237 -126.844 -111.186 90.298 -126.307 -108.93 91.1121 
-125.556 -106.593 92.0743 -124.735 -104.225 93.138 -123.852 -102.09 94.1237 
-122.818 -100.595 94.9927 -121.655 -99.7497 95.8595 -120.527 -99.1599 96.7544 
-127.102 -116.156 87.7107 -126.982 -117.435 86.5348 -126.737 -118.944 85.2881 
-126.47 -120.759 84.015 -126.189 -122.603 82.7178 -125.75 -124.002 81.4857 
-125.075 -124.823 80.4321 -124.301 -125.323 79.5294 -123.614 -125.709 78.6829 
-115.68 -115.444 85.5707 -115.505 -115.447 85.9586 -115.345 -115.476 86.451 
-115.288 -115.805 86.9673 -115.48 -116.412 87.3621 -115.961 -116.805 87.5595 
-116.591 -116.588 87.6408 -117.19 -115.932 87.7403 -117.684 -115.246 87.9085 
-116.639 -113.384 86.4469 -117.13 -110.354 88.0479 -117.013 -106.728 90.1058 
-116.141 -103.735 92.2774 -114.805 -102.2 94.0626 -113.695 -101.555 95.3669 
-113.31 -100.703 96.5692 -113.438 -99.4013 97.9817 -113.462 -98.1615 99.5664 
-114.855 -116.737 84.4721 -113.82 -118.074 83.6984 -112.876 -119.814 82.9862 
-111.945 -121.915 82.4222 -110.958 -123.605 81.981 -110.198 -124.461 81.4831 
-110.113 -125.073 80.8981 -110.752 -126.044 80.4351 -111.736 -127.208 80.234 
-118.226 -111.717 89.2981 -117.94 -108.653 90.9656 -117.003 -106.318 93.005 
-115.463 -105.171 94.9839 -113.868 -104.732 96.451 -112.945 -104 97.3868 
-112.859 -102.492 98.1588 -113.106 -100.521 99.0638 -113.189 -98.6847 100.106 
-117.409 -117.767 87.1051 -116.472 -120.413 86.2373 -115.485 -122.476 85.3366 
-114.533 -124.141 84.3262 -113.563 -125.587 83.3929 -112.668 -126.783 82.7096 
-112.124 -127.643 82.1473 -112.052 -128.113 81.5118 -112.305 -128.226 80.8247 
-118.49 -97.6105 98.943 -117.435 -96.6156 100.402 -116.353 -96.0368 101.945 
-115.063 -96.0266 103.533 -113.489 -96.1588 104.874 -111.99 -96.087 105.488 
-111.228 -95.9856 105.161 -111.482 -96.123 104.102 -112.313 -96.583 102.656 
-122.377 -126.355 77.4591 -121.595 -126.787 77.2087 -120.727 -127.754 77.2098 
-119.754 -129.184 77.4072 -118.594 -130.065 77.7433 -117.224 -129.724 78.2664 
-115.811 -128.883 78.9287 -114.572 -128.459 79.5114 -113.559 -128.375 79.9045 
-119.424 -117.323 80.1575 -120.169 -116.586 80.4339 -119.689 -116.279 81.0399 
-120.949 -115.688 80.8423 -120.424 -115.373 81.4324 -119.963 -115.061 82.0748 
-121.749 -114.711 81.3845 -121.192 -114.414 81.9545 -120.686 -114.044 82.5978 
-120.253 -113.541 83.2613 -122.516 -113.8 82.0775 -121.965 -113.554 82.6128 
-121.437 -113.036 83.2193 -120.947 -112.29 83.8554 -120.521 -111.519 84.511 
-123.223 -113.013 82.8832 -122.697 -112.742 83.383 -122.169 -112.054 83.923 
-121.631 -111.003 84.4892 -121.121 -109.957 85.1006 -120.672 -109.074 85.7553 
-123.881 -112.22 83.6849 -123.369 -111.767 84.1604 -122.838 -110.907 84.6526 
-122.264 -109.679 85.1602 -121.678 -108.471 85.7242 -121.145 -107.473 86.3594 
-120.679 -106.618 87.0243 -124.469 -111.261 84.4045 -123.964 -110.546 84.8535 
-123.423 -109.525 85.3264 -122.827 -108.277 85.826 -122.192 -107.131 86.3871 
-121.59 -106.203 87.021 -121.062 -105.343 87.6883 -120.583 -104.527 88.343 
-119.542 -118.705 78.7391 -119.97 -119.296 78.03 -120.316 -118.32 78.9537 
-120.467 -119.763 77.2893 -120.774 -118.964 78.3214 -121.153 -117.79 79.3795 
-121.075 -120.042 76.5926 -121.314 -119.282 77.7061 -121.669 -118.466 78.8912 
-122.054 -116.872 79.9489 -121.824 -120.606 76.1215 -121.974 -119.392 77.2 
-122.249 -118.739 78.4612 -122.641 -117.542 79.6077 -122.939 -115.623 80.6211 
-122.584 -121.86 76.0727 -122.718 -119.961 76.9673 -122.893 -118.842 78.171 
-123.24 -117.957 79.3614 -123.571 -116.331 80.4038 -123.72 -114.475 81.4111 
-123.147 -123.381 76.4756 -123.386 -121.197 77.1083 -123.55 -119.357 78.1161 
-123.833 -118.274 79.2522 -124.168 -117.048 80.3082 -124.358 -115.279 81.285 
-124.392 -113.69 82.2764 -123.462 -124.499 77.1656 -123.862 -122.543 77.5557 
-124.139 -120.374 78.2961 -124.42 -118.836 79.2796 -124.728 -117.714 80.311 
-124.935 -116.241 81.2745 -124.992 -114.519 82.1983 -124.973 -113.066 83.123 
-124.263 -124.565 78.7953 -125.051 -124.016 79.6807 -124.908 -122.887 79.051 
-125.866 -123.462 80.6765 -125.794 -122.411 79.9941 -125.473 -121.044 79.5775 
-126.461 -122.513 81.9015 -126.584 -121.894 81.1258 -126.381 -120.743 80.6171 
-125.88 -119.465 80.4099 -126.791 -120.888 83.3061 -127.06 -120.741 82.5152 
-127.05 -120.063 81.8728 -126.659 -119.009 81.5357 -126.06 -117.984 81.4041 
-127.052 -118.951 84.7368 -127.346 -118.883 84.0449 -127.434 -118.518 83.3427 
-127.166 -117.801 82.834 -126.63 -116.968 82.5554 -126.046 -116.205 82.3755 
-127.336 -117.211 86.1231 -127.652 -116.9 85.569 -127.769 -116.43 84.9024 
-127.546 -115.811 84.2775 -127.046 -115.192 83.8237 -126.484 -114.688 83.5156 
[...]
POINT_DATA 1002
FIELD FieldData 4
_paraPhi 1 1002 double
6.2831853072 3.1415926536 6.2831853072 3.1415926536 4.7123889804 4.7123889804 1.5707963268 1.5707963268 3.6951670125 
5.7296109483 2.5880182947 0.5535743589 6.2831853072 6.2831853072 6.2831853072 6.2831853072 3.1415926536 3.1415926536 
3.1415926536 3.1415926536 3.1415926536 6.1053039672 5.898798347 5.6768734901 5.4599499503 5.2659633393 5.1032165617 
4.9713148346 4.8656852733 4.7809517865 0.17788134 0.38438696014 0.60631181711 0.82323535693 1.0172219679 1.1799687454 
1.3118704726 1.4175000338 1.5022335207 6.1892828907 6.1070320098 6.035312792 5.9728339911 5.9183214791 5.8706119594 
5.8286879411 5.7916808611 5.7588591896 0.093902416448 0.17615329733 0.2478725152 0.31035131605 0.36486382811 0.41257334776 
0.45449736604 0.4915044461 0.52432611754 3.3194739936 3.5259796137 3.7479044707 3.9648280105 4.1588146215 4.321561399 
4.4534631262 4.5590926874 4.6438261743 2.9637113136 2.7572056934 2.5352808365 2.3183572967 2.1243706857 1.9616239082 
1.829722181 1.7240926197 1.6393591329 3.23549507 3.3177459509 3.3894651688 3.4519439696 3.5064564817 3.5541660013 
3.5960900196 3.6330970997 3.6659187711 3.0476902371 2.9654393563 2.8937201384 2.8312413375 2.7767288255 2.7290193058 
2.6870952876 2.6500882075 2.617266536 6.2831853072 6.2831853072 6.2831853072 6.2831853072 3.1415926536 3.1415926536 
3.1415926536 3.1415926536 3.1415926536 6.1053039672 5.898798347 5.6768734901 5.4599499503 5.2659633393 5.1032165617 
4.9713148346 4.8656852733 4.7809517865 0.17788134 0.38438696014 0.60631181711 0.82323535693 1.0172219679 1.1799687454 
1.3118704726 1.4175000338 1.5022335207 6.1892828907 6.1070320098 6.035312792 5.9728339911 5.9183214791 5.8706119594 
5.8286879411 5.7916808611 5.7588591896 0.093902416448 0.17615329733 0.2478725152 0.31035131605 0.36486382811 0.41257334776 
0.45449736604 0.4915044461 0.52432611754 3.3194739936 3.5259796137 3.7479044707 3.9648280105 4.1588146215 4.321561399 
4.4534631262 4.5590926874 4.6438261743 2.9637113136 2.7572056934 2.5352808365 2.3183572967 2.1243706857 1.9616239082 
1.829722181 1.7240926197 1.6393591329 3.23549507 3.3177459509 3.3894651688 3.4519439696 3.5064564817 3.5541660013 
3.5960900196 3.6330970997 3.6659187711 3.0476902371 2.9654393563 2.8937201384 2.8312413375 2.7767288255 2.7290193058 
2.6870952876 2.6500882075 2.617266536 4.7123889804 4.7123889804 4.7123889804 4.7123889804 4.7123889804 4.7123889804 
4.7123889804 4.7123889804 4.7123889804 4.6087898617 4.4991390697 4.3857031936 4.2712800401 4.1588146215 4.0509635631 
3.94975894 3.8564636551 3.7716124825 4.8159880991 4.9256388911 5.0390747672 5.1534979207 5.2659633393 5.3738143976 
5.4750190208 5.5683143056 5.6531654782 4.6087898617 4.4991390697 4.3857031936 4.2712800401 4.1588146215 4.0509635631 
3.94975894 3.8564636551 3.7716124825 4.8159880991 4.9256388911 5.0390747672 5.1534979207 5.2659633393 5.3738143976 
5.4750190208 5.5683143056 5.6531654782 1.5707963268 1.5707963268 1.5707963268 1.5707963268 1.5707963268 1.5707963268 
1.5707963268 1.5707963268 1.5707963268 1.6743954455 1.7840462375 1.8974821136 2.0119052671 2.1243706857 2.232221744 
2.3334263672 2.426721652 2.5115728246 1.4671972081 1.3575464161 1.24411054 1.1296873865 1.0172219679 0.90937090954 
0.80816628637 0.71487100155 0.63001982895 1.6743954455 1.7840462375 1.8974821136 2.0119052671 2.1243706857 2.232221744 
2.3334263672 2.426721652 2.5115728246 1.4671972081 1.3575464161 1.24411054 1.1296873865 1.0172219679 0.90937090954 
0.80816628637 0.71487100155 0.63001982895 3.6007720849 3.4966939854 3.3839471039 3.2645756454 3.1415926536 3.0186096618 
2.8992382033 2.7864913217 2.6824132222 5.8240058758 5.9280839753 6.0408308569 6.1602023154 6.2831853072 0.12298299178 
0.2423544503 0.35510133185 0.45917943135 6.0560271438 5.7885595667 5.9702140275 5.5125918794 5.6029703303 5.7885595667 
5.2659633393 5.2659633393 5.2659633393 5.2659633393 5.0674903122 5.0120975802 4.9155579264 4.7123889804 4.1588146215 
4.9155579264 4.8353719722 4.7123889804 4.5092200343 4.1588146215 3.6362183941 4.8004512023 4.7123889804 4.5894059886 
4.4126803806 4.1588146215 3.8218076305 3.4545639333 4.7123889804 4.6243267584 4.5092200343 4.3572876485 4.1588146215 
3.9121860814 3.6362183941 3.368750817 6.0174235957 5.9434319871 5.8263323547 5.8809213739 5.7674481418 5.6279784266 
5.8278025282 5.718968232 5.5891129425 5.4372443565 5.7823484065 5.678536687 5.5575666702 5.4192596322 5.2659633393 
5.743164462 5.6444075337 5.5314983644 5.4046708639 5.2659633393 5.1195510325 5.7091357773 5.6152775188 5.5096229709 
5.3926039573 5.2659633393 5.1329233157 4.9978930058 5.6793730533 5.5901633916 5.4910209005 5.3824597928 5.2659633393 
5.1440684722 5.0201624502 4.8979782167 5.5683143056 5.4750190208 5.4750190208 5.3738143976 5.3738143976 5.3738143976 
5.2659633393 5.2659633393 5.2659633393 5.2659633393 5.1534979207 5.1534979207 5.1534979207 5.1534979207 5.1534979207 
5.0390747672 5.0390747672 5.0390747672 5.0390747672 5.0390747672 5.0390747672 4.9256388911 4.9256388911 4.9256388911 
4.9256388911 4.9256388911 4.9256388911 4.9256388911 4.8159880991 4.8159880991 4.8159880991 4.8159880991 4.8159880991 
4.8159880991 4.8159880991 4.8159880991 4.6087898617 4.6087898617 4.4991390697 4.6087898617 4.4991390697 4.3857031936 
4.6087898617 4.4991390697 4.3857031936 4.2712800401 4.6087898617 4.4991390697 4.3857031936 4.2712800401 4.1588146215 
4.6087898617 4.4991390697 4.3857031936 4.2712800401 4.1588146215 4.0509635631 4.6087898617 4.4991390697 4.3857031936 
4.2712800401 4.1588146215 4.0509635631 3.94975894 4.6087898617 4.4991390697 4.3857031936 4.2712800401 4.1588146215 
4.0509635631 3.94975894 3.8564636551 4.526799744 4.4046155105 4.426884955 4.2807094886 4.2918546451 4.3052269283 
4.1588146215 4.1588146215 4.1588146215 4.1588146215 4.042318168 4.0321740035 4.0201070968 4.0055183285 3.9875336042 
3.9337570603 3.9151549899 3.8932795963 3.8672112905 3.8356650183 3.7967995342 3.8346145692 3.809500442 3.7803704271 
3.7462412737 3.7058097288 3.657329819 3.5984456061 3.7454049075 3.7156421835 3.6816134988 3.6424295543 3.5969754326 
3.5438565869 3.4813459737 3.4073543651 3.5642842451 3.4524645613 3.5233842518 3.3320300872 3.403123212 3.4773852225 
3.20576226 3.2746326772 3.348015857 3.4255060145 3.0774230472 3.1415926536 3.2112816139 3.2864685043 3.3668817272 
2.95115522 3.00855263 3.0719036933 3.1415926536 3.2178377658 3.3005964304 2.8307207459 2.8800620952 2.9351694502 
2.9967168029 3.0653475414 3.1415926536 3.225752376 2.718901062 2.7598010554 2.8058000847 2.8576792927 2.91630358 
2.9825888767 3.0574329311 3.1415926536 3.5642842451 3.5233842518 3.4524645613 3.4773852225 3.403123212 3.3320300872 
3.4255060145 3.348015857 3.2746326772 3.20576226 3.3668817272 3.2864685043 3.2112816139 3.1415926536 3.0774230472 
3.3005964304 3.2178377658 3.1415926536 3.0719036933 3.00855263 2.95115522 3.225752376 3.1415926536 3.0653475414 
2.9967168029 2.9351694502 2.8800620952 2.8307207459 3.1415926536 3.0574329311 2.9825888767 2.91630358 2.8576792927 
2.8058000847 2.7598010554 2.718901062 4.526799744 4.426884955 4.4046155105 4.3052269283 4.2918546451 4.2807094886 
4.1588146215 4.1588146215 4.1588146215 4.1588146215 3.9875336042 4.0055183285 4.0201070968 4.0321740035 4.042318168 
3.7967995342 3.8356650183 3.8672112905 3.8932795963 3.9151549899 3.9337570603 3.5984456061 3.657329819 3.7058097288 
3.7462412737 3.7803704271 3.809500442 3.8346145692 3.4073543651 3.4813459737 3.5438565869 3.5969754326 3.6424295543 
3.6816134988 3.7156421835 3.7454049075 4.7123889804 4.8004512023 4.6243267584 4.9155579264 4.7123889804 4.5092200343 
5.0674903122 4.8353719722 4.5894059886 4.3572876485 5.2659633393 5.0120975802 4.7123889804 4.4126803806 4.1588146215 
5.5125918794 5.2659633393 4.9155579264 4.5092200343 4.1588146215 3.9121860814 5.7885595667 5.6029703303 5.2659633393 
4.7123889804 4.1588146215 3.8218076305 3.6362183941 6.0560271438 5.9702140275 5.7885595667 5.2659633393 4.1588146215 
3.6362183941 3.4545639333 3.368750817 0.22715816343 0.49462574053 0.3129712797 0.77059342779 0.68021497688 0.49462574053 
1.0172219679 1.0172219679 1.0172219679 1.0172219679 1.2156949949 1.271087727 1.3676273807 1.5707963268 2.1243706857 
1.3676273807 1.447813335 1.5707963268 1.7739652728 2.1243706857 2.6469669131 1.4827341049 1.5707963268 1.6937793186 
1.8705049266 2.1243706857 2.4613776767 2.8286213739 1.5707963268 1.6588585487 1.7739652728 1.9258976586 2.1243706857 
2.3709992258 2.6469669131 2.9144344902 1.7563855631 1.8785697967 1.8563003522 2.0024758186 1.9913306621 1.9779583789 
2.1243706857 2.1243706857 2.1243706857 2.1243706857 2.2408671392 2.2510113037 2.2630782103 2.2776669786 2.295651703 
2.3494282469 2.3680303173 2.3899057108 2.4159740166 2.4475202889 2.486385773 2.448570738 2.4736848652 2.5028148801 
2.5369440334 2.5773755784 2.6258554882 2.6847397011 2.5377803997 2.5675431237 2.6015718084 2.6407557529 2.6862098746 
2.7393287203 2.8018393335 2.8758309421 1.6743954455 1.6743954455 1.7840462375 1.6743954455 1.7840462375 1.8974821136 
1.6743954455 1.7840462375 1.8974821136 2.0119052671 1.6743954455 1.7840462375 1.8974821136 2.0119052671 2.1243706857 
1.6743954455 1.7840462375 1.8974821136 2.0119052671 2.1243706857 2.232221744 1.6743954455 1.7840462375 1.8974821136 
2.0119052671 2.1243706857 2.232221744 2.3334263672 1.6743954455 1.7840462375 1.8974821136 2.0119052671 2.1243706857 
2.232221744 2.3334263672 2.426721652 1.4671972081 1.3575464161 1.4671972081 1.24411054 1.3575464161 1.4671972081 
1.1296873865 1.24411054 1.3575464161 1.4671972081 1.0172219679 1.1296873865 1.24411054 1.3575464161 1.4671972081 
0.90937090954 1.0172219679 1.1296873865 1.24411054 1.3575464161 1.4671972081 0.80816628637 0.90937090954 1.0172219679 
1.1296873865 1.24411054 1.3575464161 1.4671972081 0.71487100155 0.80816628637 0.90937090954 1.0172219679 1.1296873865 
1.24411054 1.3575464161 1.4671972081 0.60381225391 0.57404952988 0.69302191562 0.54002084522 0.66790778838 0.79216440667 
0.50083690068 0.63877777351 0.77356233629 0.90072551443 0.45538277901 0.60464862014 0.75168694275 0.89058134991 1.0172219679 
0.40226393329 0.56421707518 0.72561863695 0.87851444325 1.0172219679 1.139116835 0.33975332011 0.51573716537 0.69407236469 
0.86392567495 1.0172219679 1.1502619915 1.2630228569 0.26576171152 0.45685295248 0.6552068806 0.84594095064 1.0172219679 
1.1636342747 1.2852923014 1.3852070904 0.22715816343 0.3129712797 0.49462574053 0.49462574053 0.68021497688 0.77059342779 
1.0172219679 1.0172219679 1.0172219679 1.0172219679 2.1243706857 1.5707963268 1.3676273807 1.271087727 1.2156949949 
2.6469669131 2.1243706857 1.7739652728 1.5707963268 1.447813335 1.3676273807 2.8286213739 2.4613776767 2.1243706857 
1.8705049266 1.6937793186 1.5707963268 1.4827341049 2.9144344902 2.6469669131 2.3709992258 2.1243706857 1.9258976586 
1.7739652728 1.6588585487 1.5707963268 1.7563855631 1.8563003522 1.8785697967 1.9779583789 1.9913306621 2.0024758186 
2.1243706857 2.1243706857 2.1243706857 2.1243706857 2.295651703 2.2776669786 2.2630782103 2.2510113037 2.2408671392 
2.486385773 2.4475202889 2.4159740166 2.3899057108 2.3680303173 2.3494282469 2.6847397011 2.6258554882 2.5773755784 
2.5369440334 2.5028148801 2.4736848652 2.448570738 2.8758309421 2.8018393335 2.7393287203 2.6862098746 2.6407557529 
2.6015718084 2.5675431237 2.5377803997 5.8604937156 5.901393709 5.9723133995 5.9473927383 6.0216547488 6.0927478736 
5.9992719463 6.0767621038 6.1501452836 6.2190157008 6.0578962336 6.1383094565 6.2134963469 0 0.064169606361 
6.1241815303 6.206940195 6.2831853072 0.069688960264 0.13304002361 0.19043743361 6.1990255847 0 0.07624511221 
0.14487585072 0.20642320337 0.26153055843 0.3108719077 0 0.084159722458 0.15900377685 0.22528907359 0.28391336087 
0.3357925689 0.38179159818 0.42269159155 5.8604937156 5.9723133995 5.901393709 6.0927478736 6.0216547488 5.9473927383 
6.2190157008 6.1501452836 6.0767621038 5.9992719463 0.064169606361 0 6.2134963469 6.1383094565 6.0578962336 
0.19043743361 0.13304002361 0.069688960264 6.2831853072 6.206940195 6.1241815303 0.3108719077 0.26153055843 0.20642320337 
0.14487585072 0.07624511221 6.2831853072 6.1990255847 0.42269159155 0.38179159818 0.3357925689 0.28391336087 0.22528907359 
0.15900377685 0.084159722458 0 5.6793730533 5.7091357773 5.5901633916 5.743164462 5.6152775188 5.4910209005 
5.7823484065 5.6444075337 5.5096229709 5.3824597928 5.8278025282 5.678536687 5.5314983644 5.3926039573 5.2659633393 
5.8809213739 5.718968232 5.5575666702 5.4046708639 5.2659633393 5.1440684722 5.9434319871 5.7674481418 5.5891129425 
5.4192596322 5.2659633393 5.1329233157 5.0201624502 6.0174235957 5.8263323547 5.6279784266 5.4372443565 5.2659633393 
5.1195510325 4.9978930058 4.8979782167 1.3852070904 1.2852923014 1.2630228569 1.1636342747 1.1502619915 1.139116835 
1.0172219679 1.0172219679 1.0172219679 1.0172219679 0.84594095064 0.86392567495 0.87851444325 0.89058134991 0.90072551443 
0.6552068806 0.69407236469 0.72561863695 0.75168694275 0.77356233629 0.79216440667 0.45685295248 0.51573716537 0.56421707518 
0.60464862014 0.63877777351 0.66790778838 0.69302191562 0.26576171152 0.33975332011 0.40226393329 0.45538277901 0.50083690068 
0.54002084522 0.57404952988 0.60381225391 
_paraPhiHalf 1 1002 double
0 3.1415926536 0 3.1415926536 1.5707963268 1.5707963268 1.5707963268 1.5707963268 2.5880182947 
0.5535743589 2.5880182947 0.5535743589 0 0 0 0 3.1415926536 3.1415926536 
3.1415926536 3.1415926536 3.1415926536 0.17788134 0.38438696014 0.60631181711 0.82323535693 1.0172219679 1.1799687454 
1.3118704726 1.4175000338 1.5022335207 0.17788134 0.38438696014 0.60631181711 0.82323535693 1.0172219679 1.1799687454 
1.3118704726 1.4175000338 1.5022335207 0.093902416448 0.17615329733 0.2478725152 0.31035131605 0.36486382811 0.41257334776 
0.45449736604 0.4915044461 0.52432611754 0.093902416448 0.17615329733 0.2478725152 0.31035131605 0.36486382811 0.41257334776 
0.45449736604 0.4915044461 0.52432611754 2.9637113136 2.7572056934 2.5352808365 2.3183572967 2.1243706857 1.9616239082 
1.829722181 1.7240926197 1.6393591329 2.9637113136 2.7572056934 2.5352808365 2.3183572967 2.1243706857 1.9616239082 
1.829722181 1.7240926197 1.6393591329 3.0476902371 2.9654393563 2.8937201384 2.8312413375 2.7767288255 2.7290193058 
2.6870952876 2.6500882075 2.617266536 3.0476902371 2.9654393563 2.8937201384 2.8312413375 2.7767288255 2.7290193058 
2.6870952876 2.6500882075 2.617266536 0 0 0 0 3.1415926536 3.1415926536 
3.1415926536 3.1415926536 3.1415926536 0.17788134 0.38438696014 0.60631181711 0.82323535693 1.0172219679 1.1799687454 
1.3118704726 1.4175000338 1.5022335207 0.17788134 0.38438696014 0.60631181711 0.82323535693 1.0172219679 1.1799687454 
1.3118704726 1.4175000338 1.5022335207 0.093902416448 0.17615329733 0.2478725152 0.31035131605 0.36486382811 0.41257334776 
0.45449736604 0.4915044461 0.52432611754 0.093902416448 0.17615329733 0.2478725152 0.31035131605 0.36486382811 0.41257334776 
0.45449736604 0.4915044461 0.52432611754 2.9637113136 2.7572056934 2.5352808365 2.3183572967 2.1243706857 1.9616239082 
1.829722181 1.7240926197 1.6393591329 2.9637113136 2.7572056934 2.5352808365 2.3183572967 2.1243706857 1.9616239082 
1.829722181 1.7240926197 1.6393591329 3.0476902371 2.9654393563 2.8937201384 2.8312413375 2.7767288255 2.7290193058 
2.6870952876 2.6500882075 2.617266536 3.0476902371 2.9654393563 2.8937201384 2.8312413375 2.7767288255 2.7290193058 
2.6870952876 2.6500882075 2.617266536 1.5707963268 1.5707963268 1.5707963268 1.5707963268 1.5707963268 1.5707963268 
1.5707963268 1.5707963268 1.5707963268 1.6743954455 1.7840462375 1.8974821136 2.0119052671 2.1243706857 2.232221744 
2.3334263672 2.426721652 2.5115728246 1.4671972081 1.3575464161 1.24411054 1.1296873865 1.0172219679 0.90937090954 
0.80816628637 0.71487100155 0.63001982895 1.6743954455 1.7840462375 1.8974821136 2.0119052671 2.1243706857 2.232221744 
2.3334263672 2.426721652 2.5115728246 1.4671972081 1.3575464161 1.24411054 1.1296873865 1.0172219679 0.90937090954 
0.80816628637 0.71487100155 0.63001982895 1.5707963268 1.5707963268 1.5707963268 1.5707963268 1.5707963268 1.5707963268 
1.5707963268 1.5707963268 1.5707963268 1.6743954455 1.7840462375 1.8974821136 2.0119052671 2.1243706857 2.232221744 
2.3334263672 2.426721652 2.5115728246 1.4671972081 1.3575464161 1.24411054 1.1296873865 1.0172219679 0.90937090954 
0.80816628637 0.71487100155 0.63001982895 1.6743954455 1.7840462375 1.8974821136 2.0119052671 2.1243706857 2.232221744 
2.3334263672 2.426721652 2.5115728246 1.4671972081 1.3575464161 1.24411054 1.1296873865 1.0172219679 0.90937090954 
0.80816628637 0.71487100155 0.63001982895 2.6824132222 2.7864913217 2.8992382033 3.0186096618 3.1415926536 3.0186096618 
2.8992382033 2.7864913217 2.6824132222 0.45917943135 0.35510133185 0.2423544503 0.12298299178 0 0.12298299178 
0.2423544503 0.35510133185 0.45917943135 0.22715816343 0.49462574053 0.3129712797 0.77059342779 0.68021497688 0.49462574053 
1.0172219679 1.0172219679 1.0172219679 1.0172219679 1.2156949949 1.271087727 1.3676273807 1.5707963268 2.1243706857 
1.3676273807 1.447813335 1.5707963268 1.7739652728 2.1243706857 2.6469669131 1.4827341049 1.5707963268 1.6937793186 
1.8705049266 2.1243706857 2.4613776767 2.8286213739 1.5707963268 1.6588585487 1.7739652728 1.9258976586 2.1243706857 
2.3709992258 2.6469669131 2.9144344902 0.26576171152 0.33975332011 0.45685295248 0.40226393329 0.51573716537 0.6552068806 
0.45538277901 0.56421707518 0.69407236469 0.84594095064 0.50083690068 0.60464862014 0.72561863695 0.86392567495 1.0172219679 
0.54002084522 0.63877777351 0.75168694275 0.87851444325 1.0172219679 1.1636342747 0.57404952988 0.66790778838 0.77356233629 
0.89058134991 1.0172219679 1.1502619915 1.2852923014 0.60381225391 0.69302191562 0.79216440667 0.90072551443 1.0172219679 
1.139116835 1.2630228569 1.3852070904 0.71487100155 0.80816628637 0.80816628637 0.90937090954 0.90937090954 0.90937090954 
1.0172219679 1.0172219679 1.0172219679 1.0172219679 1.1296873865 1.1296873865 1.1296873865 1.1296873865 1.1296873865 
1.24411054 1.24411054 1.24411054 1.24411054 1.24411054 1.24411054 1.3575464161 1.3575464161 1.3575464161 
1.3575464161 1.3575464161 1.3575464161 1.3575464161 1.4671972081 1.4671972081 1.4671972081 1.4671972081 1.4671972081 
1.4671972081 1.4671972081 1.4671972081 1.6743954455 1.6743954455 1.7840462375 1.6743954455 1.7840462375 1.8974821136 
1.6743954455 1.7840462375 1.8974821136 2.0119052671 1.6743954455 1.7840462375 1.8974821136 2.0119052671 2.1243706857 
1.6743954455 1.7840462375 1.8974821136 2.0119052671 2.1243706857 2.232221744 1.6743954455 1.7840462375 1.8974821136 
2.0119052671 2.1243706857 2.232221744 2.3334263672 1.6743954455 1.7840462375 1.8974821136 2.0119052671 2.1243706857 
2.232221744 2.3334263672 2.426721652 1.7563855631 1.8785697967 1.8563003522 2.0024758186 1.9913306621 1.9779583789 
2.1243706857 2.1243706857 2.1243706857 2.1243706857 2.2408671392 2.2510113037 2.2630782103 2.2776669786 2.295651703 
2.3494282469 2.3680303173 2.3899057108 2.4159740166 2.4475202889 2.486385773 2.448570738 2.4736848652 2.5028148801 
2.5369440334 2.5773755784 2.6258554882 2.6847397011 2.5377803997 2.5675431237 2.6015718084 2.6407557529 2.6862098746 
2.7393287203 2.8018393335 2.8758309421 2.718901062 2.8307207459 2.7598010554 2.95115522 2.8800620952 2.8058000847 
3.0774230472 3.00855263 2.9351694502 2.8576792927 3.0774230472 3.1415926536 3.0719036933 2.9967168029 2.91630358 
2.95115522 3.00855263 3.0719036933 3.1415926536 3.0653475414 2.9825888767 2.8307207459 2.8800620952 2.9351694502 
2.9967168029 3.0653475414 3.1415926536 3.0574329311 2.718901062 2.7598010554 2.8058000847 2.8576792927 2.91630358 
2.9825888767 3.0574329311 3.1415926536 2.718901062 2.7598010554 2.8307207459 2.8058000847 2.8800620952 2.95115522 
2.8576792927 2.9351694502 3.00855263 3.0774230472 2.91630358 2.9967168029 3.0719036933 3.1415926536 3.0774230472 
2.9825888767 3.0653475414 3.1415926536 3.0719036933 3.00855263 2.95115522 3.0574329311 3.1415926536 3.0653475414 