# vtk DataFile Version 5.1
vtk output
ASCII
DATASET POLYDATA
POINTS 1002 float
-11.8684 -0.411694 -2.31647 11.0158 0.899448 -2.73489 -12.0986 1.55509 4.28364 
10.6374 -0.738438 3.79012 0.432987 7.29438 -3.13209 0.232769 7.26936 2.11512 
-1.15741 -0.189656 -0.347351 0.790384 -1.22929 2.51575 18.7331 3.06566 -0.390425 
-18.2197 2.20258 0.876331 16.5703 -9.13871 -1.20511 -17.7596 -9.34998 -0.0114519 
-10.4603 0.373495 -2.01674 -8.61426 1.10305 -2.05956 -6.35059 1.80718 -2.25979 
-3.67982 2.39711 -2.46462 -0.666443 2.65504 -2.7581 2.36893 2.53722 -3.05475 
5.02658 2.24203 -3.01762 7.23969 1.89089 -2.69263 9.20246 1.44454 -2.52677 
-11.1112 0.403419 -2.43075 -10.0677 1.25725 -2.67687 -8.79683 2.18396 -2.94065 
-7.42046 3.2059 -3.07837 -6.00936 4.25952 -3.10899 -4.56669 5.22222 -3.18799 
-3.1416 6.00512 -3.34277 -1.82785 6.585 -3.42733 -0.650825 6.9929 -3.34284 
-11.6947 -0.696194 -1.96501 -11.3628 -0.960265 -1.64319 -10.7614 -1.18701 -1.47928 
-9.83543 -1.33127 -1.49509 -8.70999 -1.33113 -1.47986 -7.57833 -1.14046 -1.17368 
-6.42224 -0.778715 -0.62448 -5.01736 -0.375728 -0.174843 -3.22794 -0.130602 -0.0874837 
-12.668 -0.741646 -2.86379 -13.4063 -1.02644 -3.40718 -14.0491 -1.14438 -3.81488 
-14.6916 -0.971576 -4.02035 -15.5434 -0.456856 -3.8894 -16.5894 0.279688 -3.23989 
-17.4914 0.984011 -2.14048 -18.0063 1.49711 -0.937171 -18.2003 1.86555 0.0861011 
-12.895 -1.54492 -2.77431 -13.746 -2.90098 -3.50975 -14.5516 -4.27491 -4.09871 
-15.4231 -5.45656 -4.13605 -16.2904 -6.48844 -3.73574 -17.0138 -7.55335 -3.26613 
-17.5398 -8.59595 -2.71974 -17.8446 -9.33048 -1.89618 -17.9051 -9.56969 -0.89576 
10.2754 1.62717 -2.51393 9.53306 2.34211 -2.49338 8.72284 3.04641 -2.60648 
7.67547 3.78391 -2.62485 6.40297 4.55453 -2.5493 5.14505 5.28632 -2.65082 
4.02003 5.90959 -2.98114 2.90774 6.41789 -3.26838 1.70135 6.86086 -3.31162 
10.6709 0.511551 -2.87814 10.2886 0.109615 -3.14613 9.78696 -0.274728 -3.46542 
9.10886 -0.62287 -3.77412 8.17527 -0.865741 -3.92054 6.81415 -0.874463 -3.63855 
4.9419 -0.629331 -2.85921 2.77409 -0.311853 -1.86806 0.666845 -0.137827 -0.992554 
12.388 0.765627 -3.04448 13.89 0.6663 -3.49422 15.3699 0.682089 -3.81041 
16.6334 0.832029 -3.79504 17.587 1.08183 -3.48864 18.3534 1.39964 -3.0787 
19.0719 1.76337 -2.67824 19.5632 2.16615 -2.18908 19.4758 2.61151 -1.42826 
12.5406 0.0297529 -3.15881 13.9067 -0.933163 -3.41353 14.9206 -1.91712 -3.26239 
15.6962 -2.92573 -2.91073 16.458 -3.9959 -2.76848 17.1023 -5.10375 -2.80809 
17.3459 -6.21387 -2.66248 17.1965 -7.31862 -2.23288 16.8914 -8.34302 -1.70467 
-10.2784 2.27702 4.32715 -7.77891 2.83064 3.90148 -4.68883 3.04644 3.23249 
-1.41032 2.87372 2.81446 1.61956 2.38983 2.81764 4.19109 1.72839 3.00101 
6.27817 1.02898 3.23412 7.95959 0.378762 3.52431 9.38073 -0.210013 3.7475 
-11.2839 2.33422 4.17279 -10.2104 3.12404 3.96255 -9.00657 3.87651 3.80298 
-7.718 4.58949 3.69257 -6.29855 5.26934 3.49849 -4.81076 5.8734 3.23384 
-3.41832 6.35372 3.01845 -2.15506 6.72427 2.81329 -0.941443 7.02577 2.50522 
-11.6644 1.25082 4.32818 -10.8709 0.95003 4.05326 -9.77297 0.705861 3.5618 
-8.56699 0.539813 3.16355 -7.29995 0.422799 3.00891 -5.80801 0.326935 2.96035 
-4.06256 0.203752 2.90187 -2.28091 -0.0625831 2.84233 -0.653513 -0.555641 2.74209 
-13.1645 1.25676 3.90442 -14.2095 0.977853 3.47255 -15.3654 0.822983 3.30845 
-16.5831 0.831554 3.39966 -17.6079 0.940444 3.33734 -18.2561 1.0839 2.87719 
-18.5667 1.26839 2.23771 -18.6433 1.52369 1.70112 -18.5259 1.8476 1.28991 
-13.3357 0.56525 3.99154 -14.3161 -0.502985 3.41901 -15.0248 -1.6344 2.63972 
-15.5106 -2.88577 1.71439 -15.9515 -4.2372 0.807027 -16.5661 -5.55665 0.262541 
-17.3181 -6.77087 0.239412 -17.8907 -7.87192 0.42741 -18.0326 -8.774 0.391995 
10.2171 0.120622 3.78747 9.59351 1.05086 3.74165 8.83447 2.02301 3.60736 
8.00371 2.9896 3.35408 7.06653 3.88441 2.97439 5.94445 4.67045 2.5336 
4.62992 5.38431 2.1834 3.18096 6.07499 2.0357 1.68033 6.72357 2.05355 
10.1429 -1.26215 3.82654 9.5084 -1.77996 3.90957 8.76713 -2.22433 4.02034 
7.91312 -2.54762 4.07444 6.9815 -2.76546 3.9542 6.10148 -2.85671 3.60804 
5.25391 -2.70149 3.13785 4.15653 -2.25738 2.73724 2.61595 -1.6881 2.53266 
11.6476 -0.694023 3.72887 12.6512 -0.54769 3.67929 13.5369 -0.223118 3.78314 
14.2854 0.293876 4.03421 15.0565 0.885366 4.086 16.0107 1.42281 3.56542 
17.0747 1.90625 2.54305 17.9997 2.37068 1.40122 18.5744 2.7752 0.405969 
11.5291 -1.58308 3.74205 12.27 -2.46918 3.74701 12.7973 -3.38266 3.92591 
13.2718 -4.36136 4.10652 14.0157 -5.43047 3.77729 15.1001 -6.5371 2.67976 
16.1149 -7.56753 1.27194 16.621 -8.39463 0.171828 16.6552 -8.92489 -0.550512 
0.29119 7.78593 -2.77697 0.15277 8.38376 -2.29642 0.000199565 8.99003 -1.60367 
-0.211312 9.37618 -0.680423 -0.434582 9.35866 0.269437 -0.514827 9.00431 0.957064 
-0.384526 8.54175 1.33793 -0.150756 8.10686 1.59971 0.0632627 7.69258 1.86802 
2.35664 7.28125 -2.95868 4.4186 7.23624 -2.63138 6.60502 7.09786 -2.28458 
8.92058 6.81372 -2.06674 11.2473 6.42226 -1.93547 13.3223 5.96423 -1.66862 
14.9862 5.39638 -1.1897 16.3485 4.68618 -0.713032 17.5921 3.88379 -0.455789 
-1.63463 7.57304 -2.91019 -3.90105 7.77258 -2.532 -6.18145 7.66452 -2.15224 
-8.35288 7.08872 -1.84708 -10.4198 6.19907 -1.52317 -12.434 5.33586 -1.03852 
-14.3665 4.62465 -0.384086 -16.0621 3.92291 0.270939 -17.3543 3.10607 0.715699 
2.31422 7.14168 1.72151 4.45776 6.95917 1.5068 6.51023 6.79274 1.50926 
8.44591 6.68719 1.55571 10.2438 6.5922 1.59086 11.8123 6.36974 1.78503 
13.2715 5.87349 1.99474 14.9497 5.06201 1.70784 16.8917 4.05899 0.773184 
-1.93389 7.56272 2.40207 -4.17118 7.68557 2.59117 -6.42595 7.60312 2.67059 
-8.7303 7.30604 2.73372 -11.0651 6.74165 2.76907 -13.3098 5.92329 2.67851 
-15.2658 4.99908 2.44061 -16.7252 4.07245 2.05864 -17.6506 3.13561 1.52134 
-0.8326 -0.434909 -0.216056 -0.449233 -0.701568 -0.0319345 -0.0123552 -1.02466 0.133849 
0.415865 -1.42567 0.233821 0.676073 -1.8209 0.376384 0.652057 -2.03959 0.741239 
0.466598 -1.99404 1.31786 0.380092 -1.76329 1.89201 0.513406 -1.48303 2.29355 
2.36906 -0.760067 -1.32249 6.05406 -2.14526 -2.35032 8.90702 -3.84977 -2.59762 
10.7725 -5.35541 -2.16372 12.5545 -6.76679 -2.28736 14.6047 -8.34695 -3.34791 
16.0669 -9.69049 -4.02828 16.4526 -10.1871 -3.41543 16.3826 -9.8481 -2.15655 
-3.97531 -0.593548 0.1492 -6.25593 -1.73963 0.0543167 -8.0527 -3.23518 -0.314171 
-9.74736 -4.5779 -0.529283 -11.4548 -5.70761 -0.627344 -12.939 -6.88302 -0.824927 
-14.1737 -8.08459 -0.942673 -15.4023 -8.9916 -0.71964 -16.6737 -9.39937 -0.296878 
3.28492 -2.40224 2.15399 5.54379 -3.87093 1.79877 7.42668 -5.3996 1.47161 
9.13226 -6.98363 1.04222 10.9703 -8.70483 0.372679 12.8777 -10.2821 -0.411638 
14.4298 -11.1463 -0.979933 15.4071 -11.0398 -1.18302 16.0203 -10.2237 -1.18339 
-2.11953 -0.707244 2.80542 -5.01398 -1.00067 3.06711 -7.29915 -2.17682 3.093 
-9.00883 -3.69115 2.81672 -10.7324 -4.90256 2.36795 -12.6907 -5.82061 1.91647 
-14.4916 -6.83941 1.51693 -15.8566 -7.97078 1.10841 -16.8971 -8.87644 0.60754 
20.3694 1.95479 -0.995963 21.5727 0.801435 -1.16382 21.8415 -0.367147 -0.605715 
21.2546 -1.59941 0.218142 20.5507 -2.99393 0.343532 20.164 -4.48186 -0.409624 
19.6566 -5.81285 -1.13501 18.6285 -6.92003 -1.22553 17.4226 -7.99532 -1.06214 
-18.9118 0.977524 0.400257 -19.6135 -0.337132 -0.164309 -20.2553 -1.61775 -0.698261 
-20.532 -2.96285 -1.24116 -20.3027 -4.55292 -1.84414 -19.9183 -6.24407 -2.21024 
-19.6843 -7.66156 -1.95898 -19.3856 -8.6314 -1.22072 -18.7275 -9.18354 -0.478411 
-9.39111 1.14999 -2.34383 -8.06581 1.98208 -2.73156 -7.27888 1.87211 -2.46411 
-6.61376 2.90917 -3.02213 -5.77389 2.70519 -2.82376 -4.81867 2.55032 -2.61661 
-5.13152 3.89216 -3.17812 -4.21403 3.58094 -3.0702 -3.18548 3.30413 -2.92092 
-1.9708 2.99049 -2.84521 -3.61329 4.80388 -3.33271 -2.62234 4.39535 -3.27785 
-1.52404 4.00479 -3.16066 -0.236435 3.55233 -3.16528 1.1137 3.03887 -3.16935 
-2.07606 5.55015 -3.54442 -1.0157 5.06779 -3.50164 0.108025 4.58851 -3.32563 
1.41069 4.05859 -3.29575 2.76941 3.44915 -3.33694 3.96638 2.83148 -3.20837 
-0.637777 6.12184 -3.66878 0.493726 5.61485 -3.63124 1.60457 5.07909 -3.35719 
2.85243 4.49984 -3.17545 4.19334 3.85632 -3.16902 5.36498 3.191 -3.05368 
6.31771 2.5434 -2.79903 0.613675 6.54496 -3.57613 1.80018 6.06506 -3.54243 
2.89895 5.52463 -3.22451 4.06432 4.90653 -2.90697 5.36532 4.22072 -2.82359 
6.57956 3.51732 -2.7802 7.53057 2.83612 -2.5823 8.35027 2.15397 -2.42522 
-11.9696 0.216909 -2.83505 -12.7273 0.0867361 -3.26303 -10.9625 1.23317 -2.9376 
-13.3338 0.102328 -3.66327 -11.7381 1.27428 -3.25507 -9.69831 2.32104 -3.05484 
-13.9513 0.38807 -3.90042 -12.3436 1.43418 -3.64066 -10.475 2.50471 -3.25555 
-8.29395 3.47629 -3.04492 -14.807 0.997083 -3.6646 -12.9761 1.83201 -3.84047 
-11.0891 2.76404 -3.57078 -9.03963 3.74798 -3.12697 -6.83439 4.63118 -2.96708 
-15.8034 1.75684 -2.77503 -13.8329 2.48229 -3.41038 -11.7585 3.20533 -3.62214 
-9.67543 4.05655 -3.31129 -7.57407 4.97933 -2.94205 -5.38738 5.68298 -2.97744 
-16.6203 2.39107 -1.49079 -14.7845 3.15592 -2.28391 -12.6504 3.78882 -2.95788 
-10.4511 4.48879 -3.14263 -8.33312 5.35773 -2.9314 -6.23468 6.13745 -2.81228 
-4.04026 6.53849 -3.0493 -17.1189 2.8079 -0.252262 -15.5664 3.63097 -0.908908 
-13.6081 4.2964 -1.7013 -11.4552 4.96704 -2.28957 -9.31199 5.80079 -2.50173 
-7.21396 6.62216 -2.53226 -5.0539 7.09604 -2.69642 -2.81137 7.15504 -3.04088 
-16.5901 3.98871 1.28343 -15.4003 4.89094 1.72888 -15.085 4.75672 0.808327 
-13.6966 5.87277 2.07384 -13.7211 5.70786 1.28884 -13.291 5.53286 0.245226 
-11.5684 6.84357 2.3099 -11.9096 6.78959 1.70052 -11.9083 6.65178 0.870188 
-11.38 6.47391 -0.275578 -9.20135 7.55739 2.36936 -9.65961 7.71909 1.92016 
-10.0153 7.77836 1.33278 -9.96247 7.72892 0.42243 -9.3244 7.50224 -0.770909 
-6.79767 7.9275 2.30375 -7.16131 8.24572 1.90346 -7.57564 8.53387 1.47713 
-7.85721 8.70915 0.822019 -7.68205 8.62732 -0.194428 -7.02091 8.2347 -1.31066 
-4.46965 8.05214 2.22168 -4.71428 8.43174 1.81286 -4.97986 8.83855 1.42393 
-5.24743 9.1885 0.907815 -5.3261 9.2798 0.0718279 -5.05714 8.98381 -0.971267 
[...]
POINT_DATA 1002
FIELD FieldData 4
_paraPhi 1 1002 double
6.2831853072 3.1415926536 6.2831853072 3.1415926536 4.7123889804 4.7123889804 1.5707963268 1.5707963268 3.6951670125 
5.7296109483 2.5880182947 0.5535743589 6.2831853072 6.2831853072 6.2831853072 6.2831853072 3.1415926536 3.1415926536 
3.1415926536 3.1415926536 3.1415926536 6.1053039672 5.898798347 5.6768734901 5.4599499503 5.2659633393 5.1032165617 
4.9713148346 4.8656852733 4.7809517865 0.17788134 0.38438696014 0.60631181711 0.82323535693 1.0172219679 1.1799687454 
1.3118704726 1.4175000338 1.5022335207 6.1892828907 6.1070320098 6.035312792 5.9728339911 5.9183214791 5.8706119594 
5.8286879411 5.7916808611 5.7588591896 0.093902416448 0.17615329733 0.2478725152 0.31035131605 0.36486382811 0.41257334776 
0.45449736604 0.4915044461 0.52432611754 3.3194739936 3.5259796137 3.7479044707 3.9648280105 4.1588146215 4.321561399 
4.4534631262 4.5590926874 4.6438261743 2.9637113136 2.7572056934 2.5352808365 2.3183572967 2.1243706857 1.9616239082 
1.829722181 1.7240926197 1.6393591329 3.23549507 3.3177459509 3.3894651688 3.4519439696 3.5064564817 3.5541660013 
3.5960900196 3.6330970997 3.6659187711 3.0476902371 2.9654393563 2.8937201384 2.8312413375 2.7767288255 2.7290193058 
2.6870952876 2.6500882075 2.617266536 6.2831853072 6.2831853072 6.2831853072 6.2831853072 3.1415926536 3.1415926536 
3.1415926536 3.1415926536 3.1415926536 6.1053039672 5.898798347 5.6768734901 5.4599499503 5.2659633393 5.1032165617 
4.9713148346 4.8656852733 4.7809517865 0.17788134 0.38438696014 0.60631181711 0.82323535693 1.0172219679 1.1799687454 
1.3118704726 1.4175000338 1.5022335207 6.1892828907 6.1070320098 6.035312792 5.9728339911 5.9183214791 5.8706119594 
5.8286879411 5.7916808611 5.7588591896 0.093902416448 0.17615329733 0.2478725152 0.31035131605 0.36486382811 0.41257334776 
0.45449736604 0.4915044461 0.52432611754 3.3194739936 3.5259796137 3.7479044707 3.9648280105 4.1588146215 4.321561399 
4.4534631262 4.5590926874 4.6438261743 2.9637113136 2.7572056934 2.5352808365 2.3183572967 2.1243706857 1.9616239082 
1.829722181 1.7240926197 1.6393591329 3.23549507 3.3177459509 3.3894651688 3.4519439696 3.5064564817 3.5541660013 
3.5960900196 3.6330970997 3.6659187711 3.0476902371 2.9654393563 2.8937201384 2.8312413375 2.7767288255 2.7290193058 
2.6870952876 2.6500882075 2.617266536 4.7123889804 4.7123889804 4.7123889804 4.7123889804 4.7123889804 4.7123889804 
4.7123889804 4.7123889804 4.7123889804 4.6087898617 4.4991390697 4.3857031936 4.2712800401 4.1588146215 4.0509635631 
3.94975894 3.8564636551 3.7716124825 4.8159880991 4.9256388911 5.0390747672 5.1534979207 5.2659633393 5.3738143976 
5.4750190208 5.5683143056 5.6531654782 4.6087898617 4.4991390697 4.3857031936 4.2712800401 4.1588146215 4.0509635631 
3.94975894 3.8564636551 3.7716124825 4.8159880991 4.9256388911 5.0390747672 5.1534979207 5.2659633393 5.3738143976 
5.4750190208 5.5683143056 5.6531654782 1.5707963268 1.5707963268 1.5707963268 1.5707963268 1.5707963268 1.5707963268 
1.5707963268 1.5707963268 1.5707963268 1.6743954455 1.7840462375 1.8974821136 2.0119052671 2.1243706857 2.232221744 
2.3334263672 2.426721652 2.5115728246 1.4671972081 1.3575464161 1.24411054 1.1296873865 1.0172219679 0.90937090954 
0.80816628637 0.71487100155 0.63001982895 1.6743954455 1.7840462375 1.8974821136 2.0119052671 2.1243706857 2.232221744 
2.3334263672 2.426721652 2.5115728246 1.4671972081 1.3575464161 1.24411054 1.1296873865 1.0172219679 0.90937090954 
0.80816628637 0.71487100155 0.63001982895 3.6007720849 3.4966939854 3.3839471039 3.2645756454 3.1415926536 3.0186096618 
2.8992382033 2.7864913217 2.6824132222 5.8240058758 5.9280839753 6.0408308569 6.1602023154 6.2831853072 0.12298299178 
0.2423544503 0.35510133185 0.45917943135 6.0560271438 5.7885595667 5.9702140275 5.5125918794 5.6029703303 5.7885595667 
5.2659633393 5.2659633393 5.2659633393 5.2659633393 5.0674903122 5.0120975802 4.9155579264 4.7123889804 4.1588146215 
4.9155579264 4.8353719722 4.7123889804 4.5092200343 4.1588146215 3.6362183941 4.8004512023 4.7123889804 4.5894059886 
4.4126803806 4.1588146215 3.8218076305 3.4545639333 4.7123889804 4.6243267584 4.5092200343 4.3572876485 4.1588146215 
3.9121860814 3.6362183941 3.368750817 6.0174235957 5.9434319871 5.8263323547 5.8809213739 5.7674481418 5.6279784266 
5.8278025282 5.718968232 5.5891129425 5.4372443565 5.7823484065 5.678536687 5.5575666702 5.4192596322 5.2659633393 
5.743164462 5.6444075337 5.5314983644 5.4046708639 5.2659633393 5.1195510325 5.7091357773 5.6152775188 5.5096229709 
5.3926039573 5.2659633393 5.1329233157 4.9978930058 5.6793730533 5.5901633916 5.4910209005 5.3824597928 5.2659633393 
5.1440684722 5.0201624502 4.8979782167 5.5683143056 5.4750190208 5.4750190208 5.3738143976 5.3738143976 5.3738143976 
5.2659633393 5.2659633393 5.2659633393 5.2659633393 5.1534979207 5.1534979207 5.1534979207 5.1534979207 5.1534979207 
5.0390747672 5.0390747672 5.0390747672 5.0390747672 5.0390747672 5.0390747672 4.9256388911 4.9256388911 4.9256388911 
4.9256388911 4.9256388911 4.9256388911 4.9256388911 4.8159880991 4.8159880991 4.8159880991 4.8159880991 4.8159880991 
4.8159880991 4.8159880991 4.8159880991 4.6087898617 4.6087898617 4.4991390697 4.6087898617 4.4991390697 4.3857031936 
4.6087898617 4.4991390697 4.3857031936 4.2712800401 4.6087898617 4.4991390697 4.3857031936 4.2712800401 4.1588146215 
4.6087898617 4.4991390697 4.3857031936 4.2712800401 4.1588146215 4.0509635631 4.6087898617 4.4991390697 4.3857031936 
4.2712800401 4.1588146215 4.0509635631 3.94975894 4.6087898617 4.4991390697 4.3857031936 4.2712800401 4.1588146215 
4.0509635631 3.94975894 3.8564636551 4.526799744 4.4046155105 4.426884955 4.2807094886 4.2918546451 4.3052269283 
4.1588146215 4.1588146215 4.1588146215 4.1588146215 4.042318168 4.0321740035 4.0201070968 4.0055183285 3.9875336042 
3.9337570603 3.9151549899 3.8932795963 3.8672112905 3.8356650183 3.7967995342 3.8346145692 3.809500442 3.7803704271 
3.7462412737 3.7058097288 3.657329819 3.5984456061 3.7454049075 3.7156421835 3.6816134988 3.6424295543 3.5969754326 
3.5438565869 3.4813459737 3.4073543651 3.5642842451 3.4524645613 3.5233842518 3.3320300872 3.403123212 3.4773852225 
3.20576226 3.2746326772 3.348015857 3.4255060145 3.0774230472 3.1415926536 3.2112816139 3.2864685043 3.3668817272 
2.95115522 3.00855263 3.0719036933 3.1415926536 3.2178377658 3.3005964304 2.8307207459 2.8800620952 2.9351694502 
2.9967168029 3.0653475414 3.1415926536 3.225752376 2.718901062 2.7598010554 2.8058000847 2.8576792927 2.91630358 
2.9825888767 3.0574329311 3.1415926536 3.5642842451 3.5233842518 3.4524645613 3.4773852225 3.403123212 3.3320300872 
3.4255060145 3.348015857 3.2746326772 3.20576226 3.3668817272 3.2864685043 3.2112816139 3.1415926536 3.0774230472 
3.3005964304 3.2178377658 3.1415926536 3.0719036933 3.00855263 2.95115522 3.225752376 3.1415926536 3.0653475414 
2.9967168029 2.9351694502 2.8800620952 2.8307207459 3.1415926536 3.0574329311 2.9825888767 2.91630358 2.8576792927 
2.8058000847 2.7598010554 2.718901062 4.526799744 4.426884955 4.4046155105 4.3052269283 4.2918546451 4.2807094886 
4.1588146215 4.1588146215 4.1588146215 4.1588146215 3.9875336042 4.0055183285 4.0201070968 4.0321740035 4.042318168 
3.7967995342 3.8356650183 3.8672112905 3.8932795963 3.9151549899 3.9337570603 3.5984456061 3.657329819 3.7058097288 
3.7462412737 3.7803704271 3.809500442 3.8346145692 3.4073543651 3.4813459737 3.5438565869 3.5969754326 3.6424295543 
3.6816134988 3.7156421835 3.7454049075 4.7123889804 4.8004512023 4.6243267584 4.9155579264 4.7123889804 4.5092200343 
5.0674903122 4.8353719722 4.5894059886 4.3572876485 5.2659633393 5.0120975802 4.7123889804 4.4126803806 4.1588146215 
5.5125918794 5.2659633393 4.9155579264 4.5092200343 4.1588146215 3.9121860814 5.7885595667 5.6029703303 5.2659633393 
4.7123889804 4.1588146215 3.8218076305 3.6362183941 6.0560271438 5.9702140275 5.7885595667 5.2659633393 4.1588146215 
3.6362183941 3.4545639333 3.368750817 0.22715816343 0.49462574053 0.3129712797 0.77059342779 0.68021497688 0.49462574053 
1.0172219679 1.0172219679 1.0172219679 1.0172219679 1.2156949949 1.271087727 1.3676273807 1.5707963268 2.1243706857 
1.3676273807 1.447813335 1.5707963268 1.7739652728 2.1243706857 2.6469669131 1.4827341049 1.5707963268 1.6937793186 
1.8705049266 2.1243706857 2.4613776767 2.8286213739 1.5707963268 1.6588585487 1.7739652728 1.9258976586 2.1243706857 
2.3709992258 2.6469669131 2.9144344902 1.7563855631 1.8785697967 1.8563003522 2.0024758186 1.9913306621 1.9779583789 
2.1243706857 2.1243706857 2.1243706857 2.1243706857 2.2408671392 2.2510113037 2.2630782103 2.2776669786 2.295651703 
2.3494282469 2.3680303173 2.3899057108 2.4159740166 2.4475202889 2.486385773 2.448570738 2.4736848652 2.5028148801 
2.5369440334 2.5773755784 2.6258554882 2.6847397011 2.5377803997 2.5675431237 2.6015718084 2.6407557529 2.6862098746 
2.7393287203 2.8018393335 2.8758309421 1.6743954455 1.6743954455 1.7840462375 1.6743954455 1.7840462375 1.8974821136 
1.6743954455 1.7840462375 1.8974821136 2.0119052671 1.6743954455 1.7840462375 1.8974821136 2.0119052671 2.1243706857 
1.6743954455 1.7840462375 1.8974821136 2.0119052671 2.1243706857 2.232221744 1.6743954455 1.7840462375 1.8974821136 
2.0119052671 2.1243706857 2.232221744 2.3334263672 1.6743954455 1.7840462375 1.8974821136 2.0119052671 2.1243706857 
2.232221744 2.3334263672 2.426721652 1.4671972081 1.3575464161 1.4671972081 1.24411054 1.3575464161 1.4671972081 
1.1296873865 1.24411054 1.3575464161 1.4671972081 1.0172219679 1.1296873865 1.24411054 1.3575464161 1.4671972081 
0.90937090954 1.0172219679 1.1296873865 1.24411054 1.3575464161 1.4671972081 0.80816628637 0.90937090954 1.0172219679 
1.1296873865 1.24411054 1.3575464161 1.4671972081 0.71487100155 0.80816628637 0.90937090954 1.0172219679 1.1296873865 
1.24411054 1.3575464161 1.4671972081 0.60381225391 0.57404952988 0.69302191562 0.54002084522 0.66790778838 0.79216440667 
0.50083690068 0.63877777351 0.77356233629 0.90072551443 0.45538277901 0.60464862014 0.75168694275 0.89058134991 1.0172219679 
0.40226393329 0.56421707518 0.72561863695 0.87851444325 1.0172219679 1.139116835 0.33975332011 0.51573716537 0.69407236469 
0.86392567495 1.0172219679 1.1502619915 1.2630228569 0.26576171152 0.45685295248 0.6552068806 0.84594095064 1.0172219679 
1.1636342747 1.2852923014 1.3852070904 0.22715816343 0.3129712797 0.49462574053 0.49462574053 0.68021497688 0.77059342779 
1.0172219679 1.0172219679 1.0172219679 1.0172219679 2.1243706857 1.5707963268 1.3676273807 1.271087727 1.2156949949 
2.6469669131 2.1243706857 1.7739652728 1.5707963268 1.447813335 1.3676273807 2.8286213739 2.4613776767 2.1243706857 
1.8705049266 1.6937793186 1.5707963268 1.4827341049 2.9144344902 2.6469669131 2.3709992258 2.1243706857 1.9258976586 
1.7739652728 1.6588585487 1.5707963268 1.7563855631 1.8563003522 1.8785697967 1.9779583789 1.9913306621 2.0024758186 
2.1243706857 2.1243706857 2.1243706857 2.1243706857 2.295651703 2.2776669786 2.2630782103 2.2510113037 2.2408671392 
2.486385773 2.4475202889 2.4159740166 2.3899057108 2.3680303173 2.3494282469 2.6847397011 2.6258554882 2.5773755784 
2.5369440334 2.5028148801 2.4736848652 2.448570738 2.8758309421 2.8018393335 2.7393287203 2.6862098746 2.6407557529 
2.6015718084 2.5675431237 2.5377803997 5.8604937156 5.901393709 5.9723133995 5.9473927383 6.0216547488 6.0927478736 
5.9992719463 6.0767621038 6.1501452836 6.2190157008 6.0578962336 6.1383094565 6.2134963469 0 0.064169606361 
6.1241815303 6.206940195 6.2831853072 0.069688960264 0.13304002361 0.19043743361 6.1990255847 0 0.07624511221 
0.14487585072 0.20642320337 0.26153055843 0.3108719077 0 0.084159722458 0.15900377685 0.22528907359 0.28391336087 
0.3357925689 0.38179159818 0.42269159155 5.8604937156 5.9723133995 5.901393709 6.0927478736 6.0216547488 5.9473927383 
6.2190157008 6.1501452836 6.0767621038 5.9992719463 0.064169606361 0 6.2134963469 6.1383094565 6.0578962336 
0.19043743361 0.13304002361 0.069688960264 6.2831853072 6.206940195 6.1241815303 0.3108719077 0.26153055843 0.20642320337 
0.14487585072 0.07624511221 6.2831853072 6.1990255847 0.42269159155 0.38179159818 0.3357925689 0.28391336087 0.22528907359 
0.15900377685 0.084159722458 0 5.6793730533 5.7091357773 5.5901633916 5.743164462 5.6152775188 5.4910209005 
5.7823484065 5.6444075337 5.5096229709 5.3824597928 5.8278025282 5.678536687 5.5314983644 5.3926039573 5.2659633393 
5.8809213739 5.718968232 5.5575666702 5.4046708639 5.2659633393 5.1440684722 5.9434319871 5.7674481418 5.5891129425 
5.4192596322 5.2659633393 5.1329233157 5.0201624502 6.0174235957 5.8263323547 5.6279784266 5.4372443565 5.2659633393 
5.1195510325 4.9978930058 4.8979782167 1.3852070904 1.2852923014 1.2630228569 1.1636342747 1.1502619915 1.139116835 
1.0172219679 1.0172219679 1.0172219679 1.0172219679 0.84594095064 0.86392567495 0.87851444325 0.89058134991 0.90072551443 
0.6552068806 0.69407236469 0.72561863695 0.75168694275 0.77356233629 0.79216440667 0.45685295248 0.51573716537 0.56421707518 
0.60464862014 0.63877777351 0.66790778838 0.69302191562 0.26576171152 0.33975332011 0.40226393329 0.45538277901 0.50083690068 
0.54002084522 0.57404952988 0.60381225391 
_paraPhiHalf 1 1002 double
0 3.1415926536 0 3.1415926536 1.5707963268 1.5707963268 1.5707963268 1.5707963268 2.5880182947 
0.5535743589 2.5880182947 0.5535743589 0 0 0 0 3.1415926536 3.1415926536 
3.1415926536 3.1415926536 3.1415926536 0.17788134 0.38438696014 0.60631181711 0.82323535693 1.0172219679 1.1799687454 
1.3118704726 1.4175000338 1.5022335207 0.17788134 0.38438696014 0.60631181711 0.82323535693 1.0172219679 1.1799687454 
1.3118704726 1.4175000338 1.5022335207 0.093902416448 0.17615329733 0.2478725152 0.31035131605 0.36486382811 0.41257334776 
0.45449736604 0.4915044461 0.52432611754 0.093902416448 0.17615329733 0.2478725152 0.31035131605 0.36486382811 0.41257334776 
0.45449736604 0.4915044461 0.52432611754 2.9637113136 2.7572056934 2.5352808365 2.3183572967 2.1243706857 1.9616239082 
1.829722181 1.7240926197 1.6393591329 2.9637113136 2.7572056934 2.5352808365 2.3183572967 2.1243706857 1.9616239082 
1.829722181 1.7240926197 1.6393591329 3.0476902371 2.9654393563 2.8937201384 2.8312413375 2.7767288255 2.7290193058 
2.6870952876 2.6500882075 2.617266536 3.0476902371 2.9654393563 2.8937201384 2.8312413375 2.7767288255 2.7290193058 
2.6870952876 2.6500882075 2.617266536 0 0 0 0 3.1415926536 3.1415926536 
3.1415926536 3.1415926536 3.1415926536 0.17788134 0.38438696014 0.60631181711 0.82323535693 1.0172219679 1.1799687454 
1.3118704726 1.4175000338 1.5022335207 0.17788134 0.38438696014 0.60631181711 0.82323535693 1.0172219679 1.1799687454 
1.3118704726 1.4175000338 1.5022335207 0.093902416448 0.17615329733 0.2478725152 0.31035131605 0.36486382811 0.41257334776 
0.45449736604 0.4915044461 0.52432611754 0.093902416448 0.17615329733 0.2478725152 0.31035131605 0.36486382811 0.41257334776 
0.45449736604 0.4915044461 0.52432611754 2.9637113136 2.7572056934 2.5352808365 2.3183572967 2.1243706857 1.9616239082 
1.829722181 1.7240926197 1.6393591329 2.9637113136 2.7572056934 2.5352808365 2.3183572967 2.1243706857 1.9616239082 
1.829722181 1.7240926197 1.6393591329 3.0476902371 2.9654393563 2.8937201384 2.8312413375 2.7767288255 2.7290193058 
2.6870952876 2.6500882075 2.617266536 3.0476902371 2.9654393563 2.8937201384 2.8312413375 2.7767288255 2.7290193058 
2.6870952876 2.6500882075 2.617266536 1.5707963268 1.5707963268 1.5707963268 1.5707963268 1.5707963268 1.5707963268 
1.5707963268 1.5707963268 1.5707963268 1.6743954455 1.7840462375 1.8974821136 2.0119052671 2.1243706857 2.232221744 
2.3334263672 2.426721652 2.5115728246 1.4671972081 1.3575464161 1.24411054 1.1296873865 1.0172219679 0.90937090954 
0.80816628637 0.71487100155 0.63001982895 1.6743954455 1.7840462375 1.8974821136 2.0119052671 2.1243706857 2.232221744 
2.3334263672 2.426721652 2.5115728246 1.4671972081 1.3575464161 1.24411054 1.1296873865 1.0172219679 0.90937090954 
0.80816628637 0.71487100155 0.63001982895 1.5707963268 1.5707963268 1.5707963268 1.5707963268 1.5707963268 1.5707963268 
1.5707963268 1.5707963268 1.5707963268 1.6743954455 1.7840462375 1.8974821136 2.0119052671 2.1243706857 2.232221744 
2.3334263672 2.426721652 2.5115728246 1.4671972081 1.3575464161 1.24411054 1.1296873865 1.0172219679 0.90937090954 
0.80816628637 0.71487100155 0.63001982895 1.6743954455 1.7840462375 1.8974821136 2.0119052671 2.1243706857 2.232221744 
2.3334263672 2.426721652 2.5115728246 1.4671972081 1.3575464161 1.24411054 1.1296873865 1.0172219679 0.90937090954 
0.80816628637 0.71487100155 0.63001982895 2.6824132222 2.7864913217 2.8992382033 3.0186096618 3.1415926536 3.0186096618 
2.8992382033 2.7864913217 2.6824132222 0.45917943135 0.35510133185 0.2423544503 0.12298299178 0 0.12298299178 
0.2423544503 0.35510133185 0.45917943135 0.22715816343 0.49462574053 0.3129712797 0.77059342779 0.68021497688 0.49462574053 
1.0172219679 1.0172219679 1.0172219679 1.0172219679 1.2156949949 1.271087727 1.3676273807 1.5707963268 2.1243706857 
1.3676273807 1.447813335 1.5707963268 1.7739652728 2.1243706857 2.6469669131 1.4827341049 1.5707963268 1.6937793186 
1.8705049266 2.1243706857 2.4613776767 2.8286213739 1.5707963268 1.6588585487 1.7739652728 1.9258976586 2.1243706857 
2.3709992258 2.6469669131 2.9144344902 0.26576171152 0.33975332011 0.45685295248 0.40226393329 0.51573716537 0.6552068806 
0.45538277901 0.56421707518 0.69407236469 0.84594095064 0.50083690068 0.60464862014 0.72561863695 0.86392567495 1.0172219679 
0.54002084522 0.63877777351 0.75168694275 0.87851444325 1.0172219679 1.1636342747 0.57404952988 0.66790778838 0.77356233629 
0.89058134991 1.0172219679 1.1502619915 1.2852923014 0.60381225391 0.69302191562 0.79216440667 0.90072551443 1.0172219679 
1.139116835 1.2630228569 1.3852070904 0.71487100155 0.80816628637 0.80816628637 0.90937090954 0.90937090954 0.90937090954 
1.0172219679 1.0172219679 1.0172219679 1.0172219679 1.1296873865 1.1296873865 1.1296873865 1.1296873865 1.1296873865 
1.24411054 1.24411054 1.24411054 1.24411054 1.24411054 1.24411054 1.3575464161 1.3575464161 1.3575464161 
1.3575464161 1.3575464161 1.3575464161 1.3575464161 1.4671972081 1.4671972081 1.4671972081 1.4671972081 1.4671972081 
1.4671972081 1.4671972081 1.4671972081 1.6743954455 1.6743954455 1.7840462375 1.6743954455 1.7840462375 1.8974821136 
1.6743954455 1.7840462375 1.8974821136 2.0119052671 1.6743954455 1.7840462375 1.8974821136 2.0119052671 2.1243706857 
1.6743954455 1.7840462375 1.8974821136 2.0119052671 2.1243706857 2.232221744 1.6743954455 1.7840462375 1.8974821136 
2.0119052671 2.1243706857 2.232221744 2.3334263672 1.6743954455 1.7840462375 1.8974821136 2.0119052671 2.1243706857 
2.232221744 2.3334263672 2.426721652 1.7563855631 1.8785697967 1.8563003522 2.0024758186 1.9913306621 1.9779583789 
2.1243706857 2.1243706857 2.1243706857 2.1243706857 2.2408671392 2.2510113037 2.2630782103 2.2776669786 2.295651703 
2.3494282469 2.3680303173 2.3899057108 2.4159740166 2.4475202889 2.486385773 2.448570738 2.4736848652 2.5028148801 
2.5369440334 2.5773755784 2.6258554882 2.6847397011 2.5377803997 2.5675431237 2.6015718084 2.6407557529 2.6862098746 
2.7393287203 2.8018393335 2.8758309421 2.718901062 2.8307207459 2.7598010554 2.95115522 2.8800620952 2.8058000847 
3.0774230472 3.00855263 2.9351694502 2.8576792927 3.0774230472 3.1415926536 3.0719036933 2.9967168029 2.91630358 
2.95115522 3.00855263 3.0719036933 3.1415926536 3.0653475414 2.9825888767 2.8307207459 2.8800620952 2.9351694502 
2.9967168029 3.0653475414 3.1415926536 3.0574329311 2.718901062 2.7598010554 2.8058000847 2.8576792927 2.91630358 
2.9825888767 3.0574329311 3.1415926536 2.718901062 2.7598010554 2.8307207459 2.8058000847 2.8800620952 2.95115522 
2.8576792927 2.9351694502 3.00855263 3.0774230472 2.91630358 2.9967168029 3.0719036933 3.1415926536 3.0774230472 
2.9825888767 3.0653475414 3.1415926536 3.0719036933 3.00855263 2.95115522 3.0574329311 3.1415926536 3.0653475414 