# vtk DataFile Version 5.1
vtk output
ASCII
DATASET POLYDATA
POINTS 100 float
-104.41 -101.128 104.636 -104.418 -101.179 104.627 -104.446 -101.327 104.598 
-104.496 -101.561 104.549 -104.568 -101.868 104.482 -104.664 -102.227 104.401 
-104.787 -102.616 104.307 -104.939 -103.015 104.202 -105.121 -103.404 104.089 
-105.334 -103.767 103.968 -105.579 -104.093 103.841 -105.854 -104.378 103.705 
-106.158 -104.622 103.561 -106.488 -104.83 103.405 -106.84 -105.011 103.237 
-107.212 -105.177 103.052 -107.597 -105.339 102.85 -107.992 -105.51 102.628 
-108.391 -105.697 102.386 -108.791 -105.906 102.124 -109.188 -106.142 101.842 
-109.579 -106.402 101.544 -109.962 -106.684 101.23 -110.336 -106.982 100.904 
-110.701 -107.291 100.57 -111.058 -107.604 100.23 -111.407 -107.919 99.8871 
-111.749 -108.231 99.5439 -112.087 -108.543 99.2017 -112.422 -108.855 98.8613 
-112.755 -109.173 98.523 -113.087 -109.502 98.1863 -113.421 -109.849 97.8504 
-113.756 -110.22 97.5142 -114.092 -110.62 97.1769 -114.431 -111.051 96.8375 
-114.772 -111.517 96.4955 -115.114 -112.016 96.1508 -115.459 -112.548 95.8035 
-115.804 -113.109 95.4543 -116.15 -113.698 95.1037 -116.497 -114.314 94.7528 
-116.842 -114.954 94.4023 -117.184 -115.622 94.0527 -117.521 -116.32 93.7045 
-117.85 -117.052 93.3577 -118.167 -117.826 93.0119 -118.469 -118.645 92.6666 
-118.75 -119.517 92.321 -119.005 -120.443 91.9744 -119.231 -121.426 91.6262 
-119.421 -122.464 91.2757 -119.573 -123.551 90.923 -119.683 -124.678 90.5682 
-119.751 -125.834 90.2118 -119.775 -127.005 89.8549 -119.757 -128.176 89.4986 
-119.701 -129.332 89.1441 -119.61 -130.458 88.7927 -119.489 -131.542 88.4457 
-119.345 -132.573 88.1038 -119.183 -133.544 87.7678 -119.01 -134.451 87.4379 
-118.832 -135.292 87.1141 -118.652 -136.067 86.796 -118.474 -136.779 86.4833 
-118.301 -137.432 86.1755 -118.134 -138.029 85.872 -117.973 -138.575 85.5728 
-117.817 -139.074 85.2779 -117.665 -139.529 84.9876 -117.515 -139.943 84.7029 
-117.367 -140.319 84.4249 -117.22 -140.661 84.1549 -117.073 -140.97 83.8945 
-116.927 -141.253 83.6454 -116.785 -141.512 83.4092 -116.648 -141.754 83.1875 
-116.519 -141.985 82.9815 -116.4 -142.209 82.792 -116.296 -142.431 82.6198 
-116.207 -142.656 82.465 -116.136 -142.886 82.3276 -116.084 -143.12 82.2072 
-116.05 -143.359 82.1031 -116.033 -143.598 82.0144 -116.031 -143.832 81.9401 
-116.042 -144.056 81.8791 -116.062 -144.265 81.8301 -116.089 -144.453 81.7917 
-116.119 -144.615 81.7626 -116.149 -144.749 81.7415 -116.178 -144.855 81.727 
-116.204 -144.934 81.7177 -116.225 -144.988 81.7122 -116.243 -145.023 81.7095 
-116.255 -145.043 81.7084 -116.264 -145.053 81.7079 -116.269 -145.056 81.7075 
-116.27 -145.056 81.7067 
LINES 2 100
OFFSETS vtktypeint64
0 100 
CONNECTIVITY vtktypeint64
0 1 2 3 4 5 6 7 8 
9 10 11 12 13 14 15 16 17 
18 19 20 21 22 23 24 25 26 
27 28 29 30 31 32 33 34 35 
36 37 38 39 40 41 42 43 44 
45 46 47 48 49 50 51 52 53 
54 55 56 57 58 59 60 61 62 
63 64 65 66 67 68 69 70 71 
72 73 74 75 76 77 78 79 80 
81 82 83 84 85 86 87 88 89 
90 91 92 93 94 95 96 97 98 
99 
POINT_DATA 100
FIELD FieldData 3
_theta 1 100 double
0 0.031733259127 0.063466518254 0.095199777382 0.12693303651 0.15866629564 0.19039955476 0.22213281389 0.25386607302 
0.28559933214 0.31733259127 0.3490658504 0.38079910953 0.41253236865 0.44426562778 0.47599888691 0.50773214603 0.53946540516 
0.57119866429 0.60293192342 0.63466518254 0.66639844167 0.6981317008 0.72986495992 0.76159821905 0.79333147818 0.82506473731 
0.85679799643 0.88853125556 0.92026451469 0.95199777382 0.98373103294 1.0154642921 1.0471975512 1.0789308103 1.1106640695 
1.1423973286 1.1741305877 1.2058638468 1.237597106 1.2693303651 1.3010636242 1.3327968833 1.3645301425 1.3962634016 
1.4279966607 1.4597299198 1.491463179 1.5231964381 1.5549296972 1.5866629564 1.6183962155 1.6501294746 1.6818627337 
1.7135959929 1.745329252 1.7770625111 1.8087957702 1.8405290294 1.8722622885 1.9039955476 1.9357288068 1.9674620659 
1.999195325 2.0309285841 2.0626618433 2.0943951024 2.1261283615 2.1578616206 2.1895948798 2.2213281389 2.253061398 
2.2847946572 2.3165279163 2.3482611754 2.3799944345 2.4117276937 2.4434609528 2.4751942119 2.506927471 2.5386607302 
2.5703939893 2.6021272484 2.6338605076 2.6655937667 2.6973270258 2.7290602849 2.7607935441 2.7925268032 2.8242600623 
2.8559933214 2.8877265806 2.9194598397 2.9511930988 2.982926358 3.0146596171 3.0463928762 3.0781261353 3.1098593945 
3.1415926536 
_radius 1 100 double
2.5221765084e-13 0.35649175568 0.71344119925 1.0709871522 1.4287740832 1.7856828183 2.1395316524 2.4867931455 2.8224385615 
3.1400612034 3.4323727143 3.6920304951 3.9126359695 4.0897052864 4.2214448245 4.3092244526 4.3577022681 4.3745973372 
4.3701198401 4.3560512191 4.3444483355 4.3459883475 4.3681500612 4.4137648245 4.4807351927 4.5633052328 4.6541982804 
4.7464844585 4.8345981958 4.914557525 4.9837051391 5.0403423864 5.0835132421 5.1129646274 5.1291584906 5.1332364135 
5.1269267828 5.1124153291 5.0921632494 5.068614007 5.0437537146 5.0186334314 4.9931479128 4.9663211259 4.9369859321 
4.9044727728 4.8690261416 4.831914605 4.7953308507 4.7621892553 4.7359150129 4.7202991787 4.7194156689 4.7375145725 
4.7788408603 4.8473600819 4.9462805499 5.0772748568 5.2395239582 5.4289171006 5.637931022 5.8566738665 6.0747671017 
6.2830277862 6.474361471 6.6440159863 6.7895330986 6.9105640082 7.008547845 7.0862168425 7.1469483163 7.1940498811 
7.23009253 7.2563917069 7.272695624 7.2770952387 7.2661439776 7.2351728337 7.1787852945 7.091492566 6.968408243 
6.8058908464 6.6020243683 6.3568614077 6.0724046698 5.752351676 5.4016621818 5.0260246658 4.6313006303 4.2230186651 
3.805977246 3.3839959737 2.9598293638 2.5352289677 2.1111155175 1.6878092606 1.2652656692 0.84327339724 0.42158855805 
2.5618982672e-13 
_area 1 100 double
0 0.27890760201 1.139460796 2.6421479738 4.8573182336 7.8362334218 11.589527054 16.073489827 21.18105699 
26.737811083 32.50749291 38.210303923 43.551865739 48.256714317 52.099611321 54.929268414 56.681956158 57.388092048 
57.183842757 56.330863232 55.217173738 54.311065447 54.053329891 54.704350979 56.241515809 58.404057109 60.84644122 
63.275950824 65.513881965 67.495080078 69.224060562 70.721569125 72.000512461 73.068888402 73.935031594 74.608121231 
75.104006892 75.463414542 75.773877431 76.173107112 76.809138298 77.756016384 78.954456753 80.256204224 81.503741654 
82.569545808 83.380078992 83.930569955 84.293376046 84.640389157 85.306699055 86.638083515 88.444866564 90.345529702 
92.136211896 93.775476742 95.363231967 97.135188105 99.455515725 102.69236779 107.06751901 112.69119281 119.56971838 
127.51543309 136.10902842 144.71961502 152.61939468 159.20371664 164.14613829 167.41965206 169.23434868 169.93043655 
169.85002961 169.22517971 168.11509298 166.39828173 163.81888837 160.07596502 154.92045769 148.22815079 140.03486186 
130.53007578 120.01363458 108.83081573 97.309857774 85.725859617 74.300546891 63.225338635 52.684355518 42.861616765 
33.930527555 26.032990311 19.25860418 13.633009098 9.1200614336 5.6370899456 3.0780461735 1.337514982 0.32972398131 
0 
