# vtk DataFile Version 5.1
vtk output
ASCII
DATASET POLYDATA
POINTS 1002 float
-12.8489 -0.140931 -2.53209 12.4664 0.0204279 -4.76811 -12.0901 1.18283 4.37566 
11.2072 -0.673478 3.77472 0.311658 7.49605 -2.1661 -0.0989947 7.23221 2.39322 
-0.866873 -0.564652 0.680703 1.17428 -1.92467 2.82535 19.805 2.2408 -0.976679 
-18.3611 2.07461 -1.1127 19.8173 -8.3266 -3.13578 -18.1156 -9.82257 -1.73603 
-11.6388 0.656178 -1.44232 -9.80675 1.44572 -0.645585 -7.28232 2.14618 -0.364439 
-4.23424 2.64471 -0.506177 -0.822886 2.75012 -1.02581 2.86019 2.33807 -2.14353 
6.42621 1.58064 -3.70769 9.26495 0.839975 -4.92472 11.1684 0.33114 -5.21225 
-12.3389 0.675674 -2.16381 -11.6582 1.58786 -1.73978 -10.7649 2.56463 -1.25249 
-9.56998 3.51439 -0.769277 -7.99511 4.3683 -0.49392 -6.09955 5.15045 -0.627179 
-4.10158 5.89606 -1.11976 -2.2679 6.56916 -1.68048 -0.785564 7.11035 -2.04858 
-12.6219 -0.415074 -2.13024 -12.2139 -0.64271 -1.67397 -11.544 -0.792989 -1.23463 
-10.6303 -0.808312 -0.769918 -9.55369 -0.684402 -0.208643 -8.31912 -0.527726 0.352345 
-6.84279 -0.440017 0.721262 -5.07129 -0.414714 0.851498 -3.04054 -0.434292 0.822975 
-13.5406 -0.403296 -3.37574 -14.2972 -0.531545 -3.87762 -15.1584 -0.448269 -3.94106 
-15.929 -0.141684 -3.95276 -16.459 0.35415 -4.21894 -16.9596 0.957406 -4.33819 
-17.6475 1.50013 -3.79631 -18.3038 1.83445 -2.78106 -18.565 1.98134 -1.81737 
-13.6557 -1.17648 -3.49575 -14.3577 -2.37351 -4.46354 -15.07 -3.70475 -5.15404 
-15.9601 -5.10782 -5.33375 -16.9971 -6.52632 -5.06502 -17.8191 -7.91919 -4.59717 
-18.1363 -9.16467 -4.00799 -18.1082 -10.0112 -3.25125 -18.0678 -10.2333 -2.42975 
12.0076 0.60917 -5.11623 11.5509 1.38359 -5.43091 10.979 2.31301 -5.63381 
9.91967 3.26632 -5.44687 8.24102 4.12349 -4.74982 6.37465 4.87512 -3.8937 
4.73445 5.57319 -3.28976 3.25115 6.25226 -2.92858 1.756 6.90746 -2.58407 
12.144 -0.289008 -4.717 11.6115 -0.505785 -4.47915 10.6795 -0.654867 -3.97306 
9.37615 -0.762208 -3.2933 7.96597 -0.791915 -2.62504 6.52557 -0.701396 -1.96736 
4.83609 -0.549129 -1.19856 2.85948 -0.450595 -0.38727 0.877321 -0.460456 0.264285 
13.4235 0.118058 -4.35256 14.592 0.24672 -4.0512 15.8724 0.365085 -3.98574 
17.0033 0.525118 -3.97604 17.9029 0.806565 -3.79199 18.7263 1.16429 -3.45156 
19.5009 1.48356 -3.03475 20.0193 1.74824 -2.47492 20.1148 2.00287 -1.74483 
13.4689 -0.481937 -4.02703 14.4795 -1.13209 -3.16494 15.4263 -2.02711 -2.47116 
16.4464 -3.10276 -2.35207 17.8343 -4.21736 -3.06402 19.4256 -5.36158 -4.22516 
20.5186 -6.53834 -4.96064 20.7348 -7.54246 -4.80589 20.3635 -8.14031 -4.04058 
-10.5924 1.93299 5.11567 -8.46117 2.54241 5.34751 -5.50262 2.77948 4.83137 
-2.08657 2.60323 4.05792 1.00823 2.17813 3.8088 3.44924 1.64645 4.08318 
5.59672 1.03693 4.21741 7.73231 0.391421 3.99107 9.67706 -0.198601 3.76154 
-11.5511 2.02414 4.87998 -10.7235 2.97628 5.24753 -9.54714 3.8891 5.32757 
-8.13846 4.61485 5.07612 -6.6554 5.17346 4.57119 -5.14961 5.70423 3.98088 
-3.65896 6.24462 3.47262 -2.28678 6.70539 3.08564 -1.10606 7.02709 2.7453 
-11.6543 0.925278 4.35028 -11.0766 0.756146 4.33294 -10.38 0.589973 4.40919 
-9.4946 0.360027 4.54216 -8.20101 0.164695 4.51446 -6.39181 0.087288 4.18023 
-4.32807 -0.0518466 3.69945 -2.35602 -0.476987 3.31906 -0.547182 -1.15966 3.06977 
-13.1049 0.945731 3.79396 -14.1419 0.796642 3.15764 -15.2598 0.725479 2.65305 
-16.3747 0.723855 2.33435 -17.2339 0.84341 1.94927 -17.7282 1.08928 1.26014 
-18.0447 1.35398 0.435172 -18.325 1.56852 -0.225936 -18.471 1.78645 -0.695868 
-13.2095 0.223006 3.54039 -14.527 -0.777446 2.90712 -15.9874 -1.8368 2.51136 
-17.1622 -2.93842 1.92628 -17.7005 -3.98428 0.821451 -17.8412 -5.02829 -0.445486 
-18.0426 -6.29868 -1.25369 -18.3233 -7.77089 -1.49565 -18.3897 -9.05935 -1.54405 
10.6983 0.196326 3.71565 9.94262 1.10845 3.63608 8.93401 2.02066 3.53802 
7.74484 2.93868 3.41701 6.46952 3.87261 3.28766 5.15834 4.77537 3.1606 
3.82338 5.57401 3.00438 2.47896 6.23693 2.79292 1.15788 6.7791 2.56519 
10.689 -1.24105 3.77082 9.94067 -1.74057 3.84639 9.01126 -2.1226 4.00271 
7.98544 -2.42587 4.17739 6.91381 -2.70337 4.26833 5.85648 -2.90823 4.16421 
4.89177 -2.92892 3.81341 3.9396 -2.7142 3.32996 2.74885 -2.32979 2.94866 
12.2219 -0.531935 3.928 13.2365 -0.314343 4.05243 14.462 -0.0453895 3.91408 
15.8961 0.249554 3.48772 17.1967 0.562793 2.93542 18.1317 0.916291 2.30522 
18.8521 1.31664 1.52275 19.4836 1.70741 0.623501 19.8643 2.01917 -0.247891 
12.233 -1.46605 3.88742 13.1985 -2.28704 3.94431 14.1584 -3.12371 3.79349 
15.2425 -4.00265 3.23581 16.5723 -4.92483 2.17578 17.9853 -5.80255 0.873706 
19.0459 -6.56052 -0.251521 19.5409 -7.22739 -1.13958 19.6961 -7.83517 -2.05762 
0.0278974 8.05297 -1.88659 -0.260259 8.65352 -1.55272 -0.548539 9.22299 -1.0497 
-0.847588 9.63501 -0.264338 -1.08525 9.73819 0.67491 -1.11739 9.44749 1.41616 
-0.907464 8.85529 1.77821 -0.587 8.1931 1.93155 -0.302125 7.64271 2.11682 
2.11014 7.34142 -2.32671 4.19461 6.9945 -2.41372 6.83385 6.66637 -2.73018 
9.61812 6.47497 -3.13741 11.6581 6.18976 -3.05642 12.9247 5.48881 -2.36257 
14.3863 4.46244 -1.64041 16.4447 3.49962 -1.30338 18.4632 2.78992 -1.18359 
-1.79162 7.70777 -1.54145 -4.22359 7.56799 -0.650768 -6.87171 7.14486 0.147772 
-9.51855 6.70543 0.499092 -11.9315 6.32016 0.395802 -13.8916 5.70681 -0.00390286 
-15.3376 4.72198 -0.555277 -16.466 3.64105 -1.00842 -17.479 2.7584 -1.16597 
1.71361 7.05132 2.05698 3.82121 6.75373 1.66261 6.12618 6.50595 1.4567 
8.346 6.35842 1.5562 10.3588 6.04408 1.59796 12.3574 5.31399 1.22882 
14.4966 4.34048 0.631261 16.631 3.46611 0.0845599 18.4687 2.79751 -0.430254 
-2.0028 7.49095 2.52266 -4.16282 7.6229 2.81957 -6.57186 7.66093 3.38643 
-9.00491 7.51838 3.95706 -11.1173 6.88593 3.87912 -12.8413 5.6538 2.85412 
-14.4171 4.26215 1.40938 -15.9588 3.22021 0.228973 -17.323 2.57371 -0.538906 
-0.432367 -0.794976 0.743387 0.109349 -1.08636 0.762585 0.669348 -1.50183 0.734151 
1.17608 -1.99428 0.741691 1.58421 -2.38054 0.915885 1.79114 -2.52421 1.29771 
1.7074 -2.47181 1.78993 1.43907 -2.33371 2.25368 1.21897 -2.15154 2.60359 
2.53608 -0.987583 0.104089 5.87101 -2.02671 -0.654701 8.33848 -3.41088 -1.11729 
9.96775 -4.69572 -1.09784 11.8422 -5.84788 -1.28227 14.5581 -7.14064 -2.37402 
17.2353 -8.39352 -3.82159 18.8557 -9.04578 -4.47589 19.4995 -8.91688 -4.05233 
-3.82676 -0.792824 0.969793 -6.59232 -1.47031 0.973512 -9.0359 -2.47403 0.78477 
-11.1286 -3.64291 0.251691 -12.724 -4.94265 -0.893925 -13.845 -6.37097 -2.20453 
-14.9026 -7.78563 -2.73374 -16.1387 -8.94672 -2.36226 -17.3057 -9.65162 -1.85039 
3.7231 -3.06136 2.61031 5.64757 -4.31103 2.45846 7.06155 -5.40245 2.20621 
8.56212 -6.27741 1.83625 10.6532 -7.07274 1.38708 13.2256 -7.83783 0.640262 
15.71 -8.43381 -0.548527 17.6313 -8.71801 -1.81021 18.9292 -8.66429 -2.68869 
-2.18106 -1.28919 3.215 -6.15859 -1.405 3.83576 -9.43261 -2.48573 4.13416 
-11.1896 -3.96937 3.64752 -12.2811 -5.02202 2.52273 -13.9211 -5.62107 1.27765 
-15.8672 -6.42824 0.246882 -17.2 -7.67614 -0.519674 -17.7934 -8.949 -1.12835 
20.7857 1.50256 -1.03141 21.2957 0.533489 -0.83552 21.6917 -0.586858 -0.530356 
22.2742 -1.70741 -0.567808 22.8268 -2.89445 -1.18237 22.8952 -4.23281 -1.9214 
22.3484 -5.52284 -2.26998 21.448 -6.59601 -2.39645 20.5502 -7.5232 -2.69827 
-19.3311 1.21369 -1.45333 -20.1525 -0.0772327 -1.95342 -20.711 -1.73764 -2.51028 
-20.8946 -3.50858 -2.932 -20.7276 -5.26692 -3.26719 -20.3736 -6.99937 -3.59508 
-19.9083 -8.50687 -3.63006 -19.3248 -9.51641 -3.12846 -18.7017 -9.9329 -2.35286 
-10.8573 1.48172 -1.13994 -9.81467 2.37308 -0.85759 -8.64528 2.22964 -0.529432 
-8.4507 3.26877 -0.641824 -7.13547 3.00233 -0.570707 -5.70197 2.79229 -0.559009 
-6.7121 4.0876 -0.640352 -5.28171 3.70325 -0.82926 -3.79573 3.32236 -1.02019 
-2.30484 3.03148 -1.07568 -4.66594 4.8198 -1.01127 -3.18247 4.32928 -1.35473 
-1.70307 3.76229 -1.67658 -0.197604 3.26702 -1.90355 1.33423 2.83308 -1.99965 
-2.56486 5.50125 -1.67046 -1.07255 4.93106 -2.05845 0.362751 4.22617 -2.37693 
1.88778 3.52809 -2.74848 3.48347 2.89259 -3.09459 5.01972 2.25104 -3.38363 
-0.714612 6.10809 -2.28155 0.765095 5.49496 -2.66518 2.17222 4.74916 -2.9398 
3.74982 3.95419 -3.39692 5.46402 3.1629 -4.00293 6.99334 2.354 -4.47698 
8.23106 1.54971 -4.75936 0.71698 6.58132 -2.58269 2.18778 5.94354 -2.94699 
3.60812 5.22507 -3.23739 5.23728 4.4569 -3.76751 7.08669 3.64189 -4.55724 
8.68539 2.75064 -5.18898 9.75701 1.82131 -5.41434 10.5128 0.984075 -5.37518 
-13.1049 0.519587 -2.90033 -13.9003 0.50325 -3.28367 -12.5104 1.55565 -2.33092 
-14.7057 0.699598 -3.31119 -13.3139 1.65291 -2.63321 -11.7076 2.64414 -1.65148 
-15.3533 1.1277 -3.38904 -14.0259 1.96106 -2.70202 -12.4967 2.8298 -1.88853 
-10.5926 3.67017 -0.915867 -15.8506 1.73109 -3.62096 -14.6075 2.49949 -2.8087 
-13.1158 3.22509 -2.00777 -11.3806 3.91578 -1.02476 -9.08966 4.59352 -0.351503 
-16.437 2.33195 -3.51668 -15.1891 3.13206 -2.8544 -13.6824 3.81528 -2.06779 
-11.9559 4.35902 -1.11081 -9.92913 4.89828 -0.246127 -7.24871 5.47117 -0.233195 
-17.1066 2.70448 -2.83089 -15.8523 3.59156 -2.48993 -14.3495 4.38071 -1.87508 
-12.5385 4.93164 -1.072 -10.5378 5.34948 -0.211129 -8.15367 5.83728 0.0849502 
-5.24705 6.32294 -0.581957 -17.5229 2.79502 -1.92648 -16.3668 3.72387 -1.7638 
-15.0039 4.68524 -1.30414 -13.2562 5.42106 -0.698188 -11.17 5.86288 -0.0698111 
-8.82418 6.26314 0.258268 -6.16106 6.74317 -0.142137 -3.34888 7.09044 -1.11907 
-16.3599 3.33101 -0.405435 -14.9485 4.26532 0.709043 -15.3615 4.46261 0.0907446 
-13.4318 5.66551 2.19846 -14.0247 5.7082 1.52798 -14.253 5.75506 0.782411 
-11.7693 7.09236 3.46835 -12.4696 7.15824 2.90635 -12.8591 7.01174 2.12262 
-12.6211 6.70585 1.19148 -9.67207 7.94185 3.80245 -10.4235 8.23357 3.50207 
-10.918 8.15996 2.86978 -10.7959 7.74053 1.93816 -10.1788 7.205 1.04709 
-7.1485 8.17749 3.31524 -7.82883 8.70011 3.20703 -8.33055 8.92802 2.79548 
-8.30028 8.6959 1.97728 -7.79364 8.18007 1.05938 -7.23638 7.6341 0.435255 
-4.61154 8.14486 2.7085 -5.1532 8.78799 2.64911 -5.58524 9.32549 2.39151 
-5.6024 9.46585 1.69946 -5.18994 9.17372 0.743649 -4.70313 8.65941 -0.0303007 
[...]
POINT_DATA 1002
FIELD FieldData 4
_paraPhi 1 1002 double
6.2831853072 3.1415926536 6.2831853072 3.1415926536 4.7123889804 4.7123889804 1.5707963268 1.5707963268 3.6951670125 
5.7296109483 2.5880182947 0.5535743589 6.2831853072 6.2831853072 6.2831853072 6.2831853072 3.1415926536 3.1415926536 
3.1415926536 3.1415926536 3.1415926536 6.1053039672 5.898798347 5.6768734901 5.4599499503 5.2659633393 5.1032165617 
4.9713148346 4.8656852733 4.7809517865 0.17788134 0.38438696014 0.60631181711 0.82323535693 1.0172219679 1.1799687454 
1.3118704726 1.4175000338 1.5022335207 6.1892828907 6.1070320098 6.035312792 5.9728339911 5.9183214791 5.8706119594 
5.8286879411 5.7916808611 5.7588591896 0.093902416448 0.17615329733 0.2478725152 0.31035131605 0.36486382811 0.41257334776 
0.45449736604 0.4915044461 0.52432611754 3.3194739936 3.5259796137 3.7479044707 3.9648280105 4.1588146215 4.321561399 
4.4534631262 4.5590926874 4.6438261743 2.9637113136 2.7572056934 2.5352808365 2.3183572967 2.1243706857 1.9616239082 
1.829722181 1.7240926197 1.6393591329 3.23549507 3.3177459509 3.3894651688 3.4519439696 3.5064564817 3.5541660013 
3.5960900196 3.6330970997 3.6659187711 3.0476902371 2.9654393563 2.8937201384 2.8312413375 2.7767288255 2.7290193058 
2.6870952876 2.6500882075 2.617266536 6.2831853072 6.2831853072 6.2831853072 6.2831853072 3.1415926536 3.1415926536 
3.1415926536 3.1415926536 3.1415926536 6.1053039672 5.898798347 5.6768734901 5.4599499503 5.2659633393 5.1032165617 
4.9713148346 4.8656852733 4.7809517865 0.17788134 0.38438696014 0.60631181711 0.82323535693 1.0172219679 1.1799687454 
1.3118704726 1.4175000338 1.5022335207 6.1892828907 6.1070320098 6.035312792 5.9728339911 5.9183214791 5.8706119594 
5.8286879411 5.7916808611 5.7588591896 0.093902416448 0.17615329733 0.2478725152 0.31035131605 0.36486382811 0.41257334776 
0.45449736604 0.4915044461 0.52432611754 3.3194739936 3.5259796137 3.7479044707 3.9648280105 4.1588146215 4.321561399 
4.4534631262 4.5590926874 4.6438261743 2.9637113136 2.7572056934 2.5352808365 2.3183572967 2.1243706857 1.9616239082 
1.829722181 1.7240926197 1.6393591329 3.23549507 3.3177459509 3.3894651688 3.4519439696 3.5064564817 3.5541660013 
3.5960900196 3.6330970997 3.6659187711 3.0476902371 2.9654393563 2.8937201384 2.8312413375 2.7767288255 2.7290193058 
2.6870952876 2.6500882075 2.617266536 4.7123889804 4.7123889804 4.7123889804 4.7123889804 4.7123889804 4.7123889804 
4.7123889804 4.7123889804 4.7123889804 4.6087898617 4.4991390697 4.3857031936 4.2712800401 4.1588146215 4.0509635631 
3.94975894 3.8564636551 3.7716124825 4.8159880991 4.9256388911 5.0390747672 5.1534979207 5.2659633393 5.3738143976 
5.4750190208 5.5683143056 5.6531654782 4.6087898617 4.4991390697 4.3857031936 4.2712800401 4.1588146215 4.0509635631 
3.94975894 3.8564636551 3.7716124825 4.8159880991 4.9256388911 5.0390747672 5.1534979207 5.2659633393 5.3738143976 
5.4750190208 5.5683143056 5.6531654782 1.5707963268 1.5707963268 1.5707963268 1.5707963268 1.5707963268 1.5707963268 
1.5707963268 1.5707963268 1.5707963268 1.6743954455 1.7840462375 1.8974821136 2.0119052671 2.1243706857 2.232221744 
2.3334263672 2.426721652 2.5115728246 1.4671972081 1.3575464161 1.24411054 1.1296873865 1.0172219679 0.90937090954 
0.80816628637 0.71487100155 0.63001982895 1.6743954455 1.7840462375 1.8974821136 2.0119052671 2.1243706857 2.232221744 
2.3334263672 2.426721652 2.5115728246 1.4671972081 1.3575464161 1.24411054 1.1296873865 1.0172219679 0.90937090954 
0.80816628637 0.71487100155 0.63001982895 3.6007720849 3.4966939854 3.3839471039 3.2645756454 3.1415926536 3.0186096618 
2.8992382033 2.7864913217 2.6824132222 5.8240058758 5.9280839753 6.0408308569 6.1602023154 6.2831853072 0.12298299178 
0.2423544503 0.35510133185 0.45917943135 6.0560271438 5.7885595667 5.9702140275 5.5125918794 5.6029703303 5.7885595667 
5.2659633393 5.2659633393 5.2659633393 5.2659633393 5.0674903122 5.0120975802 4.9155579264 4.7123889804 4.1588146215 
4.9155579264 4.8353719722 4.7123889804 4.5092200343 4.1588146215 3.6362183941 4.8004512023 4.7123889804 4.5894059886 
4.4126803806 4.1588146215 3.8218076305 3.4545639333 4.7123889804 4.6243267584 4.5092200343 4.3572876485 4.1588146215 
3.9121860814 3.6362183941 3.368750817 6.0174235957 5.9434319871 5.8263323547 5.8809213739 5.7674481418 5.6279784266 
5.8278025282 5.718968232 5.5891129425 5.4372443565 5.7823484065 5.678536687 5.5575666702 5.4192596322 5.2659633393 
5.743164462 5.6444075337 5.5314983644 5.4046708639 5.2659633393 5.1195510325 5.7091357773 5.6152775188 5.5096229709 
5.3926039573 5.2659633393 5.1329233157 4.9978930058 5.6793730533 5.5901633916 5.4910209005 5.3824597928 5.2659633393 
5.1440684722 5.0201624502 4.8979782167 5.5683143056 5.4750190208 5.4750190208 5.3738143976 5.3738143976 5.3738143976 
5.2659633393 5.2659633393 5.2659633393 5.2659633393 5.1534979207 5.1534979207 5.1534979207 5.1534979207 5.1534979207 
5.0390747672 5.0390747672 5.0390747672 5.0390747672 5.0390747672 5.0390747672 4.9256388911 4.9256388911 4.9256388911 
4.9256388911 4.9256388911 4.9256388911 4.9256388911 4.8159880991 4.8159880991 4.8159880991 4.8159880991 4.8159880991 
4.8159880991 4.8159880991 4.8159880991 4.6087898617 4.6087898617 4.4991390697 4.6087898617 4.4991390697 4.3857031936 
4.6087898617 4.4991390697 4.3857031936 4.2712800401 4.6087898617 4.4991390697 4.3857031936 4.2712800401 4.1588146215 
4.6087898617 4.4991390697 4.3857031936 4.2712800401 4.1588146215 4.0509635631 4.6087898617 4.4991390697 4.3857031936 
4.2712800401 4.1588146215 4.0509635631 3.94975894 4.6087898617 4.4991390697 4.3857031936 4.2712800401 4.1588146215 
4.0509635631 3.94975894 3.8564636551 4.526799744 4.4046155105 4.426884955 4.2807094886 4.2918546451 4.3052269283 
4.1588146215 4.1588146215 4.1588146215 4.1588146215 4.042318168 4.0321740035 4.0201070968 4.0055183285 3.9875336042 
3.9337570603 3.9151549899 3.8932795963 3.8672112905 3.8356650183 3.7967995342 3.8346145692 3.809500442 3.7803704271 
3.7462412737 3.7058097288 3.657329819 3.5984456061 3.7454049075 3.7156421835 3.6816134988 3.6424295543 3.5969754326 
3.5438565869 3.4813459737 3.4073543651 3.5642842451 3.4524645613 3.5233842518 3.3320300872 3.403123212 3.4773852225 
3.20576226 3.2746326772 3.348015857 3.4255060145 3.0774230472 3.1415926536 3.2112816139 3.2864685043 3.3668817272 
2.95115522 3.00855263 3.0719036933 3.1415926536 3.2178377658 3.3005964304 2.8307207459 2.8800620952 2.9351694502 
2.9967168029 3.0653475414 3.1415926536 3.225752376 2.718901062 2.7598010554 2.8058000847 2.8576792927 2.91630358 
2.9825888767 3.0574329311 3.1415926536 3.5642842451 3.5233842518 3.4524645613 3.4773852225 3.403123212 3.3320300872 
3.4255060145 3.348015857 3.2746326772 3.20576226 3.3668817272 3.2864685043 3.2112816139 3.1415926536 3.0774230472 
3.3005964304 3.2178377658 3.1415926536 3.0719036933 3.00855263 2.95115522 3.225752376 3.1415926536 3.0653475414 
2.9967168029 2.9351694502 2.8800620952 2.8307207459 3.1415926536 3.0574329311 2.9825888767 2.91630358 2.8576792927 
2.8058000847 2.7598010554 2.718901062 4.526799744 4.426884955 4.4046155105 4.3052269283 4.2918546451 4.2807094886 
4.1588146215 4.1588146215 4.1588146215 4.1588146215 3.9875336042 4.0055183285 4.0201070968 4.0321740035 4.042318168 
3.7967995342 3.8356650183 3.8672112905 3.8932795963 3.9151549899 3.9337570603 3.5984456061 3.657329819 3.7058097288 
3.7462412737 3.7803704271 3.809500442 3.8346145692 3.4073543651 3.4813459737 3.5438565869 3.5969754326 3.6424295543 
3.6816134988 3.7156421835 3.7454049075 4.7123889804 4.8004512023 4.6243267584 4.9155579264 4.7123889804 4.5092200343 
5.0674903122 4.8353719722 4.5894059886 4.3572876485 5.2659633393 5.0120975802 4.7123889804 4.4126803806 4.1588146215 
5.5125918794 5.2659633393 4.9155579264 4.5092200343 4.1588146215 3.9121860814 5.7885595667 5.6029703303 5.2659633393 
4.7123889804 4.1588146215 3.8218076305 3.6362183941 6.0560271438 5.9702140275 5.7885595667 5.2659633393 4.1588146215 
3.6362183941 3.4545639333 3.368750817 0.22715816343 0.49462574053 0.3129712797 0.77059342779 0.68021497688 0.49462574053 
1.0172219679 1.0172219679 1.0172219679 1.0172219679 1.2156949949 1.271087727 1.3676273807 1.5707963268 2.1243706857 
1.3676273807 1.447813335 1.5707963268 1.7739652728 2.1243706857 2.6469669131 1.4827341049 1.5707963268 1.6937793186 
1.8705049266 2.1243706857 2.4613776767 2.8286213739 1.5707963268 1.6588585487 1.7739652728 1.9258976586 2.1243706857 
2.3709992258 2.6469669131 2.9144344902 1.7563855631 1.8785697967 1.8563003522 2.0024758186 1.9913306621 1.9779583789 
2.1243706857 2.1243706857 2.1243706857 2.1243706857 2.2408671392 2.2510113037 2.2630782103 2.2776669786 2.295651703 
2.3494282469 2.3680303173 2.3899057108 2.4159740166 2.4475202889 2.486385773 2.448570738 2.4736848652 2.5028148801 
2.5369440334 2.5773755784 2.6258554882 2.6847397011 2.5377803997 2.5675431237 2.6015718084 2.6407557529 2.6862098746 
2.7393287203 2.8018393335 2.8758309421 1.6743954455 1.6743954455 1.7840462375 1.6743954455 1.7840462375 1.8974821136 
1.6743954455 1.7840462375 1.8974821136 2.0119052671 1.6743954455 1.7840462375 1.8974821136 2.0119052671 2.1243706857 
1.6743954455 1.7840462375 1.8974821136 2.0119052671 2.1243706857 2.232221744 1.6743954455 1.7840462375 1.8974821136 
2.0119052671 2.1243706857 2.232221744 2.3334263672 1.6743954455 1.7840462375 1.8974821136 2.0119052671 2.1243706857 
2.232221744 2.3334263672 2.426721652 1.4671972081 1.3575464161 1.4671972081 1.24411054 1.3575464161 1.4671972081 
1.1296873865 1.24411054 1.3575464161 1.4671972081 1.0172219679 1.1296873865 1.24411054 1.3575464161 1.4671972081 
0.90937090954 1.0172219679 1.1296873865 1.24411054 1.3575464161 1.4671972081 0.80816628637 0.90937090954 1.0172219679 
1.1296873865 1.24411054 1.3575464161 1.4671972081 0.71487100155 0.80816628637 0.90937090954 1.0172219679 1.1296873865 
1.24411054 1.3575464161 1.4671972081 0.60381225391 0.57404952988 0.69302191562 0.54002084522 0.66790778838 0.79216440667 
0.50083690068 0.63877777351 0.77356233629 0.90072551443 0.45538277901 0.60464862014 0.75168694275 0.89058134991 1.0172219679 
0.40226393329 0.56421707518 0.72561863695 0.87851444325 1.0172219679 1.139116835 0.33975332011 0.51573716537 0.69407236469 
0.86392567495 1.0172219679 1.1502619915 1.2630228569 0.26576171152 0.45685295248 0.6552068806 0.84594095064 1.0172219679 
1.1636342747 1.2852923014 1.3852070904 0.22715816343 0.3129712797 0.49462574053 0.49462574053 0.68021497688 0.77059342779 
1.0172219679 1.0172219679 1.0172219679 1.0172219679 2.1243706857 1.5707963268 1.3676273807 1.271087727 1.2156949949 
2.6469669131 2.1243706857 1.7739652728 1.5707963268 1.447813335 1.3676273807 2.8286213739 2.4613776767 2.1243706857 
1.8705049266 1.6937793186 1.5707963268 1.4827341049 2.9144344902 2.6469669131 2.3709992258 2.1243706857 1.9258976586 
1.7739652728 1.6588585487 1.5707963268 1.7563855631 1.8563003522 1.8785697967 1.9779583789 1.9913306621 2.0024758186 
2.1243706857 2.1243706857 2.1243706857 2.1243706857 2.295651703 2.2776669786 2.2630782103 2.2510113037 2.2408671392 
2.486385773 2.4475202889 2.4159740166 2.3899057108 2.3680303173 2.3494282469 2.6847397011 2.6258554882 2.5773755784 
2.5369440334 2.5028148801 2.4736848652 2.448570738 2.8758309421 2.8018393335 2.7393287203 2.6862098746 2.6407557529 
2.6015718084 2.5675431237 2.5377803997 5.8604937156 5.901393709 5.9723133995 5.9473927383 6.0216547488 6.0927478736 
5.9992719463 6.0767621038 6.1501452836 6.2190157008 6.0578962336 6.1383094565 6.2134963469 0 0.064169606361 
6.1241815303 6.206940195 6.2831853072 0.069688960264 0.13304002361 0.19043743361 6.1990255847 0 0.07624511221 
0.14487585072 0.20642320337 0.26153055843 0.3108719077 0 0.084159722458 0.15900377685 0.22528907359 0.28391336087 
0.3357925689 0.38179159818 0.42269159155 5.8604937156 5.9723133995 5.901393709 6.0927478736 6.0216547488 5.9473927383 
6.2190157008 6.1501452836 6.0767621038 5.9992719463 0.064169606361 0 6.2134963469 6.1383094565 6.0578962336 
0.19043743361 0.13304002361 0.069688960264 6.2831853072 6.206940195 6.1241815303 0.3108719077 0.26153055843 0.20642320337 
0.14487585072 0.07624511221 6.2831853072 6.1990255847 0.42269159155 0.38179159818 0.3357925689 0.28391336087 0.22528907359 
0.15900377685 0.084159722458 0 5.6793730533 5.7091357773 5.5901633916 5.743164462 5.6152775188 5.4910209005 
5.7823484065 5.6444075337 5.5096229709 5.3824597928 5.8278025282 5.678536687 5.5314983644 5.3926039573 5.2659633393 
5.8809213739 5.718968232 5.5575666702 5.4046708639 5.2659633393 5.1440684722 5.9434319871 5.7674481418 5.5891129425 
5.4192596322 5.2659633393 5.1329233157 5.0201624502 6.0174235957 5.8263323547 5.6279784266 5.4372443565 5.2659633393 
5.1195510325 4.9978930058 4.8979782167 1.3852070904 1.2852923014 1.2630228569 1.1636342747 1.1502619915 1.139116835 
1.0172219679 1.0172219679 1.0172219679 1.0172219679 0.84594095064 0.86392567495 0.87851444325 0.89058134991 0.90072551443 
0.6552068806 0.69407236469 0.72561863695 0.75168694275 0.77356233629 0.79216440667 0.45685295248 0.51573716537 0.56421707518 
0.60464862014 0.63877777351 0.66790778838 0.69302191562 0.26576171152 0.33975332011 0.40226393329 0.45538277901 0.50083690068 
0.54002084522 0.57404952988 0.60381225391 
_paraPhiHalf 1 1002 double
0 3.1415926536 0 3.1415926536 1.5707963268 1.5707963268 1.5707963268 1.5707963268 2.5880182947 
0.5535743589 2.5880182947 0.5535743589 0 0 0 0 3.1415926536 3.1415926536 
3.1415926536 3.1415926536 3.1415926536 0.17788134 0.38438696014 0.60631181711 0.82323535693 1.0172219679 1.1799687454 
1.3118704726 1.4175000338 1.5022335207 0.17788134 0.38438696014 0.60631181711 0.82323535693 1.0172219679 1.1799687454 
1.3118704726 1.4175000338 1.5022335207 0.093902416448 0.17615329733 0.2478725152 0.31035131605 0.36486382811 0.41257334776 
0.45449736604 0.4915044461 0.52432611754 0.093902416448 0.17615329733 0.2478725152 0.31035131605 0.36486382811 0.41257334776 
0.45449736604 0.4915044461 0.52432611754 2.9637113136 2.7572056934 2.5352808365 2.3183572967 2.1243706857 1.9616239082 
1.829722181 1.7240926197 1.6393591329 2.9637113136 2.7572056934 2.5352808365 2.3183572967 2.1243706857 1.9616239082 
1.829722181 1.7240926197 1.6393591329 3.0476902371 2.9654393563 2.8937201384 2.8312413375 2.7767288255 2.7290193058 
2.6870952876 2.6500882075 2.617266536 3.0476902371 2.9654393563 2.8937201384 2.8312413375 2.7767288255 2.7290193058 
2.6870952876 2.6500882075 2.617266536 0 0 0 0 3.1415926536 3.1415926536 
3.1415926536 3.1415926536 3.1415926536 0.17788134 0.38438696014 0.60631181711 0.82323535693 1.0172219679 1.1799687454 
1.3118704726 1.4175000338 1.5022335207 0.17788134 0.38438696014 0.60631181711 0.82323535693 1.0172219679 1.1799687454 
1.3118704726 1.4175000338 1.5022335207 0.093902416448 0.17615329733 0.2478725152 0.31035131605 0.36486382811 0.41257334776 
0.45449736604 0.4915044461 0.52432611754 0.093902416448 0.17615329733 0.2478725152 0.31035131605 0.36486382811 0.41257334776 
0.45449736604 0.4915044461 0.52432611754 2.9637113136 2.7572056934 2.5352808365 2.3183572967 2.1243706857 1.9616239082 
1.829722181 1.7240926197 1.6393591329 2.9637113136 2.7572056934 2.5352808365 2.3183572967 2.1243706857 1.9616239082 
1.829722181 1.7240926197 1.6393591329 3.0476902371 2.9654393563 2.8937201384 2.8312413375 2.7767288255 2.7290193058 
2.6870952876 2.6500882075 2.617266536 3.0476902371 2.9654393563 2.8937201384 2.8312413375 2.7767288255 2.7290193058 
2.6870952876 2.6500882075 2.617266536 1.5707963268 1.5707963268 1.5707963268 1.5707963268 1.5707963268 1.5707963268 
1.5707963268 1.5707963268 1.5707963268 1.6743954455 1.7840462375 1.8974821136 2.0119052671 2.1243706857 2.232221744 
2.3334263672 2.426721652 2.5115728246 1.4671972081 1.3575464161 1.24411054 1.1296873865 1.0172219679 0.90937090954 
0.80816628637 0.71487100155 0.63001982895 1.6743954455 1.7840462375 1.8974821136 2.0119052671 2.1243706857 2.232221744 
2.3334263672 2.426721652 2.5115728246 1.4671972081 1.3575464161 1.24411054 1.1296873865 1.0172219679 0.90937090954 
0.80816628637 0.71487100155 0.63001982895 1.5707963268 1.5707963268 1.5707963268 1.5707963268 1.5707963268 1.5707963268 
1.5707963268 1.5707963268 1.5707963268 1.6743954455 1.7840462375 1.8974821136 2.0119052671 2.1243706857 2.232221744 
2.3334263672 2.426721652 2.5115728246 1.4671972081 1.3575464161 1.24411054 1.1296873865 1.0172219679 0.90937090954 
0.80816628637 0.71487100155 0.63001982895 1.6743954455 1.7840462375 1.8974821136 2.0119052671 2.1243706857 2.232221744 
2.3334263672 2.426721652 2.5115728246 1.4671972081 1.3575464161 1.24411054 1.1296873865 1.0172219679 0.90937090954 
0.80816628637 0.71487100155 0.63001982895 2.6824132222 2.7864913217 2.8992382033 3.0186096618 3.1415926536 3.0186096618 
2.8992382033 2.7864913217 2.6824132222 0.45917943135 0.35510133185 0.2423544503 0.12298299178 0 0.12298299178 
0.2423544503 0.35510133185 0.45917943135 0.22715816343 0.49462574053 0.3129712797 0.77059342779 0.68021497688 0.49462574053 
1.0172219679 1.0172219679 1.0172219679 1.0172219679 1.2156949949 1.271087727 1.3676273807 1.5707963268 2.1243706857 
1.3676273807 1.447813335 1.5707963268 1.7739652728 2.1243706857 2.6469669131 1.4827341049 1.5707963268 1.6937793186 
1.8705049266 2.1243706857 2.4613776767 2.8286213739 1.5707963268 1.6588585487 1.7739652728 1.9258976586 2.1243706857 
2.3709992258 2.6469669131 2.9144344902 0.26576171152 0.33975332011 0.45685295248 0.40226393329 0.51573716537 0.6552068806 
0.45538277901 0.56421707518 0.69407236469 0.84594095064 0.50083690068 0.60464862014 0.72561863695 0.86392567495 1.0172219679 
0.54002084522 0.63877777351 0.75168694275 0.87851444325 1.0172219679 1.1636342747 0.57404952988 0.66790778838 0.77356233629 
0.89058134991 1.0172219679 1.1502619915 1.2852923014 0.60381225391 0.69302191562 0.79216440667 0.90072551443 1.0172219679 
1.139116835 1.2630228569 1.3852070904 0.71487100155 0.80816628637 0.80816628637 0.90937090954 0.90937090954 0.90937090954 
1.0172219679 1.0172219679 1.0172219679 1.0172219679 1.1296873865 1.1296873865 1.1296873865 1.1296873865 1.1296873865 
1.24411054 1.24411054 1.24411054 1.24411054 1.24411054 1.24411054 1.3575464161 1.3575464161 1.3575464161 
1.3575464161 1.3575464161 1.3575464161 1.3575464161 1.4671972081 1.4671972081 1.4671972081 1.4671972081 1.4671972081 
1.4671972081 1.4671972081 1.4671972081 1.6743954455 1.6743954455 1.7840462375 1.6743954455 1.7840462375 1.8974821136 
1.6743954455 1.7840462375 1.8974821136 2.0119052671 1.6743954455 1.7840462375 1.8974821136 2.0119052671 2.1243706857 
1.6743954455 1.7840462375 1.8974821136 2.0119052671 2.1243706857 2.232221744 1.6743954455 1.7840462375 1.8974821136 
2.0119052671 2.1243706857 2.232221744 2.3334263672 1.6743954455 1.7840462375 1.8974821136 2.0119052671 2.1243706857 
2.232221744 2.3334263672 2.426721652 1.7563855631 1.8785697967 1.8563003522 2.0024758186 1.9913306621 1.9779583789 
2.1243706857 2.1243706857 2.1243706857 2.1243706857 2.2408671392 2.2510113037 2.2630782103 2.2776669786 2.295651703 
2.3494282469 2.3680303173 2.3899057108 2.4159740166 2.4475202889 2.486385773 2.448570738 2.4736848652 2.5028148801 
2.5369440334 2.5773755784 2.6258554882 2.6847397011 2.5377803997 2.5675431237 2.6015718084 2.6407557529 2.6862098746 
2.7393287203 2.8018393335 2.8758309421 2.718901062 2.8307207459 2.7598010554 2.95115522 2.8800620952 2.8058000847 
3.0774230472 3.00855263 2.9351694502 2.8576792927 3.0774230472 3.1415926536 3.0719036933 2.9967168029 2.91630358 
2.95115522 3.00855263 3.0719036933 3.1415926536 3.0653475414 2.9825888767 2.8307207459 2.8800620952 2.9351694502 
2.9967168029 3.0653475414 3.1415926536 3.0574329311 2.718901062 2.7598010554 2.8058000847 2.8576792927 2.91630358 
2.9825888767 3.0574329311 3.1415926536 2.718901062 2.7598010554 2.8307207459 2.8058000847 2.8800620952 2.95115522 
2.8576792927 2.9351694502 3.00855263 3.0774230472 2.91630358 2.9967168029 3.0719036933 3.1415926536 3.0774230472 
2.9825888767 3.0653475414 3.1415926536 3.0719036933 3.00855263 2.95115522 3.0574329311 3.1415926536 3.0653475414 