# vtk DataFile Version 5.1
vtk output
ASCII
DATASET POLYDATA
POINTS 1002 float
-120.753 -90.801 86.9508 -125.599 -117.671 79.8905 -121.341 -91.2259 81.9246 
-123.478 -112.189 73.8483 -132.553 -103.463 81.1935 -131.685 -98.9752 77.311 
-120.437 -103.576 81.2972 -119.155 -104.449 78.3984 -130.84 -118.579 74.7251 
-122.33 -86.1058 86.6074 -116.316 -121.624 76.9644 -109.487 -88.6738 88.5786 
-121.415 -92.1075 86.071 -122.17 -94.0732 85.1202 -123.042 -96.2666 84.0389 
-123.974 -98.3281 82.8026 -124.785 -100.768 81.6339 -125.307 -104.489 80.9039 
-125.542 -109.208 80.6761 -125.612 -113.454 80.6043 -125.62 -116.216 80.3553 
-121.728 -91.4728 86.5077 -122.783 -92.6149 85.9367 -123.912 -94.0164 85.1926 
-125.147 -95.1437 84.2903 -126.49 -95.7539 83.3764 -127.876 -96.3595 82.6455 
-129.235 -97.6242 82.1611 -130.51 -99.5599 81.8258 -131.632 -101.659 81.5184 
-120.229 -90.9887 86.7761 -119.797 -91.3666 86.5091 -119.506 -91.9293 86.1381 
-119.31 -92.5499 85.6581 -119.175 -93.1605 85.0668 -119.218 -94.0096 84.3324 
-119.554 -95.548 83.4473 -120.054 -97.9336 82.534 -120.414 -100.801 81.7857 
-120.722 -90.2316 87.5596 -120.725 -89.7356 88.1251 -120.82 -89.1641 88.6154 
-121.123 -88.4839 89.0667 -121.587 -87.7007 89.4145 -121.93 -86.8343 89.4212 
-122.006 -86.121 88.9592 -121.993 -85.8355 88.1933 -122.097 -85.9187 87.3694 
-119.734 -90.192 87.7557 -118.619 -90.0095 88.5917 -117.456 -90.0153 89.2948 
-116.207 -90.1362 89.6945 -114.729 -90.3885 89.8456 -113.024 -90.4723 89.9713 
-111.407 -90.0823 90.0768 -110.243 -89.4335 89.9077 -109.637 -88.9292 89.3483 
-126.407 -117.418 80.027 -127.279 -116.75 80.16 -128.164 -115.559 80.289 
-129.024 -114.013 80.4034 -129.877 -112.388 80.5447 -130.725 -110.822 80.761 
-131.48 -109.279 80.9841 -132.041 -107.607 81.108 -132.383 -105.657 81.1474 
-124.832 -117.049 80.0458 -124.028 -116.228 80.108 -123.19 -115.137 80.0679 
-122.374 -113.697 80.024 -121.707 -112.164 80.1147 -121.279 -110.853 80.3588 
-121.048 -109.532 80.648 -120.897 -107.762 80.897 -120.714 -105.629 81.1037 
-126.084 -118.477 79.3861 -126.644 -119.069 78.8301 -127.26 -119.523 78.3144 
-127.897 -119.818 77.8171 -128.531 -119.914 77.2583 -129.165 -119.82 76.6537 
-129.765 -119.568 76.0931 -130.253 -119.241 75.6046 -130.599 -118.927 75.1533 
-125.045 -118.309 79.415 -124.344 -119.014 78.8729 -123.454 -120.018 78.4007 
-122.371 -121.122 78.1207 -121.157 -121.838 77.9868 -119.915 -122.023 77.8211 
-118.746 -121.976 77.5546 -117.736 -121.92 77.2903 -116.928 -121.82 77.1085 
-122.092 -92.38 80.8662 -122.752 -93.6541 79.7128 -123.263 -95.6739 78.6656 
-123.67 -99.1274 77.907 -124.004 -103.429 77.3544 -124.161 -106.822 76.7089 
-124.062 -108.516 75.8453 -123.821 -109.44 74.9595 -123.609 -110.629 74.2824 
-122.222 -91.4857 81.3294 -123.168 -91.8146 80.6522 -124.161 -92.3006 79.9246 
-125.216 -92.9755 79.2343 -126.367 -93.8397 78.6877 -127.586 -94.8597 78.2875 
-128.779 -95.9192 77.9447 -129.874 -96.9324 77.6342 -130.845 -97.9372 77.414 
-120.981 -91.6518 81.8483 -120.651 -92.0188 81.7207 -120.346 -92.4795 81.516 
-120.066 -93.2846 81.222 -119.856 -94.494 80.891 -119.777 -96.0038 80.5491 
-119.8 -97.8281 80.1037 -119.774 -99.9916 79.5031 -119.563 -102.293 78.8759 
-121.109 -90.1495 82.5567 -120.917 -89.0814 83.1729 -120.782 -88.4011 83.7927 
-120.721 -88.1781 84.4418 -120.77 -87.9452 85.0828 -120.938 -87.3614 85.6258 
-121.185 -86.7113 86.0189 -121.487 -86.3543 86.2831 -121.867 -86.2274 86.4675 
-120.252 -90.3094 82.8844 -119.005 -89.4061 83.8366 -117.655 -88.6768 84.7448 
-116.228 -88.2117 85.6139 -114.766 -88.0472 86.4284 -113.357 -88.1022 87.0996 
-112.063 -88.1567 87.5681 -110.913 -88.1468 87.9118 -110.007 -88.2729 88.2447 
-124.36 -111.064 73.9668 -125.359 -109.962 74.2451 -126.43 -108.948 74.6759 
-127.481 -107.902 75.1686 -128.444 -106.611 75.6197 -129.315 -105.017 75.9906 
-130.106 -103.293 76.3067 -130.788 -101.658 76.6154 -131.32 -100.216 76.9502 
-122.71 -112.291 74.0511 -121.926 -112.383 74.3289 -121.125 -112.263 74.664 
-120.321 -111.696 75.0595 -119.556 -110.813 75.4966 -118.954 -110.024 75.929 
-118.695 -109.318 76.3811 -118.797 -108.205 76.9484 -119.038 -106.473 77.6521 
-123.947 -113.215 73.5644 -124.55 -114.238 73.3351 -125.323 -115.087 73.1432 
-126.3 -115.854 72.9473 -127.404 -116.734 72.7624 -128.44 -117.665 72.7346 
-129.275 -118.415 73.0084 -129.924 -118.834 73.5386 -130.441 -118.873 74.1513 
-122.864 -113.959 73.6324 -122.135 -115.729 73.4143 -121.283 -117.403 73.149 
-120.389 -119.092 72.9867 -119.555 -120.636 73.2145 -118.782 -121.586 73.9352 
-118.034 -121.88 74.913 -117.337 -121.869 75.8111 -116.749 -121.77 76.4765 
-133.096 -102.818 80.9932 -133.579 -101.798 80.7032 -134.01 -100.713 80.299 
-134.346 -99.9074 79.7597 -134.445 -99.4529 79.1315 -134.194 -99.1869 78.5459 
-133.662 -99.0064 78.1038 -133.013 -98.9213 77.7859 -132.345 -98.9243 77.5284 
-133.284 -106.4 80.8297 -133.899 -108.806 80.4047 -134.346 -110.387 79.7887 
-134.598 -111.552 78.995 -134.526 -112.75 78.1757 -134 -113.913 77.3946 
-133.171 -114.957 76.6139 -132.33 -116.09 75.8689 -131.579 -117.373 75.2371 
-132.091 -100.142 81.5807 -131.532 -97.227 82.2096 -130.813 -95.3589 82.9024 
-129.754 -94.104 83.3517 -128.349 -92.3192 83.5534 -126.92 -89.7941 83.8689 
-125.707 -87.5551 84.5042 -124.599 -86.3766 85.2939 -123.452 -86.0695 86.0188 
-132.258 -100.913 77.0646 -132.802 -103.15 76.8323 -133.348 -105.416 76.4661 
-133.834 -107.422 75.8923 -134.026 -109.263 75.2729 -133.73 -111.304 74.8397 
-133.05 -113.56 74.6377 -132.262 -115.658 74.5838 -131.525 -117.329 74.6227 
-131.393 -97.1407 77.783 -130.88 -95.2371 78.3914 -130.192 -93.3939 79.0973 
-129.384 -91.8254 79.8791 -128.381 -90.4963 80.7711 -127.104 -89.1465 81.8108 
-125.708 -87.8132 82.9891 -124.421 -86.827 84.247 -123.309 -86.3127 85.4852 
-120.113 -104.023 81.1778 -119.772 -104.465 80.9922 -119.47 -104.791 80.7074 
-119.228 -104.968 80.3617 -119.003 -105.069 80.02 -118.778 -105.106 79.6848 
-118.64 -104.995 79.3272 -118.677 -104.751 78.9665 -118.874 -104.53 78.6501 
-120.108 -107.301 80.932 -119.072 -110.611 80.6993 -117.731 -113.496 80.3958 
-116.555 -116.429 80.0073 -115.57 -119.174 79.7064 -114.652 -120.712 79.46 
-114.116 -120.918 79.0106 -114.35 -120.824 78.3128 -115.227 -121.119 77.5805 
-119.879 -100.029 81.8874 -118.649 -96.8033 82.8883 -116.997 -94.3678 84.1814 
-115.356 -92.7532 85.3892 -113.884 -91.8464 86.2399 -112.401 -91.4989 86.8132 
-110.899 -91.2241 87.3115 -109.751 -90.5321 87.8012 -109.287 -89.5291 88.2405 
-118.363 -107.659 77.6976 -117.162 -110.678 77.3367 -115.974 -113.524 77.2538 
-114.969 -116.058 77.1731 -113.99 -117.831 76.9939 -113.179 -118.725 76.9159 
-113.067 -119.299 77.0283 -113.826 -120.061 77.1479 -115.06 -120.938 77.1194 
-119.076 -100.905 79.4482 -118.085 -97.2662 80.537 -116.441 -94.3891 81.5373 
-114.826 -92.6855 82.5743 -113.528 -91.7308 83.7602 -112.232 -90.9207 84.8818 
-110.861 -90.1353 85.761 -109.829 -89.4899 86.5905 -109.408 -89.0047 87.5654 
-129.838 -119.854 74.5253 -128.591 -120.849 74.3388 -127.217 -121.481 74.1544 
-125.826 -121.827 74.048 -124.296 -121.928 74.1863 -122.517 -121.888 74.6441 
-120.717 -121.955 75.2866 -119.139 -122.126 75.9237 -117.719 -122.076 76.4783 
-121.042 -86.097 87.5731 -119.687 -85.9829 88.4884 -118.349 -85.7536 89.2734 
-117.003 -85.7246 89.8156 -115.525 -86.1572 90.0548 -113.933 -86.8826 90.0845 
-112.423 -87.5194 90.0129 -111.137 -87.913 89.7808 -110.131 -88.2214 89.2863 
-122.438 -93.2799 85.5551 -123.574 -94.7857 84.8924 -123.243 -95.5007 84.4845 
-124.821 -96.0889 84.081 -124.45 -96.8725 83.7185 -124.154 -97.5873 83.2885 
-126.16 -96.773 83.2085 -125.769 -97.8078 82.9157 -125.374 -98.7269 82.5254 
-125.061 -99.6675 82.0992 -127.524 -97.3206 82.4449 -127.133 -98.6217 82.2159 
-126.665 -99.9715 81.907 -126.199 -101.318 81.57 -125.763 -102.803 81.2284 
-128.864 -98.6801 81.9211 -128.467 -100.187 81.7292 -127.962 -101.945 81.5077 
-127.374 -103.731 81.2726 -126.775 -105.542 81.0544 -126.167 -107.401 80.8466 
-130.166 -101.008 81.6154 -129.757 -102.722 81.4626 -129.218 -104.664 81.2927 
-128.547 -106.672 81.1122 -127.827 -108.644 80.9695 -127.095 -110.524 80.8454 
-126.346 -112.168 80.7189 -131.37 -103.572 81.394 -130.977 -105.461 81.3022 
-130.408 -107.335 81.1592 -129.677 -109.222 80.9666 -128.877 -111.109 80.8129 
-128.068 -112.927 80.7102 -127.241 -114.488 80.6037 -126.407 -115.584 80.4832 
-121.763 -90.6664 87.0481 -121.81 -89.8443 87.5216 -122.854 -91.5834 86.3704 
-121.987 -88.995 87.9398 -122.935 -90.4374 86.7205 -124.02 -92.8594 85.4802 
-122.41 -88.1491 88.3346 -123.186 -89.3159 87.0485 -124.172 -91.6212 85.7033 
-125.351 -94.0735 84.4573 -122.914 -87.232 88.5388 -123.65 -88.2704 87.3255 
-124.509 -90.5186 85.9388 -125.666 -93.1649 84.6426 -126.864 -95.0055 83.5429 
-123.196 -86.3215 88.2933 -124.084 -87.2311 87.2875 -124.95 -89.4948 86.0448 
-126.116 -92.4515 84.8501 -127.383 -94.6081 83.8204 -128.422 -95.9055 82.9047 
-123.252 -85.7893 87.6217 -124.305 -86.4175 86.7852 -125.279 -88.4802 85.764 
-126.514 -91.6132 84.8272 -127.914 -94.2102 84.0607 -129.058 -95.6394 83.2767 
-129.862 -97.0852 82.4602 -123.303 -85.7913 86.7963 -124.43 -86.1603 86.0302 
-125.487 -87.7627 85.154 -126.744 -90.608 84.4304 -128.234 -93.3978 83.9732 
-129.554 -95.0811 83.5003 -130.454 -96.3872 82.789 -131.091 -98.5611 82.0381 
-124.53 -86.6208 84.7842 -125.803 -87.6284 83.5408 -125.788 -87.4977 84.0321 
-127.227 -88.9488 82.3933 -127.21 -88.9527 82.9222 -127.058 -89.1861 83.3796 
-128.592 -90.2491 81.3516 -128.672 -90.2718 81.9621 -128.581 -90.625 82.4964 
-128.437 -91.3257 83.0157 -129.704 -91.4814 80.3807 -129.923 -91.3648 81.0005 
-129.984 -91.5972 81.6387 -129.929 -92.1747 82.2613 -129.861 -93.0707 82.8741 
-130.605 -92.9914 79.4851 -130.949 -92.735 79.9978 -131.16 -92.7233 80.6199 
-131.209 -92.9453 81.3103 -131.165 -93.4668 82.013 -131.059 -94.3538 82.5955 
-131.392 -94.9074 78.6936 -131.86 -94.6781 79.0786 -132.217 -94.5919 79.5794 
-132.372 -94.582 80.2124 -132.329 -94.7034 80.9244 -132.175 -95.2328 81.5788 
[...]
POINT_DATA 1002
FIELD FieldData 4
_paraPhi 1 1002 double
6.2831853072 3.1415926536 6.2831853072 3.1415926536 4.7123889804 4.7123889804 1.5707963268 1.5707963268 3.6951670125 
5.7296109483 2.5880182947 0.5535743589 6.2831853072 6.2831853072 6.2831853072 6.2831853072 3.1415926536 3.1415926536 
3.1415926536 3.1415926536 3.1415926536 6.1053039672 5.898798347 5.6768734901 5.4599499503 5.2659633393 5.1032165617 
4.9713148346 4.8656852733 4.7809517865 0.17788134 0.38438696014 0.60631181711 0.82323535693 1.0172219679 1.1799687454 
1.3118704726 1.4175000338 1.5022335207 6.1892828907 6.1070320098 6.035312792 5.9728339911 5.9183214791 5.8706119594 
5.8286879411 5.7916808611 5.7588591896 0.093902416448 0.17615329733 0.2478725152 0.31035131605 0.36486382811 0.41257334776 
0.45449736604 0.4915044461 0.52432611754 3.3194739936 3.5259796137 3.7479044707 3.9648280105 4.1588146215 4.321561399 
4.4534631262 4.5590926874 4.6438261743 2.9637113136 2.7572056934 2.5352808365 2.3183572967 2.1243706857 1.9616239082 
1.829722181 1.7240926197 1.6393591329 3.23549507 3.3177459509 3.3894651688 3.4519439696 3.5064564817 3.5541660013 
3.5960900196 3.6330970997 3.6659187711 3.0476902371 2.9654393563 2.8937201384 2.8312413375 2.7767288255 2.7290193058 
2.6870952876 2.6500882075 2.617266536 6.2831853072 6.2831853072 6.2831853072 6.2831853072 3.1415926536 3.1415926536 
3.1415926536 3.1415926536 3.1415926536 6.1053039672 5.898798347 5.6768734901 5.4599499503 5.2659633393 5.1032165617 
4.9713148346 4.8656852733 4.7809517865 0.17788134 0.38438696014 0.60631181711 0.82323535693 1.0172219679 1.1799687454 
1.3118704726 1.4175000338 1.5022335207 6.1892828907 6.1070320098 6.035312792 5.9728339911 5.9183214791 5.8706119594 
5.8286879411 5.7916808611 5.7588591896 0.093902416448 0.17615329733 0.2478725152 0.31035131605 0.36486382811 0.41257334776 
0.45449736604 0.4915044461 0.52432611754 3.3194739936 3.5259796137 3.7479044707 3.9648280105 4.1588146215 4.321561399 
4.4534631262 4.5590926874 4.6438261743 2.9637113136 2.7572056934 2.5352808365 2.3183572967 2.1243706857 1.9616239082 
1.829722181 1.7240926197 1.6393591329 3.23549507 3.3177459509 3.3894651688 3.4519439696 3.5064564817 3.5541660013 
3.5960900196 3.6330970997 3.6659187711 3.0476902371 2.9654393563 2.8937201384 2.8312413375 2.7767288255 2.7290193058 
2.6870952876 2.6500882075 2.617266536 4.7123889804 4.7123889804 4.7123889804 4.7123889804 4.7123889804 4.7123889804 
4.7123889804 4.7123889804 4.7123889804 4.6087898617 4.4991390697 4.3857031936 4.2712800401 4.1588146215 4.0509635631 
3.94975894 3.8564636551 3.7716124825 4.8159880991 4.9256388911 5.0390747672 5.1534979207 5.2659633393 5.3738143976 
5.4750190208 5.5683143056 5.6531654782 4.6087898617 4.4991390697 4.3857031936 4.2712800401 4.1588146215 4.0509635631 
3.94975894 3.8564636551 3.7716124825 4.8159880991 4.9256388911 5.0390747672 5.1534979207 5.2659633393 5.3738143976 
5.4750190208 5.5683143056 5.6531654782 1.5707963268 1.5707963268 1.5707963268 1.5707963268 1.5707963268 1.5707963268 
1.5707963268 1.5707963268 1.5707963268 1.6743954455 1.7840462375 1.8974821136 2.0119052671 2.1243706857 2.232221744 
2.3334263672 2.426721652 2.5115728246 1.4671972081 1.3575464161 1.24411054 1.1296873865 1.0172219679 0.90937090954 
0.80816628637 0.71487100155 0.63001982895 1.6743954455 1.7840462375 1.8974821136 2.0119052671 2.1243706857 2.232221744 
2.3334263672 2.426721652 2.5115728246 1.4671972081 1.3575464161 1.24411054 1.1296873865 1.0172219679 0.90937090954 
0.80816628637 0.71487100155 0.63001982895 3.6007720849 3.4966939854 3.3839471039 3.2645756454 3.1415926536 3.0186096618 
2.8992382033 2.7864913217 2.6824132222 5.8240058758 5.9280839753 6.0408308569 6.1602023154 6.2831853072 0.12298299178 
0.2423544503 0.35510133185 0.45917943135 6.0560271438 5.7885595667 5.9702140275 5.5125918794 5.6029703303 5.7885595667 
5.2659633393 5.2659633393 5.2659633393 5.2659633393 5.0674903122 5.0120975802 4.9155579264 4.7123889804 4.1588146215 
4.9155579264 4.8353719722 4.7123889804 4.5092200343 4.1588146215 3.6362183941 4.8004512023 4.7123889804 4.5894059886 
4.4126803806 4.1588146215 3.8218076305 3.4545639333 4.7123889804 4.6243267584 4.5092200343 4.3572876485 4.1588146215 
3.9121860814 3.6362183941 3.368750817 6.0174235957 5.9434319871 5.8263323547 5.8809213739 5.7674481418 5.6279784266 
5.8278025282 5.718968232 5.5891129425 5.4372443565 5.7823484065 5.678536687 5.5575666702 5.4192596322 5.2659633393 
5.743164462 5.6444075337 5.5314983644 5.4046708639 5.2659633393 5.1195510325 5.7091357773 5.6152775188 5.5096229709 
5.3926039573 5.2659633393 5.1329233157 4.9978930058 5.6793730533 5.5901633916 5.4910209005 5.3824597928 5.2659633393 
5.1440684722 5.0201624502 4.8979782167 5.5683143056 5.4750190208 5.4750190208 5.3738143976 5.3738143976 5.3738143976 
5.2659633393 5.2659633393 5.2659633393 5.2659633393 5.1534979207 5.1534979207 5.1534979207 5.1534979207 5.1534979207 
5.0390747672 5.0390747672 5.0390747672 5.0390747672 5.0390747672 5.0390747672 4.9256388911 4.9256388911 4.9256388911 
4.9256388911 4.9256388911 4.9256388911 4.9256388911 4.8159880991 4.8159880991 4.8159880991 4.8159880991 4.8159880991 
4.8159880991 4.8159880991 4.8159880991 4.6087898617 4.6087898617 4.4991390697 4.6087898617 4.4991390697 4.3857031936 
4.6087898617 4.4991390697 4.3857031936 4.2712800401 4.6087898617 4.4991390697 4.3857031936 4.2712800401 4.1588146215 
4.6087898617 4.4991390697 4.3857031936 4.2712800401 4.1588146215 4.0509635631 4.6087898617 4.4991390697 4.3857031936 
4.2712800401 4.1588146215 4.0509635631 3.94975894 4.6087898617 4.4991390697 4.3857031936 4.2712800401 4.1588146215 
4.0509635631 3.94975894 3.8564636551 4.526799744 4.4046155105 4.426884955 4.2807094886 4.2918546451 4.3052269283 
4.1588146215 4.1588146215 4.1588146215 4.1588146215 4.042318168 4.0321740035 4.0201070968 4.0055183285 3.9875336042 
3.9337570603 3.9151549899 3.8932795963 3.8672112905 3.8356650183 3.7967995342 3.8346145692 3.809500442 3.7803704271 
3.7462412737 3.7058097288 3.657329819 3.5984456061 3.7454049075 3.7156421835 3.6816134988 3.6424295543 3.5969754326 
3.5438565869 3.4813459737 3.4073543651 3.5642842451 3.4524645613 3.5233842518 3.3320300872 3.403123212 3.4773852225 
3.20576226 3.2746326772 3.348015857 3.4255060145 3.0774230472 3.1415926536 3.2112816139 3.2864685043 3.3668817272 
2.95115522 3.00855263 3.0719036933 3.1415926536 3.2178377658 3.3005964304 2.8307207459 2.8800620952 2.9351694502 
2.9967168029 3.0653475414 3.1415926536 3.225752376 2.718901062 2.7598010554 2.8058000847 2.8576792927 2.91630358 
2.9825888767 3.0574329311 3.1415926536 3.5642842451 3.5233842518 3.4524645613 3.4773852225 3.403123212 3.3320300872 
3.4255060145 3.348015857 3.2746326772 3.20576226 3.3668817272 3.2864685043 3.2112816139 3.1415926536 3.0774230472 
3.3005964304 3.2178377658 3.1415926536 3.0719036933 3.00855263 2.95115522 3.225752376 3.1415926536 3.0653475414 
2.9967168029 2.9351694502 2.8800620952 2.8307207459 3.1415926536 3.0574329311 2.9825888767 2.91630358 2.8576792927 
2.8058000847 2.7598010554 2.718901062 4.526799744 4.426884955 4.4046155105 4.3052269283 4.2918546451 4.2807094886 
4.1588146215 4.1588146215 4.1588146215 4.1588146215 3.9875336042 4.0055183285 4.0201070968 4.0321740035 4.042318168 
3.7967995342 3.8356650183 3.8672112905 3.8932795963 3.9151549899 3.9337570603 3.5984456061 3.657329819 3.7058097288 
3.7462412737 3.7803704271 3.809500442 3.8346145692 3.4073543651 3.4813459737 3.5438565869 3.5969754326 3.6424295543 
3.6816134988 3.7156421835 3.7454049075 4.7123889804 4.8004512023 4.6243267584 4.9155579264 4.7123889804 4.5092200343 
5.0674903122 4.8353719722 4.5894059886 4.3572876485 5.2659633393 5.0120975802 4.7123889804 4.4126803806 4.1588146215 
5.5125918794 5.2659633393 4.9155579264 4.5092200343 4.1588146215 3.9121860814 5.7885595667 5.6029703303 5.2659633393 
4.7123889804 4.1588146215 3.8218076305 3.6362183941 6.0560271438 5.9702140275 5.7885595667 5.2659633393 4.1588146215 
3.6362183941 3.4545639333 3.368750817 0.22715816343 0.49462574053 0.3129712797 0.77059342779 0.68021497688 0.49462574053 
1.0172219679 1.0172219679 1.0172219679 1.0172219679 1.2156949949 1.271087727 1.3676273807 1.5707963268 2.1243706857 
1.3676273807 1.447813335 1.5707963268 1.7739652728 2.1243706857 2.6469669131 1.4827341049 1.5707963268 1.6937793186 
1.8705049266 2.1243706857 2.4613776767 2.8286213739 1.5707963268 1.6588585487 1.7739652728 1.9258976586 2.1243706857 
2.3709992258 2.6469669131 2.9144344902 1.7563855631 1.8785697967 1.8563003522 2.0024758186 1.9913306621 1.9779583789 
2.1243706857 2.1243706857 2.1243706857 2.1243706857 2.2408671392 2.2510113037 2.2630782103 2.2776669786 2.295651703 
2.3494282469 2.3680303173 2.3899057108 2.4159740166 2.4475202889 2.486385773 2.448570738 2.4736848652 2.5028148801 
2.5369440334 2.5773755784 2.6258554882 2.6847397011 2.5377803997 2.5675431237 2.6015718084 2.6407557529 2.6862098746 
2.7393287203 2.8018393335 2.8758309421 1.6743954455 1.6743954455 1.7840462375 1.6743954455 1.7840462375 1.8974821136 
1.6743954455 1.7840462375 1.8974821136 2.0119052671 1.6743954455 1.7840462375 1.8974821136 2.0119052671 2.1243706857 
1.6743954455 1.7840462375 1.8974821136 2.0119052671 2.1243706857 2.232221744 1.6743954455 1.7840462375 1.8974821136 
2.0119052671 2.1243706857 2.232221744 2.3334263672 1.6743954455 1.7840462375 1.8974821136 2.0119052671 2.1243706857 
2.232221744 2.3334263672 2.426721652 1.4671972081 1.3575464161 1.4671972081 1.24411054 1.3575464161 1.4671972081 
1.1296873865 1.24411054 1.3575464161 1.4671972081 1.0172219679 1.1296873865 1.24411054 1.3575464161 1.4671972081 
0.90937090954 1.0172219679 1.1296873865 1.24411054 1.3575464161 1.4671972081 0.80816628637 0.90937090954 1.0172219679 
1.1296873865 1.24411054 1.3575464161 1.4671972081 0.71487100155 0.80816628637 0.90937090954 1.0172219679 1.1296873865 
1.24411054 1.3575464161 1.4671972081 0.60381225391 0.57404952988 0.69302191562 0.54002084522 0.66790778838 0.79216440667 
0.50083690068 0.63877777351 0.77356233629 0.90072551443 0.45538277901 0.60464862014 0.75168694275 0.89058134991 1.0172219679 
0.40226393329 0.56421707518 0.72561863695 0.87851444325 1.0172219679 1.139116835 0.33975332011 0.51573716537 0.69407236469 
0.86392567495 1.0172219679 1.1502619915 1.2630228569 0.26576171152 0.45685295248 0.6552068806 0.84594095064 1.0172219679 
1.1636342747 1.2852923014 1.3852070904 0.22715816343 0.3129712797 0.49462574053 0.49462574053 0.68021497688 0.77059342779 
1.0172219679 1.0172219679 1.0172219679 1.0172219679 2.1243706857 1.5707963268 1.3676273807 1.271087727 1.2156949949 
2.6469669131 2.1243706857 1.7739652728 1.5707963268 1.447813335 1.3676273807 2.8286213739 2.4613776767 2.1243706857 
1.8705049266 1.6937793186 1.5707963268 1.4827341049 2.9144344902 2.6469669131 2.3709992258 2.1243706857 1.9258976586 
1.7739652728 1.6588585487 1.5707963268 1.7563855631 1.8563003522 1.8785697967 1.9779583789 1.9913306621 2.0024758186 
2.1243706857 2.1243706857 2.1243706857 2.1243706857 2.295651703 2.2776669786 2.2630782103 2.2510113037 2.2408671392 
2.486385773 2.4475202889 2.4159740166 2.3899057108 2.3680303173 2.3494282469 2.6847397011 2.6258554882 2.5773755784 
2.5369440334 2.5028148801 2.4736848652 2.448570738 2.8758309421 2.8018393335 2.7393287203 2.6862098746 2.6407557529 
2.6015718084 2.5675431237 2.5377803997 5.8604937156 5.901393709 5.9723133995 5.9473927383 6.0216547488 6.0927478736 
5.9992719463 6.0767621038 6.1501452836 6.2190157008 6.0578962336 6.1383094565 6.2134963469 0 0.064169606361 
6.1241815303 6.206940195 6.2831853072 0.069688960264 0.13304002361 0.19043743361 6.1990255847 0 0.07624511221 
0.14487585072 0.20642320337 0.26153055843 0.3108719077 0 0.084159722458 0.15900377685 0.22528907359 0.28391336087 
0.3357925689 0.38179159818 0.42269159155 5.8604937156 5.9723133995 5.901393709 6.0927478736 6.0216547488 5.9473927383 
6.2190157008 6.1501452836 6.0767621038 5.9992719463 0.064169606361 0 6.2134963469 6.1383094565 6.0578962336 
0.19043743361 0.13304002361 0.069688960264 6.2831853072 6.206940195 6.1241815303 0.3108719077 0.26153055843 0.20642320337 
0.14487585072 0.07624511221 6.2831853072 6.1990255847 0.42269159155 0.38179159818 0.3357925689 0.28391336087 0.22528907359 
0.15900377685 0.084159722458 0 5.6793730533 5.7091357773 5.5901633916 5.743164462 5.6152775188 5.4910209005 
5.7823484065 5.6444075337 5.5096229709 5.3824597928 5.8278025282 5.678536687 5.5314983644 5.3926039573 5.2659633393 
5.8809213739 5.718968232 5.5575666702 5.4046708639 5.2659633393 5.1440684722 5.9434319871 5.7674481418 5.5891129425 
5.4192596322 5.2659633393 5.1329233157 5.0201624502 6.0174235957 5.8263323547 5.6279784266 5.4372443565 5.2659633393 
5.1195510325 4.9978930058 4.8979782167 1.3852070904 1.2852923014 1.2630228569 1.1636342747 1.1502619915 1.139116835 
1.0172219679 1.0172219679 1.0172219679 1.0172219679 0.84594095064 0.86392567495 0.87851444325 0.89058134991 0.90072551443 
0.6552068806 0.69407236469 0.72561863695 0.75168694275 0.77356233629 0.79216440667 0.45685295248 0.51573716537 0.56421707518 
0.60464862014 0.63877777351 0.66790778838 0.69302191562 0.26576171152 0.33975332011 0.40226393329 0.45538277901 0.50083690068 
0.54002084522 0.57404952988 0.60381225391 
_paraPhiHalf 1 1002 double
0 3.1415926536 0 3.1415926536 1.5707963268 1.5707963268 1.5707963268 1.5707963268 2.5880182947 
0.5535743589 2.5880182947 0.5535743589 0 0 0 0 3.1415926536 3.1415926536 
3.1415926536 3.1415926536 3.1415926536 0.17788134 0.38438696014 0.60631181711 0.82323535693 1.0172219679 1.1799687454 
1.3118704726 1.4175000338 1.5022335207 0.17788134 0.38438696014 0.60631181711 0.82323535693 1.0172219679 1.1799687454 
1.3118704726 1.4175000338 1.5022335207 0.093902416448 0.17615329733 0.2478725152 0.31035131605 0.36486382811 0.41257334776 
0.45449736604 0.4915044461 0.52432611754 0.093902416448 0.17615329733 0.2478725152 0.31035131605 0.36486382811 0.41257334776 
0.45449736604 0.4915044461 0.52432611754 2.9637113136 2.7572056934 2.5352808365 2.3183572967 2.1243706857 1.9616239082 
1.829722181 1.7240926197 1.6393591329 2.9637113136 2.7572056934 2.5352808365 2.3183572967 2.1243706857 1.9616239082 
1.829722181 1.7240926197 1.6393591329 3.0476902371 2.9654393563 2.8937201384 2.8312413375 2.7767288255 2.7290193058 
2.6870952876 2.6500882075 2.617266536 3.0476902371 2.9654393563 2.8937201384 2.8312413375 2.7767288255 2.7290193058 
2.6870952876 2.6500882075 2.617266536 0 0 0 0 3.1415926536 3.1415926536 
3.1415926536 3.1415926536 3.1415926536 0.17788134 0.38438696014 0.60631181711 0.82323535693 1.0172219679 1.1799687454 
1.3118704726 1.4175000338 1.5022335207 0.17788134 0.38438696014 0.60631181711 0.82323535693 1.0172219679 1.1799687454 
1.3118704726 1.4175000338 1.5022335207 0.093902416448 0.17615329733 0.2478725152 0.31035131605 0.36486382811 0.41257334776 
0.45449736604 0.4915044461 0.52432611754 0.093902416448 0.17615329733 0.2478725152 0.31035131605 0.36486382811 0.41257334776 
0.45449736604 0.4915044461 0.52432611754 2.9637113136 2.7572056934 2.5352808365 2.3183572967 2.1243706857 1.9616239082 
1.829722181 1.7240926197 1.6393591329 2.9637113136 2.7572056934 2.5352808365 2.3183572967 2.1243706857 1.9616239082 
1.829722181 1.7240926197 1.6393591329 3.0476902371 2.9654393563 2.8937201384 2.8312413375 2.7767288255 2.7290193058 
2.6870952876 2.6500882075 2.617266536 3.0476902371 2.9654393563 2.8937201384 2.8312413375 2.7767288255 2.7290193058 
2.6870952876 2.6500882075 2.617266536 1.5707963268 1.5707963268 1.5707963268 1.5707963268 1.5707963268 1.5707963268 
1.5707963268 1.5707963268 1.5707963268 1.6743954455 1.7840462375 1.8974821136 2.0119052671 2.1243706857 2.232221744 
2.3334263672 2.426721652 2.5115728246 1.4671972081 1.3575464161 1.24411054 1.1296873865 1.0172219679 0.90937090954 
0.80816628637 0.71487100155 0.63001982895 1.6743954455 1.7840462375 1.8974821136 2.0119052671 2.1243706857 2.232221744 
2.3334263672 2.426721652 2.5115728246 1.4671972081 1.3575464161 1.24411054 1.1296873865 1.0172219679 0.90937090954 
0.80816628637 0.71487100155 0.63001982895 1.5707963268 1.5707963268 1.5707963268 1.5707963268 1.5707963268 1.5707963268 
1.5707963268 1.5707963268 1.5707963268 1.6743954455 1.7840462375 1.8974821136 2.0119052671 2.1243706857 2.232221744 
2.3334263672 2.426721652 2.5115728246 1.4671972081 1.3575464161 1.24411054 1.1296873865 1.0172219679 0.90937090954 
0.80816628637 0.71487100155 0.63001982895 1.6743954455 1.7840462375 1.8974821136 2.0119052671 2.1243706857 2.232221744 
2.3334263672 2.426721652 2.5115728246 1.4671972081 1.3575464161 1.24411054 1.1296873865 1.0172219679 0.90937090954 
0.80816628637 0.71487100155 0.63001982895 2.6824132222 2.7864913217 2.8992382033 3.0186096618 3.1415926536 3.0186096618 
2.8992382033 2.7864913217 2.6824132222 0.45917943135 0.35510133185 0.2423544503 0.12298299178 0 0.12298299178 
0.2423544503 0.35510133185 0.45917943135 0.22715816343 0.49462574053 0.3129712797 0.77059342779 0.68021497688 0.49462574053 
1.0172219679 1.0172219679 1.0172219679 1.0172219679 1.2156949949 1.271087727 1.3676273807 1.5707963268 2.1243706857 
1.3676273807 1.447813335 1.5707963268 1.7739652728 2.1243706857 2.6469669131 1.4827341049 1.5707963268 1.6937793186 
1.8705049266 2.1243706857 2.4613776767 2.8286213739 1.5707963268 1.6588585487 1.7739652728 1.9258976586 2.1243706857 
2.3709992258 2.6469669131 2.9144344902 0.26576171152 0.33975332011 0.45685295248 0.40226393329 0.51573716537 0.6552068806 
0.45538277901 0.56421707518 0.69407236469 0.84594095064 0.50083690068 0.60464862014 0.72561863695 0.86392567495 1.0172219679 
0.54002084522 0.63877777351 0.75168694275 0.87851444325 1.0172219679 1.1636342747 0.57404952988 0.66790778838 0.77356233629 
0.89058134991 1.0172219679 1.1502619915 1.2852923014 0.60381225391 0.69302191562 0.79216440667 0.90072551443 1.0172219679 
1.139116835 1.2630228569 1.3852070904 0.71487100155 0.80816628637 0.80816628637 0.90937090954 0.90937090954 0.90937090954 
1.0172219679 1.0172219679 1.0172219679 1.0172219679 1.1296873865 1.1296873865 1.1296873865 1.1296873865 1.1296873865 
1.24411054 1.24411054 1.24411054 1.24411054 1.24411054 1.24411054 1.3575464161 1.3575464161 1.3575464161 
1.3575464161 1.3575464161 1.3575464161 1.3575464161 1.4671972081 1.4671972081 1.4671972081 1.4671972081 1.4671972081 
1.4671972081 1.4671972081 1.4671972081 1.6743954455 1.6743954455 1.7840462375 1.6743954455 1.7840462375 1.8974821136 
1.6743954455 1.7840462375 1.8974821136 2.0119052671 1.6743954455 1.7840462375 1.8974821136 2.0119052671 2.1243706857 
1.6743954455 1.7840462375 1.8974821136 2.0119052671 2.1243706857 2.232221744 1.6743954455 1.7840462375 1.8974821136 
2.0119052671 2.1243706857 2.232221744 2.3334263672 1.6743954455 1.7840462375 1.8974821136 2.0119052671 2.1243706857 
2.232221744 2.3334263672 2.426721652 1.7563855631 1.8785697967 1.8563003522 2.0024758186 1.9913306621 1.9779583789 
2.1243706857 2.1243706857 2.1243706857 2.1243706857 2.2408671392 2.2510113037 2.2630782103 2.2776669786 2.295651703 
2.3494282469 2.3680303173 2.3899057108 2.4159740166 2.4475202889 2.486385773 2.448570738 2.4736848652 2.5028148801 
2.5369440334 2.5773755784 2.6258554882 2.6847397011 2.5377803997 2.5675431237 2.6015718084 2.6407557529 2.6862098746 
2.7393287203 2.8018393335 2.8758309421 2.718901062 2.8307207459 2.7598010554 2.95115522 2.8800620952 2.8058000847 
3.0774230472 3.00855263 2.9351694502 2.8576792927 3.0774230472 3.1415926536 3.0719036933 2.9967168029 2.91630358 
2.95115522 3.00855263 3.0719036933 3.1415926536 3.0653475414 2.9825888767 2.8307207459 2.8800620952 2.9351694502 
2.9967168029 3.0653475414 3.1415926536 3.0574329311 2.718901062 2.7598010554 2.8058000847 2.8576792927 2.91630358 
2.9825888767 3.0574329311 3.1415926536 2.718901062 2.7598010554 2.8307207459 2.8058000847 2.8800620952 2.95115522 
2.8576792927 2.9351694502 3.00855263 3.0774230472 2.91630358 2.9967168029 3.0719036933 3.1415926536 3.0774230472 
2.9825888767 3.0653475414 3.1415926536 3.0719036933 3.00855263 2.95115522 3.0574329311 3.1415926536 3.0653475414 