# vtk DataFile Version 5.1
vtk output
ASCII
DATASET POLYDATA
POINTS 1002 float
-130.146 -93.9688 105.157 -132.623 -109.825 88.785 -130.026 -88.8652 100.528 
-129.084 -105.563 84.9489 -138.324 -101.155 95.5203 -136.715 -97.4793 92.133 
-130.282 -100.026 96.1042 -128.525 -99.704 92.9605 -134.353 -113.067 81.2855 
-131.372 -86.7523 107.103 -122.868 -115.141 85.5371 -120.656 -90.5365 109.406 
-130.872 -94.5501 103.806 -131.669 -95.6805 102.381 -132.509 -97.2138 100.768 
-133.261 -99.0613 98.8851 -133.74 -101.289 96.8748 -133.863 -103.627 94.9172 
-133.698 -105.522 93.037 -133.373 -106.927 91.2917 -132.992 -108.29 89.8501 
-130.994 -94.3699 104.547 -131.931 -95.0493 103.813 -132.954 -95.8805 102.915 
-134.036 -96.6762 101.84 -135.116 -97.416 100.663 -136.127 -98.2328 99.511 
-136.987 -99.1333 98.4547 -137.628 -99.9593 97.4667 -138.048 -100.619 96.4932 
-129.778 -93.9228 104.845 -129.446 -94.0016 104.437 -129.21 -94.365 103.935 
-129.122 -95.0548 103.306 -129.171 -95.8264 102.488 -129.315 -96.3586 101.436 
-129.551 -96.7013 100.173 -129.867 -97.2739 98.7908 -130.161 -98.3973 97.4046 
-129.958 -93.8647 106.157 -129.814 -93.7892 107.103 -129.794 -93.6471 107.86 
-129.989 -93.2966 108.429 -130.399 -92.4887 108.862 -130.855 -91.1409 109.045 
-131.152 -89.5972 108.827 -131.255 -88.2999 108.296 -131.289 -87.3829 107.68 
-129.155 -93.8458 106.401 -128.043 -94.0873 107.747 -126.873 -94.2661 108.964 
-125.716 -93.9788 109.822 -124.571 -93.362 110.357 -123.381 -92.8064 110.747 
-122.198 -92.3306 110.94 -121.237 -91.7451 110.734 -120.705 -91.087 110.145 
-133.214 -108.981 89.0393 -133.853 -108.274 89.4322 -134.519 -107.613 89.9657 
-135.177 -106.715 90.5997 -135.827 -105.589 91.3262 -136.494 -104.602 92.1684 
-137.133 -103.888 93.0885 -137.649 -103.183 93.9906 -138.026 -102.265 94.8075 
-132.28 -109.778 89.1974 -131.959 -109.793 89.7231 -131.664 -109.756 90.366 
-131.393 -109.579 91.122 -131.161 -109.09 91.9334 -131.002 -107.956 92.7217 
-130.911 -106.068 93.497 -130.812 -103.814 94.3289 -130.613 -101.716 95.2206 
-132.654 -111.021 88.0324 -132.767 -112.392 87.2751 -132.948 -113.63 86.4234 
-133.147 -114.46 85.4798 -133.339 -114.854 84.5451 -133.556 -115.031 83.6629 
-133.816 -115.17 82.8133 -134.077 -115.081 82.0602 -134.268 -114.396 81.5318 
-131.995 -111.386 88.1296 -131.22 -112.746 87.4906 -130.286 -113.593 86.8345 
-129.257 -114.144 86.2187 -128.231 -114.843 85.7648 -127.219 -115.592 85.5243 
-126.13 -115.938 85.447 -124.941 -115.818 85.4595 -123.792 -115.504 85.503 
-130.788 -89.9214 99.0655 -131.564 -91.808 97.461 -132.119 -94.353 95.6562 
-132.238 -96.9558 93.6155 -131.922 -99.1787 91.5243 -131.361 -101.006 89.6719 
-130.725 -102.472 88.1404 -130.099 -103.605 86.8528 -129.54 -104.588 85.7863 
-130.841 -89.3128 99.881 -131.708 -90.0047 99.1131 -132.531 -90.7622 98.2241 
-133.305 -91.5551 97.2481 -134.079 -92.5037 96.2405 -134.806 -93.5662 95.2447 
-135.395 -94.5599 94.3059 -135.871 -95.4842 93.4723 -136.309 -96.4606 92.7558 
-129.744 -89.2123 100.24 -129.578 -90.0237 99.9091 -129.546 -91.1789 99.4953 
-129.566 -92.3268 98.9275 -129.561 -93.3405 98.143 -129.557 -94.4336 97.122 
-129.541 -95.7163 95.9305 -129.391 -97.0604 94.7389 -129.03 -98.381 93.7255 
-129.805 -88.4546 101.601 -129.618 -88.0894 102.691 -129.465 -87.4355 103.659 
-129.387 -86.5258 104.47 -129.46 -85.8289 105.228 -129.703 -85.6536 105.978 
-130.056 -85.8238 106.599 -130.457 -86.0696 106.97 -130.895 -86.3484 107.106 
-129.111 -88.4484 101.787 -128.219 -88.4187 103.065 -127.341 -88.7331 104.298 
-126.403 -89.3307 105.49 -125.367 -89.9721 106.656 -124.245 -90.2399 107.697 
-123.059 -90.0343 108.466 -121.926 -89.7826 108.944 -121.07 -89.9316 109.229 
-129.883 -105.06 85.1009 -130.753 -104.427 85.4154 -131.683 -103.749 85.8792 
-132.64 -103.103 86.4758 -133.561 -102.487 87.2464 -134.388 -101.81 88.2102 
-135.11 -100.956 89.2637 -135.743 -99.8774 90.2813 -136.283 -98.662 91.2319 
-128.55 -105.325 85.3715 -128.002 -104.957 85.8621 -127.509 -104.477 86.3978 
-127.144 -103.927 87.0311 -126.928 -103.415 87.8191 -126.903 -103.06 88.7 
-127.151 -102.75 89.5976 -127.641 -102.148 90.5768 -128.171 -101.075 91.7199 
-129.193 -106.295 84.2573 -129.396 -106.99 83.5448 -129.717 -107.455 82.782 
-130.17 -107.677 81.9846 -130.755 -108.031 81.2921 -131.469 -108.912 80.8634 
-132.288 -110.222 80.7035 -133.118 -111.52 80.7272 -133.83 -112.491 80.914 
-128.337 -106.425 84.4902 -127.527 -107.156 84.1113 -126.628 -107.628 83.7733 
-125.665 -108.078 83.4836 -124.781 -109.083 83.3599 -124.109 -110.852 83.5162 
-123.599 -112.763 83.9181 -123.166 -114.062 84.4419 -122.879 -114.705 84.9975 
-138.679 -100.695 95.2962 -139.098 -100.126 94.9664 -139.46 -99.4016 94.5023 
-139.54 -98.5356 93.964 -139.227 -97.7436 93.4873 -138.679 -97.3115 93.1441 
-138.13 -97.2596 92.8755 -137.649 -97.3531 92.6079 -137.184 -97.4234 92.3466 
-138.352 -102.377 94.0253 -138.31 -103.6 92.333 -138.18 -104.919 90.5547 
-137.955 -106.452 88.7963 -137.655 -108.076 87.1071 -137.238 -109.452 85.5189 
-136.633 -110.425 84.1022 -135.879 -111.226 82.9286 -135.097 -112.115 82.0042 
-138.424 -99.4993 96.8055 -138.391 -97.6199 98.142 -138.064 -95.806 99.5416 
-137.32 -94.2342 100.996 -136.275 -92.8001 102.418 -135.21 -91.2876 103.689 
-134.243 -89.6796 104.76 -133.296 -88.2334 105.659 -132.323 -87.2379 106.431 
-136.811 -99.2228 90.927 -136.805 -100.902 89.5656 -136.745 -102.368 88.1203 
-136.723 -103.708 86.7185 -136.709 -104.956 85.4214 -136.514 -105.97 84.2041 
-136.049 -106.966 83.1031 -135.443 -108.526 82.2351 -134.861 -110.755 81.6479 
-136.804 -95.7075 93.4429 -136.756 -93.995 94.8994 -136.545 -92.3953 96.4785 
-136.132 -90.8254 98.1419 -135.472 -89.3194 99.8931 -134.611 -88.024 101.709 
-133.708 -87.0549 103.436 -132.87 -86.5287 104.904 -132.094 -86.4808 106.095 
-130.025 -100.224 95.8258 -129.734 -100.432 95.4737 -129.397 -100.704 95.1054 
-129.006 -101.033 94.8014 -128.599 -101.216 94.5882 -128.28 -101.007 94.3982 
-128.141 -100.477 94.1347 -128.184 -99.9725 93.7693 -128.337 -99.7246 93.3537 
-130.201 -103.276 94.331 -129.368 -106.873 92.6231 -127.956 -109.445 91.0427 
-126.481 -110.822 89.677 -125.259 -112.493 88.7302 -124.172 -115.026 88.2519 
-123.166 -116.834 87.8977 -122.528 -116.811 87.2955 -122.469 -115.829 86.4379 
-129.612 -97.8331 97.863 -128.439 -96.5969 99.7655 -127.039 -95.9683 101.567 
-125.743 -95.2692 103.164 -124.614 -94.4293 104.655 -123.482 -93.823 106.06 
-122.314 -93.3428 107.237 -121.323 -92.5635 108.129 -120.747 -91.4959 108.828 
-127.637 -101.972 91.6208 -126.453 -104.146 90.4979 -125.186 -106.054 89.6365 
-123.888 -107.922 88.9809 -122.538 -110.078 88.4163 -121.363 -112.323 87.8539 
-120.785 -114 87.2752 -120.995 -114.789 86.6919 -121.802 -115.013 86.1084 
-128.796 -97.3573 94.7616 -128.298 -95.2425 96.7141 -127.06 -93.9291 98.5439 
-125.618 -93.3034 100.224 -124.516 -92.7093 101.976 -123.683 -91.8813 103.848 
-122.746 -91.1525 105.589 -121.725 -90.7605 107.043 -120.963 -90.6004 108.287 
-133.556 -114.888 80.715 -132.565 -116.123 80.1678 -131.298 -116.223 79.8048 
-129.848 -115.565 79.8881 -128.448 -115.337 80.5544 -127.238 -115.946 81.6016 
-126.164 -116.413 82.689 -125.087 -116.034 83.6829 -123.955 -115.353 84.6277 
-130.315 -86.8967 108.136 -129.198 -87.1164 109.251 -128.108 -87.3486 110.297 
-126.976 -87.8565 111.099 -125.654 -88.8173 111.621 -124.171 -89.7509 111.89 
-122.757 -90.0954 111.802 -121.625 -90.045 111.261 -120.908 -90.1381 110.386 
-131.762 -95.3211 103.122 -132.734 -96.2973 102.286 -132.587 -96.6907 101.56 
-133.775 -97.2723 101.276 -133.561 -97.7725 100.576 -133.398 -98.3347 99.7777 
-134.829 -98.1636 100.144 -134.545 -98.8054 99.4678 -134.286 -99.4879 98.6779 
-134.023 -100.358 97.8105 -135.817 -99.0967 98.9981 -135.459 -99.8494 98.322 
-135.105 -100.63 97.5237 -134.737 -101.64 96.6825 -134.315 -102.708 95.8068 
-136.666 -100.123 97.9061 -136.245 -100.95 97.2013 -135.789 -101.731 96.3607 
-135.338 -102.747 95.4991 -134.835 -103.87 94.6592 -134.266 -104.768 93.8225 
-137.317 -101.064 96.857 -136.877 -101.95 96.109 -136.338 -102.67 95.2216 
-135.792 -103.558 94.3057 -135.241 -104.645 93.4525 -134.629 -105.546 92.6512 
-133.982 -106.197 91.91 -137.753 -101.766 95.8219 -137.342 -102.687 95.0323 
-136.785 -103.369 94.1248 -136.157 -104.118 93.1835 -135.541 -105.136 92.3145 
-134.917 -106.124 91.5378 -134.254 -106.82 90.8421 -133.596 -107.453 90.2682 
-130.896 -94.0928 105.468 -130.864 -93.8875 106.323 -131.944 -94.6096 104.635 
-130.97 -93.7325 107.025 -132.041 -94.2749 105.398 -133.076 -95.2973 103.615 
-131.284 -93.3927 107.578 -132.28 -94.0749 106.065 -133.274 -94.8476 104.275 
-134.241 -95.9797 102.397 -131.752 -92.488 107.925 -132.688 -93.6716 106.583 
-133.586 -94.5695 104.883 -134.489 -95.4497 102.94 -135.388 -96.6548 101.094 
-132.161 -91.0067 107.907 -133.137 -92.6248 106.793 -133.99 -94.0296 105.32 
-134.807 -95.0559 103.466 -135.677 -96.0376 101.546 -136.463 -97.4062 99.8769 
-132.34 -89.4148 107.516 -133.395 -91.036 106.599 -134.303 -92.8168 105.41 
-135.131 -94.2959 103.833 -135.997 -95.4093 102.017 -136.805 -96.5934 100.294 
-137.364 -98.1785 98.8079 -132.341 -88.1289 106.966 -133.397 -89.4467 106.15 
-134.363 -91.1772 105.161 -135.282 -92.9038 103.894 -136.243 -94.3292 102.352 
-137.136 -95.6037 100.722 -137.74 -97.0977 99.1993 -138.008 -98.8737 97.8117 
-133.03 -87.1667 105.344 -133.812 -87.4687 104.031 -133.976 -88.3426 104.449 
-134.726 -88.176 102.403 -134.804 -88.7299 102.979 -134.971 -89.7766 103.404 
-135.682 -89.2545 100.546 -135.798 -89.4422 101.211 -135.916 -90.0378 101.793 
-136.116 -91.2225 102.218 -136.458 -90.6818 98.6812 -136.725 -90.6266 99.2842 
-136.941 -90.7613 99.9248 -137.17 -91.4249 100.509 -137.343 -92.7301 100.895 
-136.946 -92.3043 96.9352 -137.352 -92.243 97.4098 -137.735 -92.1715 97.9436 
-138.085 -92.3747 98.5562 -138.321 -93.2029 99.1297 -138.314 -94.5132 99.4765 
-137.202 -93.9462 95.2979 -137.675 -93.9581 95.682 -138.166 -93.9353 96.063 
-138.642 -94.011 96.541 -138.976 -94.4981 97.1447 -139.02 -95.4626 97.7066 
[...]
POINT_DATA 1002
FIELD FieldData 4
_paraPhi 1 1002 double
6.2831853072 3.1415926536 6.2831853072 3.1415926536 4.7123889804 4.7123889804 1.5707963268 1.5707963268 3.6951670125 
5.7296109483 2.5880182947 0.5535743589 6.2831853072 6.2831853072 6.2831853072 6.2831853072 3.1415926536 3.1415926536 
3.1415926536 3.1415926536 3.1415926536 6.1053039672 5.898798347 5.6768734901 5.4599499503 5.2659633393 5.1032165617 
4.9713148346 4.8656852733 4.7809517865 0.17788134 0.38438696014 0.60631181711 0.82323535693 1.0172219679 1.1799687454 
1.3118704726 1.4175000338 1.5022335207 6.1892828907 6.1070320098 6.035312792 5.9728339911 5.9183214791 5.8706119594 
5.8286879411 5.7916808611 5.7588591896 0.093902416448 0.17615329733 0.2478725152 0.31035131605 0.36486382811 0.41257334776 
0.45449736604 0.4915044461 0.52432611754 3.3194739936 3.5259796137 3.7479044707 3.9648280105 4.1588146215 4.321561399 
4.4534631262 4.5590926874 4.6438261743 2.9637113136 2.7572056934 2.5352808365 2.3183572967 2.1243706857 1.9616239082 
1.829722181 1.7240926197 1.6393591329 3.23549507 3.3177459509 3.3894651688 3.4519439696 3.5064564817 3.5541660013 
3.5960900196 3.6330970997 3.6659187711 3.0476902371 2.9654393563 2.8937201384 2.8312413375 2.7767288255 2.7290193058 
2.6870952876 2.6500882075 2.617266536 6.2831853072 6.2831853072 6.2831853072 6.2831853072 3.1415926536 3.1415926536 
3.1415926536 3.1415926536 3.1415926536 6.1053039672 5.898798347 5.6768734901 5.4599499503 5.2659633393 5.1032165617 
4.9713148346 4.8656852733 4.7809517865 0.17788134 0.38438696014 0.60631181711 0.82323535693 1.0172219679 1.1799687454 
1.3118704726 1.4175000338 1.5022335207 6.1892828907 6.1070320098 6.035312792 5.9728339911 5.9183214791 5.8706119594 
5.8286879411 5.7916808611 5.7588591896 0.093902416448 0.17615329733 0.2478725152 0.31035131605 0.36486382811 0.41257334776 
0.45449736604 0.4915044461 0.52432611754 3.3194739936 3.5259796137 3.7479044707 3.9648280105 4.1588146215 4.321561399 
4.4534631262 4.5590926874 4.6438261743 2.9637113136 2.7572056934 2.5352808365 2.3183572967 2.1243706857 1.9616239082 
1.829722181 1.7240926197 1.6393591329 3.23549507 3.3177459509 3.3894651688 3.4519439696 3.5064564817 3.5541660013 
3.5960900196 3.6330970997 3.6659187711 3.0476902371 2.9654393563 2.8937201384 2.8312413375 2.7767288255 2.7290193058 
2.6870952876 2.6500882075 2.617266536 4.7123889804 4.7123889804 4.7123889804 4.7123889804 4.7123889804 4.7123889804 
4.7123889804 4.7123889804 4.7123889804 4.6087898617 4.4991390697 4.3857031936 4.2712800401 4.1588146215 4.0509635631 
3.94975894 3.8564636551 3.7716124825 4.8159880991 4.9256388911 5.0390747672 5.1534979207 5.2659633393 5.3738143976 
5.4750190208 5.5683143056 5.6531654782 4.6087898617 4.4991390697 4.3857031936 4.2712800401 4.1588146215 4.0509635631 
3.94975894 3.8564636551 3.7716124825 4.8159880991 4.9256388911 5.0390747672 5.1534979207 5.2659633393 5.3738143976 
5.4750190208 5.5683143056 5.6531654782 1.5707963268 1.5707963268 1.5707963268 1.5707963268 1.5707963268 1.5707963268 
1.5707963268 1.5707963268 1.5707963268 1.6743954455 1.7840462375 1.8974821136 2.0119052671 2.1243706857 2.232221744 
2.3334263672 2.426721652 2.5115728246 1.4671972081 1.3575464161 1.24411054 1.1296873865 1.0172219679 0.90937090954 
0.80816628637 0.71487100155 0.63001982895 1.6743954455 1.7840462375 1.8974821136 2.0119052671 2.1243706857 2.232221744 
2.3334263672 2.426721652 2.5115728246 1.4671972081 1.3575464161 1.24411054 1.1296873865 1.0172219679 0.90937090954 
0.80816628637 0.71487100155 0.63001982895 3.6007720849 3.4966939854 3.3839471039 3.2645756454 3.1415926536 3.0186096618 
2.8992382033 2.7864913217 2.6824132222 5.8240058758 5.9280839753 6.0408308569 6.1602023154 6.2831853072 0.12298299178 
0.2423544503 0.35510133185 0.45917943135 6.0560271438 5.7885595667 5.9702140275 5.5125918794 5.6029703303 5.7885595667 
5.2659633393 5.2659633393 5.2659633393 5.2659633393 5.0674903122 5.0120975802 4.9155579264 4.7123889804 4.1588146215 
4.9155579264 4.8353719722 4.7123889804 4.5092200343 4.1588146215 3.6362183941 4.8004512023 4.7123889804 4.5894059886 
4.4126803806 4.1588146215 3.8218076305 3.4545639333 4.7123889804 4.6243267584 4.5092200343 4.3572876485 4.1588146215 
3.9121860814 3.6362183941 3.368750817 6.0174235957 5.9434319871 5.8263323547 5.8809213739 5.7674481418 5.6279784266 
5.8278025282 5.718968232 5.5891129425 5.4372443565 5.7823484065 5.678536687 5.5575666702 5.4192596322 5.2659633393 
5.743164462 5.6444075337 5.5314983644 5.4046708639 5.2659633393 5.1195510325 5.7091357773 5.6152775188 5.5096229709 
5.3926039573 5.2659633393 5.1329233157 4.9978930058 5.6793730533 5.5901633916 5.4910209005 5.3824597928 5.2659633393 
5.1440684722 5.0201624502 4.8979782167 5.5683143056 5.4750190208 5.4750190208 5.3738143976 5.3738143976 5.3738143976 
5.2659633393 5.2659633393 5.2659633393 5.2659633393 5.1534979207 5.1534979207 5.1534979207 5.1534979207 5.1534979207 
5.0390747672 5.0390747672 5.0390747672 5.0390747672 5.0390747672 5.0390747672 4.9256388911 4.9256388911 4.9256388911 
4.9256388911 4.9256388911 4.9256388911 4.9256388911 4.8159880991 4.8159880991 4.8159880991 4.8159880991 4.8159880991 
4.8159880991 4.8159880991 4.8159880991 4.6087898617 4.6087898617 4.4991390697 4.6087898617 4.4991390697 4.3857031936 
4.6087898617 4.4991390697 4.3857031936 4.2712800401 4.6087898617 4.4991390697 4.3857031936 4.2712800401 4.1588146215 
4.6087898617 4.4991390697 4.3857031936 4.2712800401 4.1588146215 4.0509635631 4.6087898617 4.4991390697 4.3857031936 
4.2712800401 4.1588146215 4.0509635631 3.94975894 4.6087898617 4.4991390697 4.3857031936 4.2712800401 4.1588146215 
4.0509635631 3.94975894 3.8564636551 4.526799744 4.4046155105 4.426884955 4.2807094886 4.2918546451 4.3052269283 
4.1588146215 4.1588146215 4.1588146215 4.1588146215 4.042318168 4.0321740035 4.0201070968 4.0055183285 3.9875336042 
3.9337570603 3.9151549899 3.8932795963 3.8672112905 3.8356650183 3.7967995342 3.8346145692 3.809500442 3.7803704271 
3.7462412737 3.7058097288 3.657329819 3.5984456061 3.7454049075 3.7156421835 3.6816134988 3.6424295543 3.5969754326 
3.5438565869 3.4813459737 3.4073543651 3.5642842451 3.4524645613 3.5233842518 3.3320300872 3.403123212 3.4773852225 
3.20576226 3.2746326772 3.348015857 3.4255060145 3.0774230472 3.1415926536 3.2112816139 3.2864685043 3.3668817272 
2.95115522 3.00855263 3.0719036933 3.1415926536 3.2178377658 3.3005964304 2.8307207459 2.8800620952 2.9351694502 
2.9967168029 3.0653475414 3.1415926536 3.225752376 2.718901062 2.7598010554 2.8058000847 2.8576792927 2.91630358 
2.9825888767 3.0574329311 3.1415926536 3.5642842451 3.5233842518 3.4524645613 3.4773852225 3.403123212 3.3320300872 
3.4255060145 3.348015857 3.2746326772 3.20576226 3.3668817272 3.2864685043 3.2112816139 3.1415926536 3.0774230472 
3.3005964304 3.2178377658 3.1415926536 3.0719036933 3.00855263 2.95115522 3.225752376 3.1415926536 3.0653475414 
2.9967168029 2.9351694502 2.8800620952 2.8307207459 3.1415926536 3.0574329311 2.9825888767 2.91630358 2.8576792927 
2.8058000847 2.7598010554 2.718901062 4.526799744 4.426884955 4.4046155105 4.3052269283 4.2918546451 4.2807094886 
4.1588146215 4.1588146215 4.1588146215 4.1588146215 3.9875336042 4.0055183285 4.0201070968 4.0321740035 4.042318168 
3.7967995342 3.8356650183 3.8672112905 3.8932795963 3.9151549899 3.9337570603 3.5984456061 3.657329819 3.7058097288 
3.7462412737 3.7803704271 3.809500442 3.8346145692 3.4073543651 3.4813459737 3.5438565869 3.5969754326 3.6424295543 
3.6816134988 3.7156421835 3.7454049075 4.7123889804 4.8004512023 4.6243267584 4.9155579264 4.7123889804 4.5092200343 
5.0674903122 4.8353719722 4.5894059886 4.3572876485 5.2659633393 5.0120975802 4.7123889804 4.4126803806 4.1588146215 
5.5125918794 5.2659633393 4.9155579264 4.5092200343 4.1588146215 3.9121860814 5.7885595667 5.6029703303 5.2659633393 
4.7123889804 4.1588146215 3.8218076305 3.6362183941 6.0560271438 5.9702140275 5.7885595667 5.2659633393 4.1588146215 
3.6362183941 3.4545639333 3.368750817 0.22715816343 0.49462574053 0.3129712797 0.77059342779 0.68021497688 0.49462574053 
1.0172219679 1.0172219679 1.0172219679 1.0172219679 1.2156949949 1.271087727 1.3676273807 1.5707963268 2.1243706857 
1.3676273807 1.447813335 1.5707963268 1.7739652728 2.1243706857 2.6469669131 1.4827341049 1.5707963268 1.6937793186 
1.8705049266 2.1243706857 2.4613776767 2.8286213739 1.5707963268 1.6588585487 1.7739652728 1.9258976586 2.1243706857 
2.3709992258 2.6469669131 2.9144344902 1.7563855631 1.8785697967 1.8563003522 2.0024758186 1.9913306621 1.9779583789 
2.1243706857 2.1243706857 2.1243706857 2.1243706857 2.2408671392 2.2510113037 2.2630782103 2.2776669786 2.295651703 
2.3494282469 2.3680303173 2.3899057108 2.4159740166 2.4475202889 2.486385773 2.448570738 2.4736848652 2.5028148801 
2.5369440334 2.5773755784 2.6258554882 2.6847397011 2.5377803997 2.5675431237 2.6015718084 2.6407557529 2.6862098746 
2.7393287203 2.8018393335 2.8758309421 1.6743954455 1.6743954455 1.7840462375 1.6743954455 1.7840462375 1.8974821136 
1.6743954455 1.7840462375 1.8974821136 2.0119052671 1.6743954455 1.7840462375 1.8974821136 2.0119052671 2.1243706857 
1.6743954455 1.7840462375 1.8974821136 2.0119052671 2.1243706857 2.232221744 1.6743954455 1.7840462375 1.8974821136 
2.0119052671 2.1243706857 2.232221744 2.3334263672 1.6743954455 1.7840462375 1.8974821136 2.0119052671 2.1243706857 
2.232221744 2.3334263672 2.426721652 1.4671972081 1.3575464161 1.4671972081 1.24411054 1.3575464161 1.4671972081 
1.1296873865 1.24411054 1.3575464161 1.4671972081 1.0172219679 1.1296873865 1.24411054 1.3575464161 1.4671972081 
0.90937090954 1.0172219679 1.1296873865 1.24411054 1.3575464161 1.4671972081 0.80816628637 0.90937090954 1.0172219679 
1.1296873865 1.24411054 1.3575464161 1.4671972081 0.71487100155 0.80816628637 0.90937090954 1.0172219679 1.1296873865 
1.24411054 1.3575464161 1.4671972081 0.60381225391 0.57404952988 0.69302191562 0.54002084522 0.66790778838 0.79216440667 
0.50083690068 0.63877777351 0.77356233629 0.90072551443 0.45538277901 0.60464862014 0.75168694275 0.89058134991 1.0172219679 
0.40226393329 0.56421707518 0.72561863695 0.87851444325 1.0172219679 1.139116835 0.33975332011 0.51573716537 0.69407236469 
0.86392567495 1.0172219679 1.1502619915 1.2630228569 0.26576171152 0.45685295248 0.6552068806 0.84594095064 1.0172219679 
1.1636342747 1.2852923014 1.3852070904 0.22715816343 0.3129712797 0.49462574053 0.49462574053 0.68021497688 0.77059342779 
1.0172219679 1.0172219679 1.0172219679 1.0172219679 2.1243706857 1.5707963268 1.3676273807 1.271087727 1.2156949949 
2.6469669131 2.1243706857 1.7739652728 1.5707963268 1.447813335 1.3676273807 2.8286213739 2.4613776767 2.1243706857 
1.8705049266 1.6937793186 1.5707963268 1.4827341049 2.9144344902 2.6469669131 2.3709992258 2.1243706857 1.9258976586 
1.7739652728 1.6588585487 1.5707963268 1.7563855631 1.8563003522 1.8785697967 1.9779583789 1.9913306621 2.0024758186 
2.1243706857 2.1243706857 2.1243706857 2.1243706857 2.295651703 2.2776669786 2.2630782103 2.2510113037 2.2408671392 
2.486385773 2.4475202889 2.4159740166 2.3899057108 2.3680303173 2.3494282469 2.6847397011 2.6258554882 2.5773755784 
2.5369440334 2.5028148801 2.4736848652 2.448570738 2.8758309421 2.8018393335 2.7393287203 2.6862098746 2.6407557529 
2.6015718084 2.5675431237 2.5377803997 5.8604937156 5.901393709 5.9723133995 5.9473927383 6.0216547488 6.0927478736 
5.9992719463 6.0767621038 6.1501452836 6.2190157008 6.0578962336 6.1383094565 6.2134963469 0 0.064169606361 
6.1241815303 6.206940195 6.2831853072 0.069688960264 0.13304002361 0.19043743361 6.1990255847 0 0.07624511221 
0.14487585072 0.20642320337 0.26153055843 0.3108719077 0 0.084159722458 0.15900377685 0.22528907359 0.28391336087 
0.3357925689 0.38179159818 0.42269159155 5.8604937156 5.9723133995 5.901393709 6.0927478736 6.0216547488 5.9473927383 
6.2190157008 6.1501452836 6.0767621038 5.9992719463 0.064169606361 0 6.2134963469 6.1383094565 6.0578962336 
0.19043743361 0.13304002361 0.069688960264 6.2831853072 6.206940195 6.1241815303 0.3108719077 0.26153055843 0.20642320337 
0.14487585072 0.07624511221 6.2831853072 6.1990255847 0.42269159155 0.38179159818 0.3357925689 0.28391336087 0.22528907359 
0.15900377685 0.084159722458 0 5.6793730533 5.7091357773 5.5901633916 5.743164462 5.6152775188 5.4910209005 
5.7823484065 5.6444075337 5.5096229709 5.3824597928 5.8278025282 5.678536687 5.5314983644 5.3926039573 5.2659633393 
5.8809213739 5.718968232 5.5575666702 5.4046708639 5.2659633393 5.1440684722 5.9434319871 5.7674481418 5.5891129425 
5.4192596322 5.2659633393 5.1329233157 5.0201624502 6.0174235957 5.8263323547 5.6279784266 5.4372443565 5.2659633393 
5.1195510325 4.9978930058 4.8979782167 1.3852070904 1.2852923014 1.2630228569 1.1636342747 1.1502619915 1.139116835 
1.0172219679 1.0172219679 1.0172219679 1.0172219679 0.84594095064 0.86392567495 0.87851444325 0.89058134991 0.90072551443 
0.6552068806 0.69407236469 0.72561863695 0.75168694275 0.77356233629 0.79216440667 0.45685295248 0.51573716537 0.56421707518 
0.60464862014 0.63877777351 0.66790778838 0.69302191562 0.26576171152 0.33975332011 0.40226393329 0.45538277901 0.50083690068 
0.54002084522 0.57404952988 0.60381225391 
_paraPhiHalf 1 1002 double
0 3.1415926536 0 3.1415926536 1.5707963268 1.5707963268 1.5707963268 1.5707963268 2.5880182947 
0.5535743589 2.5880182947 0.5535743589 0 0 0 0 3.1415926536 3.1415926536 
3.1415926536 3.1415926536 3.1415926536 0.17788134 0.38438696014 0.60631181711 0.82323535693 1.0172219679 1.1799687454 
1.3118704726 1.4175000338 1.5022335207 0.17788134 0.38438696014 0.60631181711 0.82323535693 1.0172219679 1.1799687454 
1.3118704726 1.4175000338 1.5022335207 0.093902416448 0.17615329733 0.2478725152 0.31035131605 0.36486382811 0.41257334776 
0.45449736604 0.4915044461 0.52432611754 0.093902416448 0.17615329733 0.2478725152 0.31035131605 0.36486382811 0.41257334776 
0.45449736604 0.4915044461 0.52432611754 2.9637113136 2.7572056934 2.5352808365 2.3183572967 2.1243706857 1.9616239082 
1.829722181 1.7240926197 1.6393591329 2.9637113136 2.7572056934 2.5352808365 2.3183572967 2.1243706857 1.9616239082 
1.829722181 1.7240926197 1.6393591329 3.0476902371 2.9654393563 2.8937201384 2.8312413375 2.7767288255 2.7290193058 
2.6870952876 2.6500882075 2.617266536 3.0476902371 2.9654393563 2.8937201384 2.8312413375 2.7767288255 2.7290193058 
2.6870952876 2.6500882075 2.617266536 0 0 0 0 3.1415926536 3.1415926536 
3.1415926536 3.1415926536 3.1415926536 0.17788134 0.38438696014 0.60631181711 0.82323535693 1.0172219679 1.1799687454 
1.3118704726 1.4175000338 1.5022335207 0.17788134 0.38438696014 0.60631181711 0.82323535693 1.0172219679 1.1799687454 
1.3118704726 1.4175000338 1.5022335207 0.093902416448 0.17615329733 0.2478725152 0.31035131605 0.36486382811 0.41257334776 
0.45449736604 0.4915044461 0.52432611754 0.093902416448 0.17615329733 0.2478725152 0.31035131605 0.36486382811 0.41257334776 
0.45449736604 0.4915044461 0.52432611754 2.9637113136 2.7572056934 2.5352808365 2.3183572967 2.1243706857 1.9616239082 
1.829722181 1.7240926197 1.6393591329 2.9637113136 2.7572056934 2.5352808365 2.3183572967 2.1243706857 1.9616239082 
1.829722181 1.7240926197 1.6393591329 3.0476902371 2.9654393563 2.8937201384 2.8312413375 2.7767288255 2.7290193058 
2.6870952876 2.6500882075 2.617266536 3.0476902371 2.9654393563 2.8937201384 2.8312413375 2.7767288255 2.7290193058 
2.6870952876 2.6500882075 2.617266536 1.5707963268 1.5707963268 1.5707963268 1.5707963268 1.5707963268 1.5707963268 
1.5707963268 1.5707963268 1.5707963268 1.6743954455 1.7840462375 1.8974821136 2.0119052671 2.1243706857 2.232221744 
2.3334263672 2.426721652 2.5115728246 1.4671972081 1.3575464161 1.24411054 1.1296873865 1.0172219679 0.90937090954 
0.80816628637 0.71487100155 0.63001982895 1.6743954455 1.7840462375 1.8974821136 2.0119052671 2.1243706857 2.232221744 
2.3334263672 2.426721652 2.5115728246 1.4671972081 1.3575464161 1.24411054 1.1296873865 1.0172219679 0.90937090954 
0.80816628637 0.71487100155 0.63001982895 1.5707963268 1.5707963268 1.5707963268 1.5707963268 1.5707963268 1.5707963268 
1.5707963268 1.5707963268 1.5707963268 1.6743954455 1.7840462375 1.8974821136 2.0119052671 2.1243706857 2.232221744 
2.3334263672 2.426721652 2.5115728246 1.4671972081 1.3575464161 1.24411054 1.1296873865 1.0172219679 0.90937090954 
0.80816628637 0.71487100155 0.63001982895 1.6743954455 1.7840462375 1.8974821136 2.0119052671 2.1243706857 2.232221744 
2.3334263672 2.426721652 2.5115728246 1.4671972081 1.3575464161 1.24411054 1.1296873865 1.0172219679 0.90937090954 
0.80816628637 0.71487100155 0.63001982895 2.6824132222 2.7864913217 2.8992382033 3.0186096618 3.1415926536 3.0186096618 
2.8992382033 2.7864913217 2.6824132222 0.45917943135 0.35510133185 0.2423544503 0.12298299178 0 0.12298299178 
0.2423544503 0.35510133185 0.45917943135 0.22715816343 0.49462574053 0.3129712797 0.77059342779 0.68021497688 0.49462574053 
1.0172219679 1.0172219679 1.0172219679 1.0172219679 1.2156949949 1.271087727 1.3676273807 1.5707963268 2.1243706857 
1.3676273807 1.447813335 1.5707963268 1.7739652728 2.1243706857 2.6469669131 1.4827341049 1.5707963268 1.6937793186 
1.8705049266 2.1243706857 2.4613776767 2.8286213739 1.5707963268 1.6588585487 1.7739652728 1.9258976586 2.1243706857 
2.3709992258 2.6469669131 2.9144344902 0.26576171152 0.33975332011 0.45685295248 0.40226393329 0.51573716537 0.6552068806 
0.45538277901 0.56421707518 0.69407236469 0.84594095064 0.50083690068 0.60464862014 0.72561863695 0.86392567495 1.0172219679 
0.54002084522 0.63877777351 0.75168694275 0.87851444325 1.0172219679 1.1636342747 0.57404952988 0.66790778838 0.77356233629 
0.89058134991 1.0172219679 1.1502619915 1.2852923014 0.60381225391 0.69302191562 0.79216440667 0.90072551443 1.0172219679 
1.139116835 1.2630228569 1.3852070904 0.71487100155 0.80816628637 0.80816628637 0.90937090954 0.90937090954 0.90937090954 
1.0172219679 1.0172219679 1.0172219679 1.0172219679 1.1296873865 1.1296873865 1.1296873865 1.1296873865 1.1296873865 
1.24411054 1.24411054 1.24411054 1.24411054 1.24411054 1.24411054 1.3575464161 1.3575464161 1.3575464161 
1.3575464161 1.3575464161 1.3575464161 1.3575464161 1.4671972081 1.4671972081 1.4671972081 1.4671972081 1.4671972081 
1.4671972081 1.4671972081 1.4671972081 1.6743954455 1.6743954455 1.7840462375 1.6743954455 1.7840462375 1.8974821136 
1.6743954455 1.7840462375 1.8974821136 2.0119052671 1.6743954455 1.7840462375 1.8974821136 2.0119052671 2.1243706857 
1.6743954455 1.7840462375 1.8974821136 2.0119052671 2.1243706857 2.232221744 1.6743954455 1.7840462375 1.8974821136 
2.0119052671 2.1243706857 2.232221744 2.3334263672 1.6743954455 1.7840462375 1.8974821136 2.0119052671 2.1243706857 
2.232221744 2.3334263672 2.426721652 1.7563855631 1.8785697967 1.8563003522 2.0024758186 1.9913306621 1.9779583789 
2.1243706857 2.1243706857 2.1243706857 2.1243706857 2.2408671392 2.2510113037 2.2630782103 2.2776669786 2.295651703 
2.3494282469 2.3680303173 2.3899057108 2.4159740166 2.4475202889 2.486385773 2.448570738 2.4736848652 2.5028148801 
2.5369440334 2.5773755784 2.6258554882 2.6847397011 2.5377803997 2.5675431237 2.6015718084 2.6407557529 2.6862098746 
2.7393287203 2.8018393335 2.8758309421 2.718901062 2.8307207459 2.7598010554 2.95115522 2.8800620952 2.8058000847 
3.0774230472 3.00855263 2.9351694502 2.8576792927 3.0774230472 3.1415926536 3.0719036933 2.9967168029 2.91630358 
2.95115522 3.00855263 3.0719036933 3.1415926536 3.0653475414 2.9825888767 2.8307207459 2.8800620952 2.9351694502 
2.9967168029 3.0653475414 3.1415926536 3.0574329311 2.718901062 2.7598010554 2.8058000847 2.8576792927 2.91630358 
2.9825888767 3.0574329311 3.1415926536 2.718901062 2.7598010554 2.8307207459 2.8058000847 2.8800620952 2.95115522 
2.8576792927 2.9351694502 3.00855263 3.0774230472 2.91630358 2.9967168029 3.0719036933 3.1415926536 3.0774230472 
2.9825888767 3.0653475414 3.1415926536 3.0719036933 3.00855263 2.95115522 3.0574329311 3.1415926536 3.0653475414 