# vtk DataFile Version 5.1
vtk output
ASCII
DATASET POLYDATA
POINTS 1002 float
-12.631 -0.127017 -2.15086 14.0697 -0.0691571 -5.7102 -11.9745 1.03495 3.44895 
11.6065 -0.726787 2.86977 0.576094 7.54451 -1.03403 -0.96147 7.80365 3.82606 
-2.70198 -2.28176 0.277895 -0.811334 -2.32417 2.53024 19.3611 2.90621 -1.44009 
-18.931 3.0359 -0.826568 20.4174 -8.55346 -1.61791 -17.8366 -8.91287 -0.317642 
-11.3523 0.394421 -1.71503 -9.68605 0.917598 -1.32372 -7.53189 1.38821 -1.06315 
-5.12066 1.82244 -0.760299 -2.63345 2.19936 -0.396584 0.342876 2.29677 -0.593856 
4.21428 1.90008 -1.89829 8.42484 1.14964 -3.80545 11.8913 0.417089 -5.2543 
-12.1257 0.652042 -1.98214 -11.3653 1.47797 -1.83047 -10.2958 2.32733 -1.69515 
-9.00351 3.17804 -1.50717 -7.60182 4.04518 -1.22209 -6.08341 4.95097 -0.93294 
-4.42812 5.83375 -0.769532 -2.71653 6.5745 -0.751017 -1.03605 7.12671 -0.841367 
-12.3299 -0.563126 -2.00796 -12.0231 -0.961216 -1.70848 -11.6025 -1.27795 -1.27951 
-10.8569 -1.51043 -0.878197 -9.6706 -1.73876 -0.681149 -8.19326 -2.0254 -0.662428 
-6.71772 -2.28917 -0.590385 -5.39172 -2.39891 -0.318689 -4.11546 -2.35361 0.0427302 
-13.6055 -0.117205 -2.38507 -14.6456 -0.0135273 -2.53504 -15.4569 0.151111 -2.80447 
-15.7749 0.34929 -3.41502 -15.8481 0.664759 -4.19955 -16.3293 1.20922 -4.53743 
-17.4215 1.89849 -3.99389 -18.5525 2.49121 -2.83628 -19.0875 2.85286 -1.66898 
-13.6061 -0.968171 -2.50352 -14.6462 -1.93051 -2.77845 -15.7273 -2.9638 -2.89793 
-16.5997 -4.01764 -2.93327 -17.0601 -5.09402 -2.98092 -17.2695 -6.22628 -2.94121 
-17.4962 -7.35502 -2.60224 -17.7423 -8.28319 -1.92126 -17.8685 -8.81815 -1.08164 
13.2101 0.719193 -5.52011 12.1711 1.55961 -5.23195 11.1052 2.42752 -4.97826 
9.9902 3.32725 -4.73115 8.65951 4.23879 -4.32781 7.05222 5.11816 -3.69664 
5.29267 5.92964 -2.92693 3.55692 6.62455 -2.15803 1.97042 7.15796 -1.50751 
13.6577 -0.581935 -5.6977 12.7755 -0.989073 -5.33948 11.2882 -1.19421 -4.56687 
9.29444 -1.20753 -3.50661 7.05237 -1.13487 -2.38156 4.74836 -1.07914 -1.36421 
2.49058 -1.1256 -0.576373 0.4332 -1.35247 -0.0859303 -1.29742 -1.76482 0.157607 
14.9648 0.111353 -5.38584 15.6464 0.366319 -4.80673 16.535 0.584423 -4.43428 
17.6922 0.765424 -4.39669 18.7032 1.0119 -4.31124 19.302 1.35514 -3.88278 
19.6698 1.72596 -3.28178 19.9192 2.09826 -2.7091 19.8611 2.49832 -2.11538 
15.1634 -0.719174 -5.41279 15.5584 -1.30652 -4.38358 15.6329 -1.93852 -2.99837 
16.2452 -2.80129 -2.13372 17.7196 -3.92695 -2.2994 19.2709 -5.13212 -2.91378 
20.1174 -6.25418 -3.09516 20.4087 -7.24691 -2.73857 20.5304 -8.04636 -2.20744 
-10.3892 1.44534 3.87571 -8.29323 1.79029 4.11078 -5.81728 2.01895 4.2519 
-3.13461 2.07476 4.36275 -0.21945 1.90048 4.25816 2.92042 1.48898 3.77658 
5.90967 0.920792 3.16649 8.32535 0.314711 2.81766 10.1419 -0.245716 2.79058 
-11.6108 1.71039 3.86732 -10.8931 2.41417 4.18233 -9.81134 3.13185 4.32021 
-8.46876 3.851 4.27089 -6.99926 4.55433 4.13693 -5.57358 5.25556 4.10018 
-4.33752 5.98406 4.21236 -3.24784 6.70408 4.29612 -2.14255 7.32672 4.16655 
-11.231 0.619843 3.27112 -10.2494 0.172396 3.01329 -9.19111 -0.260622 2.80423 
-8.21007 -0.657849 2.7552 -7.22495 -1.03526 2.78283 -6.01561 -1.37183 2.6943 
-4.59425 -1.62066 2.49549 -3.2023 -1.81323 2.38283 -1.96689 -2.03494 2.43564 
-13.0995 0.990299 3.081 -14.0927 0.919247 2.5153 -15.11 0.889762 1.97934 
-16.2202 0.983211 1.64258 -17.1581 1.19904 1.29391 -17.6606 1.44644 0.673635 
-17.9022 1.68633 -0.0221524 -18.2162 2.00346 -0.454035 -18.6319 2.47212 -0.641428 
-12.8986 0.314199 2.79494 -13.8431 -0.501755 2.10882 -14.8914 -1.43828 1.46456 
-15.8635 -2.54529 0.809475 -16.5268 -3.77113 0.177909 -16.9841 -4.97725 -0.196567 
-17.4814 -6.1181 -0.210035 -17.9506 -7.21962 -0.0853263 -18.108 -8.20383 -0.0954436 
10.9408 0.137921 2.87413 9.96428 1.07323 2.93707 8.5847 2.07298 3.15726 
6.89548 3.1449 3.52956 5.21553 4.24567 3.84623 3.80026 5.26704 3.9245 
2.58829 6.13066 3.85514 1.38857 6.83429 3.82517 0.169625 7.39271 3.84982 
11.2297 -1.27507 2.86117 10.6959 -1.80479 2.89795 9.99358 -2.29293 2.93066 
9.07713 -2.69888 2.92485 7.9979 -2.95526 2.88469 6.87572 -2.99548 2.77016 
5.58812 -2.81416 2.54622 3.82438 -2.51707 2.33489 1.56484 -2.29687 2.32001 
12.6606 -0.610932 2.92237 13.7709 -0.404825 2.91132 14.9324 -0.126297 2.76273 
16.0794 0.241497 2.50069 17.0619 0.762308 2.22816 17.799 1.41255 1.9089 
18.3842 2.01985 1.34604 18.9003 2.44234 0.477146 19.266 2.70348 -0.521309 
12.835 -1.54217 2.85359 14.0862 -2.38963 2.74564 15.0892 -3.22747 2.7465 
15.6652 -4.1 2.9982 16.1566 -5.07275 3.173 17.0664 -6.08523 2.78172 
18.3217 -6.99635 1.8185 19.4356 -7.73175 0.627861 20.1307 -8.26527 -0.556057 
0.718533 8.02549 -0.94319 0.749248 8.59851 -0.783335 0.570113 9.18807 -0.391493 
0.206738 9.5952 0.337811 -0.165255 9.65495 1.25836 -0.404221 9.41538 2.0727 
-0.543962 9.05289 2.65295 -0.683738 8.66607 3.09341 -0.839542 8.25227 3.4874 
3.16267 7.67504 -1.69591 6.02465 7.73825 -2.63702 8.73206 7.73893 -3.48739 
10.8923 7.61937 -3.79279 12.6206 7.2676 -3.5679 14.3291 6.60482 -3.26261 
16.0406 5.68032 -3.047 17.4582 4.65831 -2.69439 18.5128 3.70501 -2.10924 
-1.72911 7.58076 -0.624817 -4.06382 7.48055 -0.476554 -6.45733 7.23344 -0.47668 
-9.03314 6.86696 -0.459335 -11.8124 6.48389 -0.403465 -14.4955 6.1526 -0.405267 
-16.6249 5.74574 -0.463757 -17.978 5.06508 -0.517324 -18.6636 4.10222 -0.611414 
1.05728 7.9537 3.35583 3.21361 8.07264 2.83771 5.14672 8.24038 2.53656 
6.85176 8.31536 2.37403 8.82957 7.9575 1.91133 11.3536 7.05243 0.995921 
14.0001 5.88445 0.013282 16.251 4.76677 -0.685535 18.0033 3.78387 -1.12028 
-2.76716 7.79996 3.87624 -4.59763 7.58997 3.65321 -6.66737 7.22461 3.35207 
-9.12757 6.79573 3.17058 -11.6122 6.27835 2.88025 -13.6595 5.63484 2.18211 
-15.3544 4.98113 1.29894 -16.912 4.39403 0.573164 -18.1751 3.77266 -0.0649354 
-2.58824 -2.57202 0.459039 -2.54369 -2.83136 0.706525 -2.41443 -3.11881 0.926091 
-2.08187 -3.47123 1.11378 -1.74943 -3.76585 1.4538 -1.72831 -3.79383 2.03726 
-1.91497 -3.51193 2.60425 -1.89221 -3.08079 2.8413 -1.4711 -2.66629 2.74639 
0.271696 -2.15702 -0.00847227 4.56127 -2.80313 -1.08091 9.08038 -4.21495 -2.3589 
12.1282 -5.73909 -2.77373 13.5462 -6.83579 -2.28854 14.94 -7.68535 -2.06663 
17.0915 -8.51778 -2.5474 19.0832 -9.0553 -2.88954 20.1137 -9.02416 -2.48213 
-4.67542 -2.99141 0.132118 -6.42403 -3.77185 -0.117052 -8.43888 -4.35463 -0.171875 
-10.7081 -4.92868 -0.1476 -12.4909 -6.00045 -0.395927 -13.4249 -7.59122 -0.802779 
-14.1672 -9.02363 -0.889382 -15.3435 -9.68516 -0.593312 -16.7431 -9.54237 -0.30691 
1.97468 -2.79055 2.33494 4.94965 -3.82108 1.97497 7.56379 -5.27545 1.60491 
9.42654 -6.78371 1.52024 10.8885 -8.00657 1.65476 12.8226 -8.83756 1.41096 
15.4603 -9.30828 0.481665 18.0106 -9.41662 -0.642329 19.6769 -9.14399 -1.36516 
-3.76847 -2.61469 2.78106 -6.2411 -3.44391 2.88131 -8.01479 -4.35185 2.65223 
-9.68055 -4.82096 2.19909 -11.8427 -5.04229 1.8136 -14.0899 -5.77884 1.56356 
-15.6471 -7.1822 1.28786 -16.52 -8.49435 0.894748 -17.1869 -9.05694 0.370157 
20.6469 1.93202 -1.22757 21.9267 0.929689 -1.05398 22.8448 -0.0950756 -0.842561 
23.1658 -1.20302 -0.574365 23.0365 -2.48635 -0.440481 22.6449 -3.89585 -0.531077 
21.9968 -5.2625 -0.670262 21.2682 -6.50748 -0.818127 20.7524 -7.62589 -1.13721 
-19.2672 1.80122 -1.62 -19.6949 0.500841 -2.42127 -20.3964 -0.71609 -2.86565 
-20.9742 -1.97916 -2.94319 -20.7704 -3.50404 -3.09805 -19.9362 -5.08581 -3.37978 
-19.2764 -6.31709 -3.17704 -18.9852 -7.22874 -2.24981 -18.59 -8.10041 -1.12071 
-10.569 1.16788 -1.60404 -9.52666 1.98335 -1.47729 -8.60792 1.69021 -1.26498 
-8.26394 2.82209 -1.27962 -7.40898 2.52533 -1.06197 -6.31143 2.17695 -0.923657 
-6.84941 3.67763 -1.00004 -6.11863 3.38827 -0.704093 -5.12178 3.03523 -0.549415 
-3.86626 2.59345 -0.491324 -5.26 4.5635 -0.769844 -4.57173 4.23332 -0.430126 
-3.72859 3.86826 -0.199168 -2.48151 3.35997 -0.234523 -1.05121 2.80574 -0.388317 
-3.46915 5.4413 -0.748221 -2.61434 5.02227 -0.547825 -1.74389 4.57282 -0.355163 
-0.527641 3.9948 -0.458801 1.01284 3.30235 -0.836441 2.61207 2.60437 -1.32085 
-1.58681 6.19502 -0.926281 -0.418165 5.70103 -1.04857 0.755364 5.12218 -1.14245 
2.09485 4.44256 -1.4019 3.65184 3.65296 -1.89253 5.25952 2.82515 -2.48707 
6.84676 1.99742 -3.12859 0.247638 6.75201 -1.19508 1.69314 6.22572 -1.64985 
3.23097 5.55579 -2.14474 4.8214 4.78095 -2.6776 6.40629 3.92587 -3.2381 
7.88145 3.03566 -3.75917 9.25704 2.15484 -4.25176 10.6164 1.27875 -4.77351 
-13.1355 0.771226 -2.18753 -14.1362 1.01211 -2.33539 -12.3559 1.72298 -2.02134 
-14.843 1.31732 -2.60447 -13.2987 2.10996 -2.16235 -11.2408 2.68503 -1.86961 
-15.1429 1.64116 -3.15124 -13.9892 2.5374 -2.38331 -12.1799 3.16698 -1.95151 
-9.92765 3.60607 -1.61772 -15.4986 2.09926 -3.68821 -14.5041 2.97409 -2.74191 
-12.9637 3.63854 -2.04131 -10.8752 4.09568 -1.58612 -8.48855 4.5055 -1.23679 
-16.4601 2.78675 -3.59282 -15.3361 3.57033 -2.88357 -13.7423 4.12867 -2.13778 
-11.6724 4.53895 -1.54839 -9.32629 4.95787 -1.14019 -6.86685 5.42078 -0.882339 
-17.7705 3.50434 -2.70233 -16.6169 4.31078 -2.39157 -14.8353 4.77184 -1.93685 
-12.5037 5.04208 -1.46538 -9.99886 5.38573 -1.07673 -7.53676 5.85033 -0.805836 
-5.11336 6.29248 -0.677845 -18.6309 3.95989 -1.53345 -17.6984 4.87775 -1.43174 
-16.0073 5.41255 -1.28319 -13.5618 5.65995 -1.08624 -10.7957 5.91703 -0.903749 
-8.15873 6.31224 -0.743722 -5.72932 6.72791 -0.610461 -3.37867 7.01936 -0.602143 
-17.66 4.75861 0.118245 -16.0263 5.25837 0.760407 -16.6546 5.60988 0.231641 
-14.133 5.79166 1.55769 -14.7378 6.06004 0.995329 -15.0091 6.2732 0.351459 
-12.0808 6.43432 2.38968 -12.6075 6.62989 1.85908 -12.9728 6.85458 1.21089 
-12.6966 6.85083 0.382932 -9.64984 7.04645 2.86794 -10.2176 7.28103 2.51811 
-10.7027 7.5515 1.98949 -10.6575 7.67452 1.15323 -9.94078 7.41409 0.209596 
-7.04352 7.55296 3.05462 -7.52797 7.85451 2.79131 -8.08398 8.19161 2.43552 
-8.32345 8.45112 1.75141 -7.90896 8.35388 0.791804 -7.11112 7.85746 -0.0392983 
-4.7414 7.96911 3.28414 -4.95761 8.30799 2.944 -5.32303 8.66476 2.60846 
[...]
POINT_DATA 1002
FIELD FieldData 4
_paraPhi 1 1002 double
6.2831853072 3.1415926536 6.2831853072 3.1415926536 4.7123889804 4.7123889804 1.5707963268 1.5707963268 3.6951670125 
5.7296109483 2.5880182947 0.5535743589 6.2831853072 6.2831853072 6.2831853072 6.2831853072 3.1415926536 3.1415926536 
3.1415926536 3.1415926536 3.1415926536 6.1053039672 5.898798347 5.6768734901 5.4599499503 5.2659633393 5.1032165617 
4.9713148346 4.8656852733 4.7809517865 0.17788134 0.38438696014 0.60631181711 0.82323535693 1.0172219679 1.1799687454 
1.3118704726 1.4175000338 1.5022335207 6.1892828907 6.1070320098 6.035312792 5.9728339911 5.9183214791 5.8706119594 
5.8286879411 5.7916808611 5.7588591896 0.093902416448 0.17615329733 0.2478725152 0.31035131605 0.36486382811 0.41257334776 
0.45449736604 0.4915044461 0.52432611754 3.3194739936 3.5259796137 3.7479044707 3.9648280105 4.1588146215 4.321561399 
4.4534631262 4.5590926874 4.6438261743 2.9637113136 2.7572056934 2.5352808365 2.3183572967 2.1243706857 1.9616239082 
1.829722181 1.7240926197 1.6393591329 3.23549507 3.3177459509 3.3894651688 3.4519439696 3.5064564817 3.5541660013 
3.5960900196 3.6330970997 3.6659187711 3.0476902371 2.9654393563 2.8937201384 2.8312413375 2.7767288255 2.7290193058 
2.6870952876 2.6500882075 2.617266536 6.2831853072 6.2831853072 6.2831853072 6.2831853072 3.1415926536 3.1415926536 
3.1415926536 3.1415926536 3.1415926536 6.1053039672 5.898798347 5.6768734901 5.4599499503 5.2659633393 5.1032165617 
4.9713148346 4.8656852733 4.7809517865 0.17788134 0.38438696014 0.60631181711 0.82323535693 1.0172219679 1.1799687454 
1.3118704726 1.4175000338 1.5022335207 6.1892828907 6.1070320098 6.035312792 5.9728339911 5.9183214791 5.8706119594 
5.8286879411 5.7916808611 5.7588591896 0.093902416448 0.17615329733 0.2478725152 0.31035131605 0.36486382811 0.41257334776 
0.45449736604 0.4915044461 0.52432611754 3.3194739936 3.5259796137 3.7479044707 3.9648280105 4.1588146215 4.321561399 
4.4534631262 4.5590926874 4.6438261743 2.9637113136 2.7572056934 2.5352808365 2.3183572967 2.1243706857 1.9616239082 
1.829722181 1.7240926197 1.6393591329 3.23549507 3.3177459509 3.3894651688 3.4519439696 3.5064564817 3.5541660013 
3.5960900196 3.6330970997 3.6659187711 3.0476902371 2.9654393563 2.8937201384 2.8312413375 2.7767288255 2.7290193058 
2.6870952876 2.6500882075 2.617266536 4.7123889804 4.7123889804 4.7123889804 4.7123889804 4.7123889804 4.7123889804 
4.7123889804 4.7123889804 4.7123889804 4.6087898617 4.4991390697 4.3857031936 4.2712800401 4.1588146215 4.0509635631 
3.94975894 3.8564636551 3.7716124825 4.8159880991 4.9256388911 5.0390747672 5.1534979207 5.2659633393 5.3738143976 
5.4750190208 5.5683143056 5.6531654782 4.6087898617 4.4991390697 4.3857031936 4.2712800401 4.1588146215 4.0509635631 
3.94975894 3.8564636551 3.7716124825 4.8159880991 4.9256388911 5.0390747672 5.1534979207 5.2659633393 5.3738143976 
5.4750190208 5.5683143056 5.6531654782 1.5707963268 1.5707963268 1.5707963268 1.5707963268 1.5707963268 1.5707963268 
1.5707963268 1.5707963268 1.5707963268 1.6743954455 1.7840462375 1.8974821136 2.0119052671 2.1243706857 2.232221744 
2.3334263672 2.426721652 2.5115728246 1.4671972081 1.3575464161 1.24411054 1.1296873865 1.0172219679 0.90937090954 
0.80816628637 0.71487100155 0.63001982895 1.6743954455 1.7840462375 1.8974821136 2.0119052671 2.1243706857 2.232221744 
2.3334263672 2.426721652 2.5115728246 1.4671972081 1.3575464161 1.24411054 1.1296873865 1.0172219679 0.90937090954 
0.80816628637 0.71487100155 0.63001982895 3.6007720849 3.4966939854 3.3839471039 3.2645756454 3.1415926536 3.0186096618 
2.8992382033 2.7864913217 2.6824132222 5.8240058758 5.9280839753 6.0408308569 6.1602023154 6.2831853072 0.12298299178 
0.2423544503 0.35510133185 0.45917943135 6.0560271438 5.7885595667 5.9702140275 5.5125918794 5.6029703303 5.7885595667 
5.2659633393 5.2659633393 5.2659633393 5.2659633393 5.0674903122 5.0120975802 4.9155579264 4.7123889804 4.1588146215 
4.9155579264 4.8353719722 4.7123889804 4.5092200343 4.1588146215 3.6362183941 4.8004512023 4.7123889804 4.5894059886 
4.4126803806 4.1588146215 3.8218076305 3.4545639333 4.7123889804 4.6243267584 4.5092200343 4.3572876485 4.1588146215 
3.9121860814 3.6362183941 3.368750817 6.0174235957 5.9434319871 5.8263323547 5.8809213739 5.7674481418 5.6279784266 
5.8278025282 5.718968232 5.5891129425 5.4372443565 5.7823484065 5.678536687 5.5575666702 5.4192596322 5.2659633393 
5.743164462 5.6444075337 5.5314983644 5.4046708639 5.2659633393 5.1195510325 5.7091357773 5.6152775188 5.5096229709 
5.3926039573 5.2659633393 5.1329233157 4.9978930058 5.6793730533 5.5901633916 5.4910209005 5.3824597928 5.2659633393 
5.1440684722 5.0201624502 4.8979782167 5.5683143056 5.4750190208 5.4750190208 5.3738143976 5.3738143976 5.3738143976 
5.2659633393 5.2659633393 5.2659633393 5.2659633393 5.1534979207 5.1534979207 5.1534979207 5.1534979207 5.1534979207 
5.0390747672 5.0390747672 5.0390747672 5.0390747672 5.0390747672 5.0390747672 4.9256388911 4.9256388911 4.9256388911 
4.9256388911 4.9256388911 4.9256388911 4.9256388911 4.8159880991 4.8159880991 4.8159880991 4.8159880991 4.8159880991 
4.8159880991 4.8159880991 4.8159880991 4.6087898617 4.6087898617 4.4991390697 4.6087898617 4.4991390697 4.3857031936 
4.6087898617 4.4991390697 4.3857031936 4.2712800401 4.6087898617 4.4991390697 4.3857031936 4.2712800401 4.1588146215 
4.6087898617 4.4991390697 4.3857031936 4.2712800401 4.1588146215 4.0509635631 4.6087898617 4.4991390697 4.3857031936 
4.2712800401 4.1588146215 4.0509635631 3.94975894 4.6087898617 4.4991390697 4.3857031936 4.2712800401 4.1588146215 
4.0509635631 3.94975894 3.8564636551 4.526799744 4.4046155105 4.426884955 4.2807094886 4.2918546451 4.3052269283 
4.1588146215 4.1588146215 4.1588146215 4.1588146215 4.042318168 4.0321740035 4.0201070968 4.0055183285 3.9875336042 
3.9337570603 3.9151549899 3.8932795963 3.8672112905 3.8356650183 3.7967995342 3.8346145692 3.809500442 3.7803704271 
3.7462412737 3.7058097288 3.657329819 3.5984456061 3.7454049075 3.7156421835 3.6816134988 3.6424295543 3.5969754326 
3.5438565869 3.4813459737 3.4073543651 3.5642842451 3.4524645613 3.5233842518 3.3320300872 3.403123212 3.4773852225 
3.20576226 3.2746326772 3.348015857 3.4255060145 3.0774230472 3.1415926536 3.2112816139 3.2864685043 3.3668817272 
2.95115522 3.00855263 3.0719036933 3.1415926536 3.2178377658 3.3005964304 2.8307207459 2.8800620952 2.9351694502 
2.9967168029 3.0653475414 3.1415926536 3.225752376 2.718901062 2.7598010554 2.8058000847 2.8576792927 2.91630358 
2.9825888767 3.0574329311 3.1415926536 3.5642842451 3.5233842518 3.4524645613 3.4773852225 3.403123212 3.3320300872 
3.4255060145 3.348015857 3.2746326772 3.20576226 3.3668817272 3.2864685043 3.2112816139 3.1415926536 3.0774230472 
3.3005964304 3.2178377658 3.1415926536 3.0719036933 3.00855263 2.95115522 3.225752376 3.1415926536 3.0653475414 
2.9967168029 2.9351694502 2.8800620952 2.8307207459 3.1415926536 3.0574329311 2.9825888767 2.91630358 2.8576792927 
2.8058000847 2.7598010554 2.718901062 4.526799744 4.426884955 4.4046155105 4.3052269283 4.2918546451 4.2807094886 
4.1588146215 4.1588146215 4.1588146215 4.1588146215 3.9875336042 4.0055183285 4.0201070968 4.0321740035 4.042318168 
3.7967995342 3.8356650183 3.8672112905 3.8932795963 3.9151549899 3.9337570603 3.5984456061 3.657329819 3.7058097288 
3.7462412737 3.7803704271 3.809500442 3.8346145692 3.4073543651 3.4813459737 3.5438565869 3.5969754326 3.6424295543 
3.6816134988 3.7156421835 3.7454049075 4.7123889804 4.8004512023 4.6243267584 4.9155579264 4.7123889804 4.5092200343 
5.0674903122 4.8353719722 4.5894059886 4.3572876485 5.2659633393 5.0120975802 4.7123889804 4.4126803806 4.1588146215 
5.5125918794 5.2659633393 4.9155579264 4.5092200343 4.1588146215 3.9121860814 5.7885595667 5.6029703303 5.2659633393 
4.7123889804 4.1588146215 3.8218076305 3.6362183941 6.0560271438 5.9702140275 5.7885595667 5.2659633393 4.1588146215 
3.6362183941 3.4545639333 3.368750817 0.22715816343 0.49462574053 0.3129712797 0.77059342779 0.68021497688 0.49462574053 
1.0172219679 1.0172219679 1.0172219679 1.0172219679 1.2156949949 1.271087727 1.3676273807 1.5707963268 2.1243706857 
1.3676273807 1.447813335 1.5707963268 1.7739652728 2.1243706857 2.6469669131 1.4827341049 1.5707963268 1.6937793186 
1.8705049266 2.1243706857 2.4613776767 2.8286213739 1.5707963268 1.6588585487 1.7739652728 1.9258976586 2.1243706857 
2.3709992258 2.6469669131 2.9144344902 1.7563855631 1.8785697967 1.8563003522 2.0024758186 1.9913306621 1.9779583789 
2.1243706857 2.1243706857 2.1243706857 2.1243706857 2.2408671392 2.2510113037 2.2630782103 2.2776669786 2.295651703 
2.3494282469 2.3680303173 2.3899057108 2.4159740166 2.4475202889 2.486385773 2.448570738 2.4736848652 2.5028148801 
2.5369440334 2.5773755784 2.6258554882 2.6847397011 2.5377803997 2.5675431237 2.6015718084 2.6407557529 2.6862098746 
2.7393287203 2.8018393335 2.8758309421 1.6743954455 1.6743954455 1.7840462375 1.6743954455 1.7840462375 1.8974821136 
1.6743954455 1.7840462375 1.8974821136 2.0119052671 1.6743954455 1.7840462375 1.8974821136 2.0119052671 2.1243706857 
1.6743954455 1.7840462375 1.8974821136 2.0119052671 2.1243706857 2.232221744 1.6743954455 1.7840462375 1.8974821136 
2.0119052671 2.1243706857 2.232221744 2.3334263672 1.6743954455 1.7840462375 1.8974821136 2.0119052671 2.1243706857 
2.232221744 2.3334263672 2.426721652 1.4671972081 1.3575464161 1.4671972081 1.24411054 1.3575464161 1.4671972081 
1.1296873865 1.24411054 1.3575464161 1.4671972081 1.0172219679 1.1296873865 1.24411054 1.3575464161 1.4671972081 
0.90937090954 1.0172219679 1.1296873865 1.24411054 1.3575464161 1.4671972081 0.80816628637 0.90937090954 1.0172219679 
1.1296873865 1.24411054 1.3575464161 1.4671972081 0.71487100155 0.80816628637 0.90937090954 1.0172219679 1.1296873865 
1.24411054 1.3575464161 1.4671972081 0.60381225391 0.57404952988 0.69302191562 0.54002084522 0.66790778838 0.79216440667 
0.50083690068 0.63877777351 0.77356233629 0.90072551443 0.45538277901 0.60464862014 0.75168694275 0.89058134991 1.0172219679 
0.40226393329 0.56421707518 0.72561863695 0.87851444325 1.0172219679 1.139116835 0.33975332011 0.51573716537 0.69407236469 
0.86392567495 1.0172219679 1.1502619915 1.2630228569 0.26576171152 0.45685295248 0.6552068806 0.84594095064 1.0172219679 
1.1636342747 1.2852923014 1.3852070904 0.22715816343 0.3129712797 0.49462574053 0.49462574053 0.68021497688 0.77059342779 
1.0172219679 1.0172219679 1.0172219679 1.0172219679 2.1243706857 1.5707963268 1.3676273807 1.271087727 1.2156949949 
2.6469669131 2.1243706857 1.7739652728 1.5707963268 1.447813335 1.3676273807 2.8286213739 2.4613776767 2.1243706857 
1.8705049266 1.6937793186 1.5707963268 1.4827341049 2.9144344902 2.6469669131 2.3709992258 2.1243706857 1.9258976586 
1.7739652728 1.6588585487 1.5707963268 1.7563855631 1.8563003522 1.8785697967 1.9779583789 1.9913306621 2.0024758186 
2.1243706857 2.1243706857 2.1243706857 2.1243706857 2.295651703 2.2776669786 2.2630782103 2.2510113037 2.2408671392 
2.486385773 2.4475202889 2.4159740166 2.3899057108 2.3680303173 2.3494282469 2.6847397011 2.6258554882 2.5773755784 
2.5369440334 2.5028148801 2.4736848652 2.448570738 2.8758309421 2.8018393335 2.7393287203 2.6862098746 2.6407557529 
2.6015718084 2.5675431237 2.5377803997 5.8604937156 5.901393709 5.9723133995 5.9473927383 6.0216547488 6.0927478736 
5.9992719463 6.0767621038 6.1501452836 6.2190157008 6.0578962336 6.1383094565 6.2134963469 0 0.064169606361 
6.1241815303 6.206940195 6.2831853072 0.069688960264 0.13304002361 0.19043743361 6.1990255847 0 0.07624511221 
0.14487585072 0.20642320337 0.26153055843 0.3108719077 0 0.084159722458 0.15900377685 0.22528907359 0.28391336087 
0.3357925689 0.38179159818 0.42269159155 5.8604937156 5.9723133995 5.901393709 6.0927478736 6.0216547488 5.9473927383 
6.2190157008 6.1501452836 6.0767621038 5.9992719463 0.064169606361 0 6.2134963469 6.1383094565 6.0578962336 
0.19043743361 0.13304002361 0.069688960264 6.2831853072 6.206940195 6.1241815303 0.3108719077 0.26153055843 0.20642320337 
0.14487585072 0.07624511221 6.2831853072 6.1990255847 0.42269159155 0.38179159818 0.3357925689 0.28391336087 0.22528907359 
0.15900377685 0.084159722458 0 5.6793730533 5.7091357773 5.5901633916 5.743164462 5.6152775188 5.4910209005 
5.7823484065 5.6444075337 5.5096229709 5.3824597928 5.8278025282 5.678536687 5.5314983644 5.3926039573 5.2659633393 
5.8809213739 5.718968232 5.5575666702 5.4046708639 5.2659633393 5.1440684722 5.9434319871 5.7674481418 5.5891129425 
5.4192596322 5.2659633393 5.1329233157 5.0201624502 6.0174235957 5.8263323547 5.6279784266 5.4372443565 5.2659633393 
5.1195510325 4.9978930058 4.8979782167 1.3852070904 1.2852923014 1.2630228569 1.1636342747 1.1502619915 1.139116835 
1.0172219679 1.0172219679 1.0172219679 1.0172219679 0.84594095064 0.86392567495 0.87851444325 0.89058134991 0.90072551443 
0.6552068806 0.69407236469 0.72561863695 0.75168694275 0.77356233629 0.79216440667 0.45685295248 0.51573716537 0.56421707518 
0.60464862014 0.63877777351 0.66790778838 0.69302191562 0.26576171152 0.33975332011 0.40226393329 0.45538277901 0.50083690068 
0.54002084522 0.57404952988 0.60381225391 
_paraPhiHalf 1 1002 double
0 3.1415926536 0 3.1415926536 1.5707963268 1.5707963268 1.5707963268 1.5707963268 2.5880182947 
0.5535743589 2.5880182947 0.5535743589 0 0 0 0 3.1415926536 3.1415926536 
3.1415926536 3.1415926536 3.1415926536 0.17788134 0.38438696014 0.60631181711 0.82323535693 1.0172219679 1.1799687454 
1.3118704726 1.4175000338 1.5022335207 0.17788134 0.38438696014 0.60631181711 0.82323535693 1.0172219679 1.1799687454 
1.3118704726 1.4175000338 1.5022335207 0.093902416448 0.17615329733 0.2478725152 0.31035131605 0.36486382811 0.41257334776 
0.45449736604 0.4915044461 0.52432611754 0.093902416448 0.17615329733 0.2478725152 0.31035131605 0.36486382811 0.41257334776 
0.45449736604 0.4915044461 0.52432611754 2.9637113136 2.7572056934 2.5352808365 2.3183572967 2.1243706857 1.9616239082 
1.829722181 1.7240926197 1.6393591329 2.9637113136 2.7572056934 2.5352808365 2.3183572967 2.1243706857 1.9616239082 
1.829722181 1.7240926197 1.6393591329 3.0476902371 2.9654393563 2.8937201384 2.8312413375 2.7767288255 2.7290193058 
2.6870952876 2.6500882075 2.617266536 3.0476902371 2.9654393563 2.8937201384 2.8312413375 2.7767288255 2.7290193058 
2.6870952876 2.6500882075 2.617266536 0 0 0 0 3.1415926536 3.1415926536 
3.1415926536 3.1415926536 3.1415926536 0.17788134 0.38438696014 0.60631181711 0.82323535693 1.0172219679 1.1799687454 
1.3118704726 1.4175000338 1.5022335207 0.17788134 0.38438696014 0.60631181711 0.82323535693 1.0172219679 1.1799687454 
1.3118704726 1.4175000338 1.5022335207 0.093902416448 0.17615329733 0.2478725152 0.31035131605 0.36486382811 0.41257334776 
0.45449736604 0.4915044461 0.52432611754 0.093902416448 0.17615329733 0.2478725152 0.31035131605 0.36486382811 0.41257334776 
0.45449736604 0.4915044461 0.52432611754 2.9637113136 2.7572056934 2.5352808365 2.3183572967 2.1243706857 1.9616239082 
1.829722181 1.7240926197 1.6393591329 2.9637113136 2.7572056934 2.5352808365 2.3183572967 2.1243706857 1.9616239082 
1.829722181 1.7240926197 1.6393591329 3.0476902371 2.9654393563 2.8937201384 2.8312413375 2.7767288255 2.7290193058 
2.6870952876 2.6500882075 2.617266536 3.0476902371 2.9654393563 2.8937201384 2.8312413375 2.7767288255 2.7290193058 
2.6870952876 2.6500882075 2.617266536 1.5707963268 1.5707963268 1.5707963268 1.5707963268 1.5707963268 1.5707963268 
1.5707963268 1.5707963268 1.5707963268 1.6743954455 1.7840462375 1.8974821136 2.0119052671 2.1243706857 2.232221744 
2.3334263672 2.426721652 2.5115728246 1.4671972081 1.3575464161 1.24411054 1.1296873865 1.0172219679 0.90937090954 
0.80816628637 0.71487100155 0.63001982895 1.6743954455 1.7840462375 1.8974821136 2.0119052671 2.1243706857 2.232221744 
2.3334263672 2.426721652 2.5115728246 1.4671972081 1.3575464161 1.24411054 1.1296873865 1.0172219679 0.90937090954 
0.80816628637 0.71487100155 0.63001982895 1.5707963268 1.5707963268 1.5707963268 1.5707963268 1.5707963268 1.5707963268 
1.5707963268 1.5707963268 1.5707963268 1.6743954455 1.7840462375 1.8974821136 2.0119052671 2.1243706857 2.232221744 
2.3334263672 2.426721652 2.5115728246 1.4671972081 1.3575464161 1.24411054 1.1296873865 1.0172219679 0.90937090954 
0.80816628637 0.71487100155 0.63001982895 1.6743954455 1.7840462375 1.8974821136 2.0119052671 2.1243706857 2.232221744 
2.3334263672 2.426721652 2.5115728246 1.4671972081 1.3575464161 1.24411054 1.1296873865 1.0172219679 0.90937090954 
0.80816628637 0.71487100155 0.63001982895 2.6824132222 2.7864913217 2.8992382033 3.0186096618 3.1415926536 3.0186096618 
2.8992382033 2.7864913217 2.6824132222 0.45917943135 0.35510133185 0.2423544503 0.12298299178 0 0.12298299178 
0.2423544503 0.35510133185 0.45917943135 0.22715816343 0.49462574053 0.3129712797 0.77059342779 0.68021497688 0.49462574053 
1.0172219679 1.0172219679 1.0172219679 1.0172219679 1.2156949949 1.271087727 1.3676273807 1.5707963268 2.1243706857 
1.3676273807 1.447813335 1.5707963268 1.7739652728 2.1243706857 2.6469669131 1.4827341049 1.5707963268 1.6937793186 
1.8705049266 2.1243706857 2.4613776767 2.8286213739 1.5707963268 1.6588585487 1.7739652728 1.9258976586 2.1243706857 
2.3709992258 2.6469669131 2.9144344902 0.26576171152 0.33975332011 0.45685295248 0.40226393329 0.51573716537 0.6552068806 
0.45538277901 0.56421707518 0.69407236469 0.84594095064 0.50083690068 0.60464862014 0.72561863695 0.86392567495 1.0172219679 
0.54002084522 0.63877777351 0.75168694275 0.87851444325 1.0172219679 1.1636342747 0.57404952988 0.66790778838 0.77356233629 
0.89058134991 1.0172219679 1.1502619915 1.2852923014 0.60381225391 0.69302191562 0.79216440667 0.90072551443 1.0172219679 
1.139116835 1.2630228569 1.3852070904 0.71487100155 0.80816628637 0.80816628637 0.90937090954 0.90937090954 0.90937090954 
1.0172219679 1.0172219679 1.0172219679 1.0172219679 1.1296873865 1.1296873865 1.1296873865 1.1296873865 1.1296873865 
1.24411054 1.24411054 1.24411054 1.24411054 1.24411054 1.24411054 1.3575464161 1.3575464161 1.3575464161 
1.3575464161 1.3575464161 1.3575464161 1.3575464161 1.4671972081 1.4671972081 1.4671972081 1.4671972081 1.4671972081 
1.4671972081 1.4671972081 1.4671972081 1.6743954455 1.6743954455 1.7840462375 1.6743954455 1.7840462375 1.8974821136 
1.6743954455 1.7840462375 1.8974821136 2.0119052671 1.6743954455 1.7840462375 1.8974821136 2.0119052671 2.1243706857 
1.6743954455 1.7840462375 1.8974821136 2.0119052671 2.1243706857 2.232221744 1.6743954455 1.7840462375 1.8974821136 
2.0119052671 2.1243706857 2.232221744 2.3334263672 1.6743954455 1.7840462375 1.8974821136 2.0119052671 2.1243706857 
2.232221744 2.3334263672 2.426721652 1.7563855631 1.8785697967 1.8563003522 2.0024758186 1.9913306621 1.9779583789 
2.1243706857 2.1243706857 2.1243706857 2.1243706857 2.2408671392 2.2510113037 2.2630782103 2.2776669786 2.295651703 
2.3494282469 2.3680303173 2.3899057108 2.4159740166 2.4475202889 2.486385773 2.448570738 2.4736848652 2.5028148801 
2.5369440334 2.5773755784 2.6258554882 2.6847397011 2.5377803997 2.5675431237 2.6015718084 2.6407557529 2.6862098746 
2.7393287203 2.8018393335 2.8758309421 2.718901062 2.8307207459 2.7598010554 2.95115522 2.8800620952 2.8058000847 
3.0774230472 3.00855263 2.9351694502 2.8576792927 3.0774230472 3.1415926536 3.0719036933 2.9967168029 2.91630358 
2.95115522 3.00855263 3.0719036933 3.1415926536 3.0653475414 2.9825888767 2.8307207459 2.8800620952 2.9351694502 
2.9967168029 3.0653475414 3.1415926536 3.0574329311 2.718901062 2.7598010554 2.8058000847 2.8576792927 2.91630358 
2.9825888767 3.0574329311 3.1415926536 2.718901062 2.7598010554 2.8307207459 2.8058000847 2.8800620952 2.95115522 
2.8576792927 2.9351694502 3.00855263 3.0774230472 2.91630358 2.9967168029 3.0719036933 3.1415926536 3.0774230472 
2.9825888767 3.0653475414 3.1415926536 3.0719036933 3.00855263 2.95115522 3.0574329311 3.1415926536 3.0653475414 