# vtk DataFile Version 5.1
vtk output
ASCII
DATASET POLYDATA
POINTS 1002 float
-13.576 0.493091 -1.67675 11.9564 0.112953 -4.10761 -11.3217 1.69948 3.78751 
10.4415 -0.407978 4.45553 1.90321 8.78334 -2.68799 0.226574 8.40001 3.04848 
2.91064 -3.77393 -1.82174 1.77716 -4.51251 2.9506 19.7197 4.17471 -1.34438 
-18.9841 2.28266 -1.38148 19.1933 -8.10433 -1.76304 -18.8747 -11.3648 -1.24773 
-11.4852 1.14308 -1.12763 -8.94509 1.72901 -0.826752 -6.13884 2.15805 -0.707173 
-3.01859 2.34883 -0.862917 0.36299 2.27675 -1.47298 3.52838 1.98471 -2.35669 
6.12496 1.54924 -3.08513 8.31549 1.04828 -3.53791 10.2879 0.552117 -3.863 
-12.622 1.21933 -1.59686 -11.4631 2.05726 -1.39593 -10.1862 3.00276 -1.09459 
-8.719 3.93004 -0.86367 -6.89714 4.7114 -0.891966 -4.80422 5.43577 -1.17771 
-2.75913 6.29063 -1.57549 -0.955374 7.25307 -1.98722 0.597469 8.12514 -2.37509 
-13.1983 0.253092 -1.24863 -12.5528 0.113146 -0.794529 -11.575 0.0297753 -0.424304 
-10.3065 -0.102621 -0.152213 -8.79921 -0.279837 0.166818 -6.97883 -0.405571 0.572114 
-4.70794 -0.605721 0.725326 -2.04366 -1.2192 0.250601 0.648058 -2.36141 -0.754725 
-14.7811 0.275961 -2.42682 -15.8342 0.0882829 -3.1855 -16.7986 -0.0572075 -3.66133 
-17.725 -0.0197347 -3.84973 -18.5757 0.418501 -4.03509 -19.2693 1.19689 -4.20424 
-19.7014 1.89484 -3.96427 -19.7672 2.21279 -3.20082 -19.4784 2.25717 -2.23735 
-15.0186 -0.446416 -2.27463 -15.9609 -1.65716 -3.24343 -16.4825 -3.14689 -4.45042 
-16.9806 -4.77369 -5.44646 -17.5446 -6.33905 -5.83011 -17.8193 -7.8004 -5.54867 
-17.779 -9.21793 -4.73692 -17.8804 -10.4671 -3.57115 -18.3316 -11.2435 -2.31847 
11.3791 1.08525 -4.11899 10.6198 2.15544 -4.05507 9.76196 3.19032 -3.98733 
8.88839 4.10121 -4.07001 8.00501 4.94735 -4.31997 7.03753 5.83487 -4.4593 
5.90749 6.76081 -4.22943 4.61707 7.62451 -3.72148 3.25139 8.31838 -3.17753 
11.4423 -0.536336 -3.9145 10.7377 -1.16478 -3.59403 9.84412 -1.77717 -3.11301 
8.86009 -2.39415 -2.61158 7.95059 -2.95108 -2.33963 7.18525 -3.33546 -2.37779 
6.42247 -3.55888 -2.52752 5.46082 -3.71962 -2.53373 4.25554 -3.81861 -2.2878 
13.0941 0.290562 -4.28569 14.1058 0.515695 -4.34352 15.0359 0.811163 -4.22797 
16.023 1.21271 -3.9882 17.0202 1.70121 -3.71474 17.7962 2.20803 -3.39603 
18.3459 2.71552 -2.96036 18.8896 3.24812 -2.42275 19.4335 3.76574 -1.86754 
13.072 -0.700932 -4.11277 13.9875 -1.55319 -3.9269 14.7739 -2.53642 -3.5118 
15.5777 -3.6851 -2.95006 16.4828 -4.79795 -2.56843 17.4759 -5.66028 -2.66677 
18.4305 -6.35692 -3.01537 19.1174 -7.05569 -3.04921 19.3673 -7.69447 -2.55019 
-9.31855 2.14318 4.5319 -7.0622 2.3407 5.01475 -4.51758 2.28914 5.05986 
-1.81159 2.0809 4.84763 0.875853 1.78455 4.55374 3.47922 1.3924 4.14682 
5.86072 0.915895 3.8026 7.7743 0.425063 3.84407 9.21437 -0.0214297 4.1922 
-10.6068 2.36196 4.25204 -9.72495 3.12611 4.66532 -8.70634 3.95008 4.97848 
-7.56411 4.72344 5.10519 -6.23526 5.38226 4.91171 -4.71606 6.00623 4.42884 
-3.19955 6.69165 3.93079 -1.89114 7.38999 3.60822 -0.789892 7.97692 3.36909 
-10.6653 1.43164 3.76936 -9.80354 1.18133 3.79302 -8.80127 0.885969 3.96395 
-7.64375 0.468747 4.20286 -6.19364 -0.102913 4.26063 -4.44113 -0.831197 4.0709 
-2.64941 -1.70439 3.82669 -1.04741 -2.66272 3.62253 0.395261 -3.6177 3.35331 
-12.8455 1.50247 3.29359 -14.33 1.26731 2.8057 -15.7604 1.06898 2.4409 
-17.2091 0.980385 2.20405 -18.4998 1.01405 1.81569 -19.1514 1.07655 0.99923 
-19.0728 1.10726 -0.0216186 -18.8153 1.2399 -0.770612 -18.8235 1.644 -1.1423 
-13.0042 0.860424 3.04591 -14.9187 -0.260597 2.51628 -16.8519 -1.60977 2.25871 
-18.3372 -3.01064 1.92783 -19.0969 -4.3897 1.2016 -19.3904 -5.93532 0.328133 
-19.5886 -7.75828 -0.226751 -19.6712 -9.54243 -0.464038 -19.4354 -10.8113 -0.738103 
9.91228 0.60068 4.39307 9.35584 1.63816 4.12603 8.69267 2.63207 3.70511 
7.82054 3.58664 3.2593 6.68207 4.54706 2.98972 5.30673 5.51648 3.01006 
3.83551 6.43847 3.17019 2.46022 7.24369 3.2286 1.27374 7.89545 3.14577 
10.1846 -1.15578 4.29162 9.76755 -1.8761 4.06701 9.10514 -2.53434 3.85684 
8.26305 -3.13466 3.70228 7.34183 -3.66649 3.59049 6.28755 -4.09333 3.50256 
5.07375 -4.41107 3.4153 3.87566 -4.62049 3.28655 2.81261 -4.66871 3.11236 
11.4154 -0.133344 4.49431 12.6369 0.222226 4.24033 14.015 0.66499 3.73505 
15.2729 1.18104 3.18634 16.3522 1.74356 2.66977 17.516 2.34137 2.0335 
18.7823 2.95202 1.20154 19.7275 3.50161 0.290105 20.0188 3.91299 -0.576839 
11.6558 -1.25873 4.31842 13.1374 -2.14983 3.82692 14.6638 -3.0643 3.23085 
15.9343 -4.01785 2.80075 16.9265 -4.99813 2.44168 17.8786 -5.94465 1.85259 
18.8314 -6.78355 0.973635 19.4883 -7.44087 -0.0164099 19.5915 -7.87274 -0.953853 
1.73194 9.3059 -2.47389 1.3423 9.79029 -2.01027 0.769509 10.2758 -1.23093 
0.252688 10.6798 -0.2606 0.0462433 10.7898 0.658867 0.124495 10.5064 1.38773 
0.246783 9.98015 1.9432 0.273294 9.41744 2.38376 0.242511 8.89522 2.74536 
3.94852 9.02705 -3.21885 6.0317 9.06853 -3.62168 8.01694 8.91953 -3.7662 
9.85265 8.58414 -3.62554 11.6665 8.02118 -3.32986 13.5923 7.23715 -3.04264 
15.5564 6.36035 -2.78263 17.3387 5.54348 -2.4424 18.7512 4.83275 -1.95144 
-0.286421 8.66903 -2.01136 -2.7814 8.3093 -1.25305 -5.60243 7.79332 -0.487495 
-8.61967 7.26881 0.0639134 -11.5133 6.80792 0.188174 -14.025 6.33718 -0.0307146 
-16.0717 5.68761 -0.333332 -17.579 4.73362 -0.638379 -18.5034 3.52918 -0.999654 
1.98966 8.40957 2.58441 4.04976 8.3156 1.9206 6.22231 8.18111 1.38706 
8.18618 7.97307 1.34108 10.0468 7.55633 1.50317 12.3156 6.90597 1.16837 
15.0112 6.18079 0.24867 17.4368 5.51092 -0.659427 19.0052 4.86954 -1.15855 
-1.56102 8.56203 3.2461 -3.75679 8.57479 3.57483 -6.27299 8.38249 3.96995 
-8.75294 7.90913 4.06935 -11.0306 7.15117 3.61646 -13.2582 6.22239 2.79031 
-15.3677 5.2227 1.84082 -17.0261 4.18449 0.794315 -18.1571 3.17254 -0.324503 
3.21238 -4.55569 -2.01709 3.35007 -5.19407 -1.98889 3.28396 -5.57217 -1.61186 
3.08263 -5.71924 -0.930209 2.85026 -5.74622 -0.116468 2.62812 -5.6919 0.681285 
2.40629 -5.52117 1.39887 2.18121 -5.23473 2.01807 1.96567 -4.88388 2.53562 
5.37211 -5.28982 -2.82632 7.08426 -6.5567 -3.01927 8.47764 -7.45601 -2.68198 
10.3335 -8.35987 -2.74122 12.6361 -9.50533 -3.46576 14.5126 -10.3711 -3.96546 
15.6428 -10.3409 -3.6059 16.6141 -9.58947 -2.81659 17.8549 -8.73405 -2.18077 
-0.105362 -2.67796 -0.467723 -3.91331 -1.73584 0.927265 -8.04475 -1.60872 1.56534 
-11.6511 -2.70606 0.977428 -13.9848 -4.67238 -0.419325 -15.1401 -6.7708 -1.64133 
-15.9598 -8.63166 -2.05749 -16.9978 -10.163 -1.81686 -18.0811 -11.1431 -1.43708 
3.79773 -5.51912 2.56743 5.7147 -6.47905 2.2606 7.45841 -7.39903 2.05451 
9.22492 -8.28649 1.69069 11.2699 -9.02746 0.935262 13.415 -9.43313 0.0578924 
15.2296 -9.43394 -0.504125 16.6654 -9.13059 -0.80876 17.9696 -8.66016 -1.20259 
-0.485936 -3.59731 3.14571 -3.57294 -2.6308 3.37953 -7.31619 -2.20258 3.45924 
-10.9428 -2.81726 3.14749 -13.6744 -4.30795 2.42554 -15.5396 -6.09582 1.5758 
-17.022 -7.89281 0.861814 -18.1871 -9.5902 0.25441 -18.797 -10.8574 -0.423958 
20.2741 3.17352 -0.966956 20.6131 1.8161 -0.573784 20.9764 0.161898 -0.250095 
21.5225 -1.49172 0.003811 22.1315 -2.93325 0.068915 22.5481 -4.26733 -0.314808 
22.541 -5.56321 -1.0709 21.9154 -6.64423 -1.69309 20.6878 -7.43428 -1.86706 
-19.6686 0.996374 -2.14304 -20.3195 -0.370059 -2.68661 -20.7903 -1.82563 -2.97938 
-20.945 -3.34379 -3.13038 -20.744 -4.80862 -3.24426 -20.2455 -6.23966 -3.26741 
-19.6628 -7.84989 -3.04622 -19.2695 -9.56948 -2.52537 -19.0889 -10.8848 -1.84814 
-10.2734 1.86253 -1.06109 -8.96986 2.72113 -0.831192 -7.61694 2.42382 -0.745656 
-7.57793 3.63755 -0.598501 -6.22422 3.2586 -0.576009 -4.65131 2.79276 -0.762204 
-5.8632 4.42675 -0.676263 -4.60464 4.09181 -0.639644 -3.01086 3.54747 -0.91668 
-1.26548 2.88508 -1.26744 -3.73826 5.06283 -1.16468 -2.55329 4.75178 -1.20214 
-1.0949 4.26707 -1.42613 0.565576 3.52899 -1.78632 2.15234 2.7274 -2.11913 
-1.55204 5.76782 -1.82027 -0.299374 5.3168 -2.07884 1.02879 4.8325 -2.29453 
2.4218 4.1498 -2.45299 3.7723 3.3048 -2.63588 5.00566 2.42569 -2.87432 
0.343171 6.66223 -2.39661 1.69338 6.01178 -2.86661 2.99979 5.36252 -3.198 
4.18635 4.67062 -3.21825 5.25742 3.88806 -3.10611 6.29133 3.00697 -3.15586 
7.33231 2.03976 -3.36391 1.92138 7.58035 -2.84509 3.29488 6.84546 -3.39926 
4.60315 6.02051 -3.85824 5.73062 5.19815 -3.93863 6.67847 4.40808 -3.68915 
7.57334 3.58468 -3.50269 8.51774 2.63426 -3.57752 9.46684 1.57911 -3.75914 
-13.9842 1.10266 -2.18419 -15.2866 0.974914 -2.68131 -12.9155 2.04959 -1.83296 
-16.4123 0.897496 -2.88358 -14.3395 2.03318 -2.09271 -11.5909 3.12778 -1.42223 
-17.1933 1.09809 -2.98253 -15.4179 2.1179 -2.09638 -12.9256 3.29826 -1.51542 
-9.93355 4.19254 -1.10194 -17.6508 1.74769 -3.25749 -15.9106 2.5027 -2.1874 
-13.8219 3.58425 -1.42561 -11.0724 4.55896 -1.08545 -7.91766 5.12045 -1.00031 
-18.0346 2.60977 -3.41801 -16.1227 3.22249 -2.47929 -14.2039 4.04554 -1.49636 
-11.8895 4.96915 -0.936389 -8.93849 5.63232 -0.87553 -5.74732 6.0109 -1.11075 
-18.4333 3.23953 -2.97625 -16.567 3.99741 -2.43539 -14.5847 4.6579 -1.60191 
-12.4649 5.38333 -0.856205 -9.82252 6.06673 -0.617962 -6.73201 6.58344 -0.868864 
-3.67982 6.97172 -1.36243 -18.6444 3.48771 -2.01601 -17.2042 4.51814 -1.70632 
-15.322 5.26483 -1.22517 -13.1741 5.85045 -0.635221 -10.6406 6.41152 -0.293619 
-7.67688 6.97023 -0.468521 -4.62733 7.49175 -1.01977 -1.8409 7.90538 -1.69058 
-17.6051 4.47846 0.236111 -16.2222 5.4845 1.39822 -16.5633 5.71114 0.655557 
-14.1566 6.46236 2.31767 -14.8442 6.6898 1.71252 -14.7982 6.6601 0.847256 
-11.7004 7.39016 3.02667 -12.3984 7.63585 2.38492 -12.71 7.62965 1.66671 
-12.3294 7.27844 0.876294 -9.25058 8.22445 3.53557 -9.75495 8.52336 2.80177 
-10.1019 8.58261 2.06887 -9.97417 8.24562 1.37928 -9.36888 7.71091 0.68836 
-6.76526 8.82271 3.67188 -7.21173 9.2244 3.04072 -7.52797 9.415 2.26486 
-7.47396 9.19561 1.54177 -6.95648 8.67007 0.837107 -6.23529 8.16156 0.120168 
-4.17747 9.09298 3.4277 -4.60775 9.58903 3.0122 -4.98424 9.95194 2.34561 
-5.08016 9.97476 1.58772 -4.68742 9.6103 0.797825 -3.95655 9.10486 -0.0277446 
[...]
POINT_DATA 1002
FIELD FieldData 4
_paraPhi 1 1002 double
6.2831853072 3.1415926536 6.2831853072 3.1415926536 4.7123889804 4.7123889804 1.5707963268 1.5707963268 3.6951670125 
5.7296109483 2.5880182947 0.5535743589 6.2831853072 6.2831853072 6.2831853072 6.2831853072 3.1415926536 3.1415926536 
3.1415926536 3.1415926536 3.1415926536 6.1053039672 5.898798347 5.6768734901 5.4599499503 5.2659633393 5.1032165617 
4.9713148346 4.8656852733 4.7809517865 0.17788134 0.38438696014 0.60631181711 0.82323535693 1.0172219679 1.1799687454 
1.3118704726 1.4175000338 1.5022335207 6.1892828907 6.1070320098 6.035312792 5.9728339911 5.9183214791 5.8706119594 
5.8286879411 5.7916808611 5.7588591896 0.093902416448 0.17615329733 0.2478725152 0.31035131605 0.36486382811 0.41257334776 
0.45449736604 0.4915044461 0.52432611754 3.3194739936 3.5259796137 3.7479044707 3.9648280105 4.1588146215 4.321561399 
4.4534631262 4.5590926874 4.6438261743 2.9637113136 2.7572056934 2.5352808365 2.3183572967 2.1243706857 1.9616239082 
1.829722181 1.7240926197 1.6393591329 3.23549507 3.3177459509 3.3894651688 3.4519439696 3.5064564817 3.5541660013 
3.5960900196 3.6330970997 3.6659187711 3.0476902371 2.9654393563 2.8937201384 2.8312413375 2.7767288255 2.7290193058 
2.6870952876 2.6500882075 2.617266536 6.2831853072 6.2831853072 6.2831853072 6.2831853072 3.1415926536 3.1415926536 
3.1415926536 3.1415926536 3.1415926536 6.1053039672 5.898798347 5.6768734901 5.4599499503 5.2659633393 5.1032165617 
4.9713148346 4.8656852733 4.7809517865 0.17788134 0.38438696014 0.60631181711 0.82323535693 1.0172219679 1.1799687454 
1.3118704726 1.4175000338 1.5022335207 6.1892828907 6.1070320098 6.035312792 5.9728339911 5.9183214791 5.8706119594 
5.8286879411 5.7916808611 5.7588591896 0.093902416448 0.17615329733 0.2478725152 0.31035131605 0.36486382811 0.41257334776 
0.45449736604 0.4915044461 0.52432611754 3.3194739936 3.5259796137 3.7479044707 3.9648280105 4.1588146215 4.321561399 
4.4534631262 4.5590926874 4.6438261743 2.9637113136 2.7572056934 2.5352808365 2.3183572967 2.1243706857 1.9616239082 
1.829722181 1.7240926197 1.6393591329 3.23549507 3.3177459509 3.3894651688 3.4519439696 3.5064564817 3.5541660013 
3.5960900196 3.6330970997 3.6659187711 3.0476902371 2.9654393563 2.8937201384 2.8312413375 2.7767288255 2.7290193058 
2.6870952876 2.6500882075 2.617266536 4.7123889804 4.7123889804 4.7123889804 4.7123889804 4.7123889804 4.7123889804 
4.7123889804 4.7123889804 4.7123889804 4.6087898617 4.4991390697 4.3857031936 4.2712800401 4.1588146215 4.0509635631 
3.94975894 3.8564636551 3.7716124825 4.8159880991 4.9256388911 5.0390747672 5.1534979207 5.2659633393 5.3738143976 
5.4750190208 5.5683143056 5.6531654782 4.6087898617 4.4991390697 4.3857031936 4.2712800401 4.1588146215 4.0509635631 
3.94975894 3.8564636551 3.7716124825 4.8159880991 4.9256388911 5.0390747672 5.1534979207 5.2659633393 5.3738143976 
5.4750190208 5.5683143056 5.6531654782 1.5707963268 1.5707963268 1.5707963268 1.5707963268 1.5707963268 1.5707963268 
1.5707963268 1.5707963268 1.5707963268 1.6743954455 1.7840462375 1.8974821136 2.0119052671 2.1243706857 2.232221744 
2.3334263672 2.426721652 2.5115728246 1.4671972081 1.3575464161 1.24411054 1.1296873865 1.0172219679 0.90937090954 
0.80816628637 0.71487100155 0.63001982895 1.6743954455 1.7840462375 1.8974821136 2.0119052671 2.1243706857 2.232221744 
2.3334263672 2.426721652 2.5115728246 1.4671972081 1.3575464161 1.24411054 1.1296873865 1.0172219679 0.90937090954 
0.80816628637 0.71487100155 0.63001982895 3.6007720849 3.4966939854 3.3839471039 3.2645756454 3.1415926536 3.0186096618 
2.8992382033 2.7864913217 2.6824132222 5.8240058758 5.9280839753 6.0408308569 6.1602023154 6.2831853072 0.12298299178 
0.2423544503 0.35510133185 0.45917943135 6.0560271438 5.7885595667 5.9702140275 5.5125918794 5.6029703303 5.7885595667 
5.2659633393 5.2659633393 5.2659633393 5.2659633393 5.0674903122 5.0120975802 4.9155579264 4.7123889804 4.1588146215 
4.9155579264 4.8353719722 4.7123889804 4.5092200343 4.1588146215 3.6362183941 4.8004512023 4.7123889804 4.5894059886 
4.4126803806 4.1588146215 3.8218076305 3.4545639333 4.7123889804 4.6243267584 4.5092200343 4.3572876485 4.1588146215 
3.9121860814 3.6362183941 3.368750817 6.0174235957 5.9434319871 5.8263323547 5.8809213739 5.7674481418 5.6279784266 
5.8278025282 5.718968232 5.5891129425 5.4372443565 5.7823484065 5.678536687 5.5575666702 5.4192596322 5.2659633393 
5.743164462 5.6444075337 5.5314983644 5.4046708639 5.2659633393 5.1195510325 5.7091357773 5.6152775188 5.5096229709 
5.3926039573 5.2659633393 5.1329233157 4.9978930058 5.6793730533 5.5901633916 5.4910209005 5.3824597928 5.2659633393 
5.1440684722 5.0201624502 4.8979782167 5.5683143056 5.4750190208 5.4750190208 5.3738143976 5.3738143976 5.3738143976 
5.2659633393 5.2659633393 5.2659633393 5.2659633393 5.1534979207 5.1534979207 5.1534979207 5.1534979207 5.1534979207 
5.0390747672 5.0390747672 5.0390747672 5.0390747672 5.0390747672 5.0390747672 4.9256388911 4.9256388911 4.9256388911 
4.9256388911 4.9256388911 4.9256388911 4.9256388911 4.8159880991 4.8159880991 4.8159880991 4.8159880991 4.8159880991 
4.8159880991 4.8159880991 4.8159880991 4.6087898617 4.6087898617 4.4991390697 4.6087898617 4.4991390697 4.3857031936 
4.6087898617 4.4991390697 4.3857031936 4.2712800401 4.6087898617 4.4991390697 4.3857031936 4.2712800401 4.1588146215 
4.6087898617 4.4991390697 4.3857031936 4.2712800401 4.1588146215 4.0509635631 4.6087898617 4.4991390697 4.3857031936 
4.2712800401 4.1588146215 4.0509635631 3.94975894 4.6087898617 4.4991390697 4.3857031936 4.2712800401 4.1588146215 
4.0509635631 3.94975894 3.8564636551 4.526799744 4.4046155105 4.426884955 4.2807094886 4.2918546451 4.3052269283 
4.1588146215 4.1588146215 4.1588146215 4.1588146215 4.042318168 4.0321740035 4.0201070968 4.0055183285 3.9875336042 
3.9337570603 3.9151549899 3.8932795963 3.8672112905 3.8356650183 3.7967995342 3.8346145692 3.809500442 3.7803704271 
3.7462412737 3.7058097288 3.657329819 3.5984456061 3.7454049075 3.7156421835 3.6816134988 3.6424295543 3.5969754326 
3.5438565869 3.4813459737 3.4073543651 3.5642842451 3.4524645613 3.5233842518 3.3320300872 3.403123212 3.4773852225 
3.20576226 3.2746326772 3.348015857 3.4255060145 3.0774230472 3.1415926536 3.2112816139 3.2864685043 3.3668817272 
2.95115522 3.00855263 3.0719036933 3.1415926536 3.2178377658 3.3005964304 2.8307207459 2.8800620952 2.9351694502 
2.9967168029 3.0653475414 3.1415926536 3.225752376 2.718901062 2.7598010554 2.8058000847 2.8576792927 2.91630358 
2.9825888767 3.0574329311 3.1415926536 3.5642842451 3.5233842518 3.4524645613 3.4773852225 3.403123212 3.3320300872 
3.4255060145 3.348015857 3.2746326772 3.20576226 3.3668817272 3.2864685043 3.2112816139 3.1415926536 3.0774230472 
3.3005964304 3.2178377658 3.1415926536 3.0719036933 3.00855263 2.95115522 3.225752376 3.1415926536 3.0653475414 
2.9967168029 2.9351694502 2.8800620952 2.8307207459 3.1415926536 3.0574329311 2.9825888767 2.91630358 2.8576792927 
2.8058000847 2.7598010554 2.718901062 4.526799744 4.426884955 4.4046155105 4.3052269283 4.2918546451 4.2807094886 
4.1588146215 4.1588146215 4.1588146215 4.1588146215 3.9875336042 4.0055183285 4.0201070968 4.0321740035 4.042318168 
3.7967995342 3.8356650183 3.8672112905 3.8932795963 3.9151549899 3.9337570603 3.5984456061 3.657329819 3.7058097288 
3.7462412737 3.7803704271 3.809500442 3.8346145692 3.4073543651 3.4813459737 3.5438565869 3.5969754326 3.6424295543 
3.6816134988 3.7156421835 3.7454049075 4.7123889804 4.8004512023 4.6243267584 4.9155579264 4.7123889804 4.5092200343 
5.0674903122 4.8353719722 4.5894059886 4.3572876485 5.2659633393 5.0120975802 4.7123889804 4.4126803806 4.1588146215 
5.5125918794 5.2659633393 4.9155579264 4.5092200343 4.1588146215 3.9121860814 5.7885595667 5.6029703303 5.2659633393 
4.7123889804 4.1588146215 3.8218076305 3.6362183941 6.0560271438 5.9702140275 5.7885595667 5.2659633393 4.1588146215 
3.6362183941 3.4545639333 3.368750817 0.22715816343 0.49462574053 0.3129712797 0.77059342779 0.68021497688 0.49462574053 
1.0172219679 1.0172219679 1.0172219679 1.0172219679 1.2156949949 1.271087727 1.3676273807 1.5707963268 2.1243706857 
1.3676273807 1.447813335 1.5707963268 1.7739652728 2.1243706857 2.6469669131 1.4827341049 1.5707963268 1.6937793186 
1.8705049266 2.1243706857 2.4613776767 2.8286213739 1.5707963268 1.6588585487 1.7739652728 1.9258976586 2.1243706857 
2.3709992258 2.6469669131 2.9144344902 1.7563855631 1.8785697967 1.8563003522 2.0024758186 1.9913306621 1.9779583789 
2.1243706857 2.1243706857 2.1243706857 2.1243706857 2.2408671392 2.2510113037 2.2630782103 2.2776669786 2.295651703 
2.3494282469 2.3680303173 2.3899057108 2.4159740166 2.4475202889 2.486385773 2.448570738 2.4736848652 2.5028148801 
2.5369440334 2.5773755784 2.6258554882 2.6847397011 2.5377803997 2.5675431237 2.6015718084 2.6407557529 2.6862098746 
2.7393287203 2.8018393335 2.8758309421 1.6743954455 1.6743954455 1.7840462375 1.6743954455 1.7840462375 1.8974821136 
1.6743954455 1.7840462375 1.8974821136 2.0119052671 1.6743954455 1.7840462375 1.8974821136 2.0119052671 2.1243706857 
1.6743954455 1.7840462375 1.8974821136 2.0119052671 2.1243706857 2.232221744 1.6743954455 1.7840462375 1.8974821136 
2.0119052671 2.1243706857 2.232221744 2.3334263672 1.6743954455 1.7840462375 1.8974821136 2.0119052671 2.1243706857 
2.232221744 2.3334263672 2.426721652 1.4671972081 1.3575464161 1.4671972081 1.24411054 1.3575464161 1.4671972081 
1.1296873865 1.24411054 1.3575464161 1.4671972081 1.0172219679 1.1296873865 1.24411054 1.3575464161 1.4671972081 
0.90937090954 1.0172219679 1.1296873865 1.24411054 1.3575464161 1.4671972081 0.80816628637 0.90937090954 1.0172219679 
1.1296873865 1.24411054 1.3575464161 1.4671972081 0.71487100155 0.80816628637 0.90937090954 1.0172219679 1.1296873865 
1.24411054 1.3575464161 1.4671972081 0.60381225391 0.57404952988 0.69302191562 0.54002084522 0.66790778838 0.79216440667 
0.50083690068 0.63877777351 0.77356233629 0.90072551443 0.45538277901 0.60464862014 0.75168694275 0.89058134991 1.0172219679 
0.40226393329 0.56421707518 0.72561863695 0.87851444325 1.0172219679 1.139116835 0.33975332011 0.51573716537 0.69407236469 
0.86392567495 1.0172219679 1.1502619915 1.2630228569 0.26576171152 0.45685295248 0.6552068806 0.84594095064 1.0172219679 
1.1636342747 1.2852923014 1.3852070904 0.22715816343 0.3129712797 0.49462574053 0.49462574053 0.68021497688 0.77059342779 
1.0172219679 1.0172219679 1.0172219679 1.0172219679 2.1243706857 1.5707963268 1.3676273807 1.271087727 1.2156949949 
2.6469669131 2.1243706857 1.7739652728 1.5707963268 1.447813335 1.3676273807 2.8286213739 2.4613776767 2.1243706857 
1.8705049266 1.6937793186 1.5707963268 1.4827341049 2.9144344902 2.6469669131 2.3709992258 2.1243706857 1.9258976586 
1.7739652728 1.6588585487 1.5707963268 1.7563855631 1.8563003522 1.8785697967 1.9779583789 1.9913306621 2.0024758186 
2.1243706857 2.1243706857 2.1243706857 2.1243706857 2.295651703 2.2776669786 2.2630782103 2.2510113037 2.2408671392 
2.486385773 2.4475202889 2.4159740166 2.3899057108 2.3680303173 2.3494282469 2.6847397011 2.6258554882 2.5773755784 
2.5369440334 2.5028148801 2.4736848652 2.448570738 2.8758309421 2.8018393335 2.7393287203 2.6862098746 2.6407557529 
2.6015718084 2.5675431237 2.5377803997 5.8604937156 5.901393709 5.9723133995 5.9473927383 6.0216547488 6.0927478736 
5.9992719463 6.0767621038 6.1501452836 6.2190157008 6.0578962336 6.1383094565 6.2134963469 0 0.064169606361 
6.1241815303 6.206940195 6.2831853072 0.069688960264 0.13304002361 0.19043743361 6.1990255847 0 0.07624511221 
0.14487585072 0.20642320337 0.26153055843 0.3108719077 0 0.084159722458 0.15900377685 0.22528907359 0.28391336087 
0.3357925689 0.38179159818 0.42269159155 5.8604937156 5.9723133995 5.901393709 6.0927478736 6.0216547488 5.9473927383 
6.2190157008 6.1501452836 6.0767621038 5.9992719463 0.064169606361 0 6.2134963469 6.1383094565 6.0578962336 
0.19043743361 0.13304002361 0.069688960264 6.2831853072 6.206940195 6.1241815303 0.3108719077 0.26153055843 0.20642320337 
0.14487585072 0.07624511221 6.2831853072 6.1990255847 0.42269159155 0.38179159818 0.3357925689 0.28391336087 0.22528907359 
0.15900377685 0.084159722458 0 5.6793730533 5.7091357773 5.5901633916 5.743164462 5.6152775188 5.4910209005 
5.7823484065 5.6444075337 5.5096229709 5.3824597928 5.8278025282 5.678536687 5.5314983644 5.3926039573 5.2659633393 
5.8809213739 5.718968232 5.5575666702 5.4046708639 5.2659633393 5.1440684722 5.9434319871 5.7674481418 5.5891129425 
5.4192596322 5.2659633393 5.1329233157 5.0201624502 6.0174235957 5.8263323547 5.6279784266 5.4372443565 5.2659633393 
5.1195510325 4.9978930058 4.8979782167 1.3852070904 1.2852923014 1.2630228569 1.1636342747 1.1502619915 1.139116835 
1.0172219679 1.0172219679 1.0172219679 1.0172219679 0.84594095064 0.86392567495 0.87851444325 0.89058134991 0.90072551443 
0.6552068806 0.69407236469 0.72561863695 0.75168694275 0.77356233629 0.79216440667 0.45685295248 0.51573716537 0.56421707518 
0.60464862014 0.63877777351 0.66790778838 0.69302191562 0.26576171152 0.33975332011 0.40226393329 0.45538277901 0.50083690068 
0.54002084522 0.57404952988 0.60381225391 
_paraPhiHalf 1 1002 double
0 3.1415926536 0 3.1415926536 1.5707963268 1.5707963268 1.5707963268 1.5707963268 2.5880182947 
0.5535743589 2.5880182947 0.5535743589 0 0 0 0 3.1415926536 3.1415926536 
3.1415926536 3.1415926536 3.1415926536 0.17788134 0.38438696014 0.60631181711 0.82323535693 1.0172219679 1.1799687454 
1.3118704726 1.4175000338 1.5022335207 0.17788134 0.38438696014 0.60631181711 0.82323535693 1.0172219679 1.1799687454 
1.3118704726 1.4175000338 1.5022335207 0.093902416448 0.17615329733 0.2478725152 0.31035131605 0.36486382811 0.41257334776 
0.45449736604 0.4915044461 0.52432611754 0.093902416448 0.17615329733 0.2478725152 0.31035131605 0.36486382811 0.41257334776 
0.45449736604 0.4915044461 0.52432611754 2.9637113136 2.7572056934 2.5352808365 2.3183572967 2.1243706857 1.9616239082 
1.829722181 1.7240926197 1.6393591329 2.9637113136 2.7572056934 2.5352808365 2.3183572967 2.1243706857 1.9616239082 
1.829722181 1.7240926197 1.6393591329 3.0476902371 2.9654393563 2.8937201384 2.8312413375 2.7767288255 2.7290193058 
2.6870952876 2.6500882075 2.617266536 3.0476902371 2.9654393563 2.8937201384 2.8312413375 2.7767288255 2.7290193058 
2.6870952876 2.6500882075 2.617266536 0 0 0 0 3.1415926536 3.1415926536 
3.1415926536 3.1415926536 3.1415926536 0.17788134 0.38438696014 0.60631181711 0.82323535693 1.0172219679 1.1799687454 
1.3118704726 1.4175000338 1.5022335207 0.17788134 0.38438696014 0.60631181711 0.82323535693 1.0172219679 1.1799687454 
1.3118704726 1.4175000338 1.5022335207 0.093902416448 0.17615329733 0.2478725152 0.31035131605 0.36486382811 0.41257334776 
0.45449736604 0.4915044461 0.52432611754 0.093902416448 0.17615329733 0.2478725152 0.31035131605 0.36486382811 0.41257334776 
0.45449736604 0.4915044461 0.52432611754 2.9637113136 2.7572056934 2.5352808365 2.3183572967 2.1243706857 1.9616239082 
1.829722181 1.7240926197 1.6393591329 2.9637113136 2.7572056934 2.5352808365 2.3183572967 2.1243706857 1.9616239082 
1.829722181 1.7240926197 1.6393591329 3.0476902371 2.9654393563 2.8937201384 2.8312413375 2.7767288255 2.7290193058 
2.6870952876 2.6500882075 2.617266536 3.0476902371 2.9654393563 2.8937201384 2.8312413375 2.7767288255 2.7290193058 
2.6870952876 2.6500882075 2.617266536 1.5707963268 1.5707963268 1.5707963268 1.5707963268 1.5707963268 1.5707963268 
1.5707963268 1.5707963268 1.5707963268 1.6743954455 1.7840462375 1.8974821136 2.0119052671 2.1243706857 2.232221744 
2.3334263672 2.426721652 2.5115728246 1.4671972081 1.3575464161 1.24411054 1.1296873865 1.0172219679 0.90937090954 
0.80816628637 0.71487100155 0.63001982895 1.6743954455 1.7840462375 1.8974821136 2.0119052671 2.1243706857 2.232221744 
2.3334263672 2.426721652 2.5115728246 1.4671972081 1.3575464161 1.24411054 1.1296873865 1.0172219679 0.90937090954 
0.80816628637 0.71487100155 0.63001982895 1.5707963268 1.5707963268 1.5707963268 1.5707963268 1.5707963268 1.5707963268 
1.5707963268 1.5707963268 1.5707963268 1.6743954455 1.7840462375 1.8974821136 2.0119052671 2.1243706857 2.232221744 
2.3334263672 2.426721652 2.5115728246 1.4671972081 1.3575464161 1.24411054 1.1296873865 1.0172219679 0.90937090954 
0.80816628637 0.71487100155 0.63001982895 1.6743954455 1.7840462375 1.8974821136 2.0119052671 2.1243706857 2.232221744 
2.3334263672 2.426721652 2.5115728246 1.4671972081 1.3575464161 1.24411054 1.1296873865 1.0172219679 0.90937090954 
0.80816628637 0.71487100155 0.63001982895 2.6824132222 2.7864913217 2.8992382033 3.0186096618 3.1415926536 3.0186096618 
2.8992382033 2.7864913217 2.6824132222 0.45917943135 0.35510133185 0.2423544503 0.12298299178 0 0.12298299178 
0.2423544503 0.35510133185 0.45917943135 0.22715816343 0.49462574053 0.3129712797 0.77059342779 0.68021497688 0.49462574053 
1.0172219679 1.0172219679 1.0172219679 1.0172219679 1.2156949949 1.271087727 1.3676273807 1.5707963268 2.1243706857 
1.3676273807 1.447813335 1.5707963268 1.7739652728 2.1243706857 2.6469669131 1.4827341049 1.5707963268 1.6937793186 
1.8705049266 2.1243706857 2.4613776767 2.8286213739 1.5707963268 1.6588585487 1.7739652728 1.9258976586 2.1243706857 
2.3709992258 2.6469669131 2.9144344902 0.26576171152 0.33975332011 0.45685295248 0.40226393329 0.51573716537 0.6552068806 
0.45538277901 0.56421707518 0.69407236469 0.84594095064 0.50083690068 0.60464862014 0.72561863695 0.86392567495 1.0172219679 
0.54002084522 0.63877777351 0.75168694275 0.87851444325 1.0172219679 1.1636342747 0.57404952988 0.66790778838 0.77356233629 
0.89058134991 1.0172219679 1.1502619915 1.2852923014 0.60381225391 0.69302191562 0.79216440667 0.90072551443 1.0172219679 
1.139116835 1.2630228569 1.3852070904 0.71487100155 0.80816628637 0.80816628637 0.90937090954 0.90937090954 0.90937090954 
1.0172219679 1.0172219679 1.0172219679 1.0172219679 1.1296873865 1.1296873865 1.1296873865 1.1296873865 1.1296873865 
1.24411054 1.24411054 1.24411054 1.24411054 1.24411054 1.24411054 1.3575464161 1.3575464161 1.3575464161 
1.3575464161 1.3575464161 1.3575464161 1.3575464161 1.4671972081 1.4671972081 1.4671972081 1.4671972081 1.4671972081 
1.4671972081 1.4671972081 1.4671972081 1.6743954455 1.6743954455 1.7840462375 1.6743954455 1.7840462375 1.8974821136 
1.6743954455 1.7840462375 1.8974821136 2.0119052671 1.6743954455 1.7840462375 1.8974821136 2.0119052671 2.1243706857 
1.6743954455 1.7840462375 1.8974821136 2.0119052671 2.1243706857 2.232221744 1.6743954455 1.7840462375 1.8974821136 
2.0119052671 2.1243706857 2.232221744 2.3334263672 1.6743954455 1.7840462375 1.8974821136 2.0119052671 2.1243706857 
2.232221744 2.3334263672 2.426721652 1.7563855631 1.8785697967 1.8563003522 2.0024758186 1.9913306621 1.9779583789 
2.1243706857 2.1243706857 2.1243706857 2.1243706857 2.2408671392 2.2510113037 2.2630782103 2.2776669786 2.295651703 
2.3494282469 2.3680303173 2.3899057108 2.4159740166 2.4475202889 2.486385773 2.448570738 2.4736848652 2.5028148801 
2.5369440334 2.5773755784 2.6258554882 2.6847397011 2.5377803997 2.5675431237 2.6015718084 2.6407557529 2.6862098746 
2.7393287203 2.8018393335 2.8758309421 2.718901062 2.8307207459 2.7598010554 2.95115522 2.8800620952 2.8058000847 
3.0774230472 3.00855263 2.9351694502 2.8576792927 3.0774230472 3.1415926536 3.0719036933 2.9967168029 2.91630358 
2.95115522 3.00855263 3.0719036933 3.1415926536 3.0653475414 2.9825888767 2.8307207459 2.8800620952 2.9351694502 
2.9967168029 3.0653475414 3.1415926536 3.0574329311 2.718901062 2.7598010554 2.8058000847 2.8576792927 2.91630358 
2.9825888767 3.0574329311 3.1415926536 2.718901062 2.7598010554 2.8307207459 2.8058000847 2.8800620952 2.95115522 
2.8576792927 2.9351694502 3.00855263 3.0774230472 2.91630358 2.9967168029 3.0719036933 3.1415926536 3.0774230472 
2.9825888767 3.0653475414 3.1415926536 3.0719036933 3.00855263 2.95115522 3.0574329311 3.1415926536 3.0653475414 