# vtk DataFile Version 5.1
vtk output
ASCII
DATASET POLYDATA
POINTS 100 float
-120.367 -90.1048 106.384 -120.371 -90.1084 106.39 -120.382 -90.1126 106.404 
-120.4 -90.1175 106.424 -120.426 -90.1233 106.443 -120.462 -90.1306 106.457 
-120.507 -90.1398 106.459 -120.564 -90.1519 106.442 -120.632 -90.1679 106.401 
-120.715 -90.1888 106.33 -120.811 -90.2161 106.228 -120.924 -90.2509 106.091 
-121.053 -90.2946 105.921 -121.199 -90.3483 105.72 -121.364 -90.413 105.49 
-121.548 -90.4895 105.235 -121.751 -90.5783 104.96 -121.975 -90.6795 104.669 
-122.219 -90.7931 104.365 -122.483 -90.9186 104.051 -122.767 -91.0554 103.729 
-123.072 -91.203 103.399 -123.395 -91.3608 103.061 -123.737 -91.5284 102.712 
-124.095 -91.7058 102.352 -124.467 -91.8936 101.977 -124.851 -92.093 101.585 
-125.244 -92.3057 101.176 -125.643 -92.5344 100.748 -126.045 -92.7825 100.302 
-126.445 -93.0539 99.8385 -126.84 -93.353 99.3597 -127.226 -93.6845 98.8683 
-127.599 -94.0531 98.3677 -127.955 -94.4631 97.8619 -128.291 -94.918 97.3547 
-128.605 -95.4207 96.85 -128.893 -95.9725 96.3515 -129.153 -96.5735 95.8627 
-129.383 -97.2221 95.3864 -129.582 -97.915 94.9251 -129.75 -98.6474 94.4808 
-129.885 -99.4129 94.0549 -129.989 -100.204 93.6483 -130.063 -101.013 93.2614 
-130.109 -101.83 92.8942 -130.127 -102.647 92.546 -130.122 -103.455 92.2157 
-130.096 -104.247 91.9015 -130.052 -105.016 91.6013 -129.993 -105.757 91.3126 
-129.923 -106.466 91.0325 -129.845 -107.143 90.758 -129.762 -107.787 90.4864 
-129.675 -108.398 90.2149 -129.587 -108.981 89.9415 -129.498 -109.538 89.6646 
-129.41 -110.073 89.3835 -129.321 -110.59 89.0983 -129.234 -111.095 88.8098 
-129.145 -111.59 88.5193 -129.057 -112.08 88.229 -128.967 -112.565 87.9408 
-128.877 -113.048 87.6569 -128.786 -113.529 87.3792 -128.696 -114.008 87.1087 
-128.606 -114.484 86.8462 -128.52 -114.954 86.5913 -128.438 -115.417 86.343 
-128.362 -115.871 86.0998 -128.293 -116.314 85.8595 -128.233 -116.744 85.6197 
-128.183 -117.158 85.3782 -128.142 -117.557 85.1331 -128.11 -117.94 84.883 
-128.085 -118.306 84.6271 -128.067 -118.656 84.3657 -128.052 -118.991 84.0995 
-128.038 -119.311 83.8302 -128.023 -119.618 83.5597 -128.004 -119.913 83.2902 
-127.981 -120.198 83.0239 -127.95 -120.473 82.763 -127.913 -120.739 82.5089 
-127.87 -120.997 82.263 -127.821 -121.248 82.0258 -127.768 -121.491 81.7977 
-127.712 -121.726 81.5788 -127.657 -121.952 81.3689 -127.603 -122.169 81.1683 
-127.553 -122.374 80.9774 -127.508 -122.565 80.7972 -127.469 -122.742 80.6291 
-127.437 -122.901 80.4752 -127.411 -123.041 80.3379 -127.391 -123.159 80.22 
-127.377 -123.254 80.1242 -127.367 -123.323 80.0529 -127.362 -123.366 80.0081 
-127.361 -123.381 79.9913 
LINES 2 100
OFFSETS vtktypeint64
0 100 
CONNECTIVITY vtktypeint64
0 1 2 3 4 5 6 7 8 
9 10 11 12 13 14 15 16 17 
18 19 20 21 22 23 24 25 26 
27 28 29 30 31 32 33 34 35 
36 37 38 39 40 41 42 43 44 
45 46 47 48 49 50 51 52 53 
54 55 56 57 58 59 60 61 62 
63 64 65 66 67 68 69 70 71 
72 73 74 75 76 77 78 79 80 
81 82 83 84 85 86 87 88 89 
90 91 92 93 94 95 96 97 98 
99 
POINT_DATA 100
FIELD FieldData 3
_theta 1 100 double
0 0.031733259127 0.063466518254 0.095199777382 0.12693303651 0.15866629564 0.19039955476 0.22213281389 0.25386607302 
0.28559933214 0.31733259127 0.3490658504 0.38079910953 0.41253236865 0.44426562778 0.47599888691 0.50773214603 0.53946540516 
0.57119866429 0.60293192342 0.63466518254 0.66639844167 0.6981317008 0.72986495992 0.76159821905 0.79333147818 0.82506473731 
0.85679799643 0.88853125556 0.92026451469 0.95199777382 0.98373103294 1.0154642921 1.0471975512 1.0789308103 1.1106640695 
1.1423973286 1.1741305877 1.2058638468 1.237597106 1.2693303651 1.3010636242 1.3327968833 1.3645301425 1.3962634016 
1.4279966607 1.4597299198 1.491463179 1.5231964381 1.5549296972 1.5866629564 1.6183962155 1.6501294746 1.6818627337 
1.7135959929 1.745329252 1.7770625111 1.8087957702 1.8405290294 1.8722622885 1.9039955476 1.9357288068 1.9674620659 
1.999195325 2.0309285841 2.0626618433 2.0943951024 2.1261283615 2.1578616206 2.1895948798 2.2213281389 2.253061398 
2.2847946572 2.3165279163 2.3482611754 2.3799944345 2.4117276937 2.4434609528 2.4751942119 2.506927471 2.5386607302 
2.5703939893 2.6021272484 2.6338605076 2.6655937667 2.6973270258 2.7290602849 2.7607935441 2.7925268032 2.8242600623 
2.8559933214 2.8877265806 2.9194598397 2.9511930988 2.982926358 3.0146596171 3.0463928762 3.0781261353 3.1098593945 
3.1415926536 
_radius 1 100 double
1.9844378647e-13 0.37768778563 0.75271145635 1.1227809621 1.4862990108 1.8424468357 2.1910436968 2.5322192106 2.8659903857 
3.191855767 3.5085007885 3.8136627989 4.1041549786 4.376017843 4.6247641403 4.8456996351 5.0343189086 5.1867733438 
5.300383534 5.3741324656 5.4090473387 5.4083704164 5.3774387841 5.3232396633 5.2536762032 5.1766516987 5.0991301328 
5.0263384284 4.9612586045 4.9045492877 4.854987151 4.8103216046 4.768195558 4.7267934043 4.6851341005 4.6431487944 
4.601723505 4.5628030931 4.5295364032 4.5063490172 4.4987785967 4.5129131732 4.5543807385 4.6270848834 4.7321368304 
4.8674167644 5.0278643234 5.2062756825 5.3943027202 5.5834267345 5.7657738398 5.9347127302 6.0852461732 6.2142630132 
6.3206962002 6.4055330449 6.4715730122 6.522906987 6.564215021 6.6000369471 6.6341397917 6.6690289141 6.7055890461 
6.7428431572 6.7778714342 6.8059788742 6.8211848724 6.817031356 6.7876068261 6.7286030721 6.6381843522 6.5174667776 
6.3704774735 6.203574061 6.0244298552 5.8407984848 5.6593303932 5.4846928382 5.3191364883 5.162494243 5.0124735066 
4.8650826747 4.7151119044 4.5566873658 4.3839500723 4.1918495385 3.9769349824 3.7379474309 3.4760181147 3.1943708365 
2.897574717 2.590534719 2.277479451 1.9611999373 1.642748262 1.3217217685 0.99707113736 0.66810256124 0.33520718123 
3.0204249488e-13 
_area 1 100 double
0 0.44253909331 1.7655932458 3.953180343 6.9730662504 10.773716282 15.28587251 20.427892627 26.111356836 
32.243743568 38.727082987 45.453096024 52.295869037 59.103898179 65.694906517 71.857869061 77.365403745 81.995889885 
85.560532762 87.928918324 89.047848203 88.950728183 87.757508632 85.667008694 82.942395986 79.887910704 76.81467474 
73.996727339 71.623908744 69.767842181 68.386113169 67.374958317 66.641215316 66.142594398 65.870338299 65.804725187 
65.902977874 66.130703621 66.491549637 67.030505651 67.813599194 68.903315689 70.351993159 72.21627072 74.579908578 
77.553204259 81.217223411 85.523164374 90.305881967 95.455149815 100.92187399 106.49507702 111.77302257 116.35721001 
119.95965349 122.43301764 123.78499563 124.18111717 123.932371 123.46576827 123.26240852 123.72794494 125.06478563 
127.19416624 129.78603432 132.34401008 134.32755399 135.26452871 134.82436511 132.85466459 129.38536015 124.60655879 
118.8288261 112.43577045 105.83485726 99.407567017 93.461229724 88.190225153 83.656359987 79.792539862 76.42447703 
73.302470915 70.139672547 66.656082607 62.625233264 57.915918073 52.518626248 46.548169173 40.220263281 33.808009865 
27.59056405 21.807769066 16.63091066 12.153926305 8.4043344573 5.3685804545 3.0212181842 1.345197415 0.33690834348 
0 
