# vtk DataFile Version 5.1
vtk output
ASCII
DATASET POLYDATA
POINTS 100 float
-122.958 -120.328 69.7508 -122.949 -120.304 69.7668 -122.922 -120.232 69.8206 
-122.881 -120.115 69.9102 -122.83 -119.957 70.0331 -122.773 -119.763 70.1855 
-122.716 -119.54 70.3635 -122.665 -119.296 70.5629 -122.623 -119.038 70.7797 
-122.595 -118.775 71.0102 -122.583 -118.513 71.2514 -122.588 -118.259 71.5008 
-122.609 -118.016 71.7565 -122.644 -117.788 72.0173 -122.691 -117.573 72.2822 
-122.746 -117.369 72.5506 -122.806 -117.17 72.8216 -122.869 -116.97 73.0947 
-122.931 -116.761 73.3691 -122.992 -116.534 73.6439 -123.051 -116.28 73.9183 
-123.109 -115.993 74.1915 -123.168 -115.669 74.4631 -123.229 -115.305 74.733 
-123.293 -114.901 75.0017 -123.364 -114.463 75.27 -123.442 -113.996 75.5391 
-123.528 -113.508 75.8107 -123.622 -113.01 76.0863 -123.723 -112.509 76.3675 
-123.83 -112.013 76.6553 -123.941 -111.53 76.9502 -124.054 -111.061 77.252 
-124.169 -110.607 77.5601 -124.284 -110.163 77.8728 -124.399 -109.723 78.1887 
-124.513 -109.28 78.5058 -124.626 -108.822 78.8227 -124.74 -108.339 79.1386 
-124.854 -107.823 79.4538 -124.97 -107.266 79.7694 -125.086 -106.664 80.088 
-125.203 -106.017 80.4132 -125.318 -105.326 80.7492 -125.429 -104.598 81.1007 
-125.531 -103.841 81.4722 -125.62 -103.064 81.8675 -125.692 -102.278 82.289 
-125.742 -101.493 82.7377 -125.764 -100.717 83.2125 -125.755 -99.9561 83.7105 
-125.712 -99.2148 84.2269 -125.634 -98.494 84.7555 -125.518 -97.7927 85.2896 
-125.367 -97.1082 85.8221 -125.182 -96.4369 86.3465 -124.966 -95.7751 86.8575 
-124.722 -95.1197 87.3518 -124.456 -94.4689 87.8279 -124.17 -93.8226 88.2866 
-123.869 -93.1825 88.7306 -123.556 -92.5519 89.1643 -123.236 -91.9352 89.593 
-122.91 -91.3373 90.0225 -122.581 -90.7629 90.458 -122.251 -90.2159 90.9036 
-121.92 -89.6983 91.3621 -121.59 -89.2108 91.8338 -121.262 -88.7518 92.3175 
-120.935 -88.3182 92.8099 -120.609 -87.9055 93.3061 -120.285 -87.5088 93.8004 
-119.962 -87.1233 94.2869 -119.639 -86.7448 94.7599 -119.314 -86.3709 95.2147 
-118.987 -86.0009 95.648 -118.656 -85.6362 96.0583 -118.318 -85.28 96.4456 
-117.973 -84.9367 96.8114 -117.618 -84.6118 97.1586 -117.253 -84.3104 97.4903 
-116.878 -84.0372 97.81 -116.493 -83.795 98.1206 -116.1 -83.5849 98.4241 
-115.701 -83.4057 98.7213 -115.3 -83.2543 99.0118 -114.901 -83.1256 99.2937 
-114.508 -83.0137 99.5643 -114.128 -82.9121 99.8203 -113.765 -82.815 100.058 
-113.424 -82.7179 100.275 -113.11 -82.618 100.467 -112.826 -82.5148 100.634 
-112.576 -82.41 100.774 -112.362 -82.3075 100.889 -112.185 -82.2123 100.979 
-112.047 -82.1302 101.047 -111.949 -82.0669 101.093 -111.889 -82.0272 101.121 
-111.87 -82.0141 101.131 
LINES 2 100
OFFSETS vtktypeint64
0 100 
CONNECTIVITY vtktypeint64
0 1 2 3 4 5 6 7 8 
9 10 11 12 13 14 15 16 17 
18 19 20 21 22 23 24 25 26 
27 28 29 30 31 32 33 34 35 
36 37 38 39 40 41 42 43 44 
45 46 47 48 49 50 51 52 53 
54 55 56 57 58 59 60 61 62 
63 64 65 66 67 68 69 70 71 
72 73 74 75 76 77 78 79 80 
81 82 83 84 85 86 87 88 89 
90 91 92 93 94 95 96 97 98 
99 
POINT_DATA 100
FIELD FieldData 3
_theta 1 100 double
0 0.031733259127 0.063466518254 0.095199777382 0.12693303651 0.15866629564 0.19039955476 0.22213281389 0.25386607302 
0.28559933214 0.31733259127 0.3490658504 0.38079910953 0.41253236865 0.44426562778 0.47599888691 0.50773214603 0.53946540516 
0.57119866429 0.60293192342 0.63466518254 0.66639844167 0.6981317008 0.72986495992 0.76159821905 0.79333147818 0.82506473731 
0.85679799643 0.88853125556 0.92026451469 0.95199777382 0.98373103294 1.0154642921 1.0471975512 1.0789308103 1.1106640695 
1.1423973286 1.1741305877 1.2058638468 1.237597106 1.2693303651 1.3010636242 1.3327968833 1.3645301425 1.3962634016 
1.4279966607 1.4597299198 1.491463179 1.5231964381 1.5549296972 1.5866629564 1.6183962155 1.6501294746 1.6818627337 
1.7135959929 1.745329252 1.7770625111 1.8087957702 1.8405290294 1.8722622885 1.9039955476 1.9357288068 1.9674620659 
1.999195325 2.0309285841 2.0626618433 2.0943951024 2.1261283615 2.1578616206 2.1895948798 2.2213281389 2.253061398 
2.2847946572 2.3165279163 2.3482611754 2.3799944345 2.4117276937 2.4434609528 2.4751942119 2.506927471 2.5386607302 
2.5703939893 2.6021272484 2.6338605076 2.6655937667 2.6973270258 2.7290602849 2.7607935441 2.7925268032 2.8242600623 
2.8559933214 2.8877265806 2.9194598397 2.9511930988 2.982926358 3.0146596171 3.0463928762 3.0781261353 3.1098593945 
3.1415926536 
_radius 1 100 double
2.628047754e-13 0.30687299321 0.61254735696 0.91545933993 1.213834805 1.5057904613 1.7895757793 2.063874635 2.328047164 
2.5821977447 2.8270090878 3.0633731766 3.2919432844 3.5127780648 3.7252133702 3.9279952701 4.1196027135 4.2986398615 
4.4641944252 4.6161045504 4.7551135374 4.8829015808 5.0019765363 5.1154071939 5.2264128018 5.3378760899 5.4518878182 
5.5694180314 5.690142782 5.8123883027 5.93314302 6.048132302 6.152001241 6.2386582089 6.3017898873 6.3354978294 
6.3349626703 6.2970308513 6.2206361274 6.107001184 5.959601332 5.7839057884 5.5869408364 5.3767430317 5.1617869093 
4.9504728429 4.7507344105 4.5697604968 4.4137416993 4.2875143313 4.1940753305 4.1341384173 4.1059853175 4.1057268498 
4.1278943441 4.1661818904 4.2141466141 4.2657426588 4.315685942 4.3597201918 4.3948259569 4.419340173 4.4329211863 
4.4363295534 4.4310654159 4.4189665976 4.4019051842 4.3817097923 4.3603625359 4.3403647976 4.3249905042 4.3180859194 
4.3232861324 4.3429562996 4.3774097767 4.4247136556 4.4810064059 4.5410961084 4.5991298879 4.6491845784 4.6856936235 
4.7036950629 4.6989413309 4.6679325875 4.6079194893 4.5168869631 4.3935028071 4.2370113287 4.0470755468 3.8236097536 
3.5666747128 3.2765054396 2.9536936077 2.5994692704 2.2159655097 1.8063500018 1.3747729978 0.9261679601 0.46599374071 
8.8846730832e-14 
_area 1 100 double
0 0.29595401099 1.1911196691 2.6998831102 4.8254177781 7.5405954729 10.777907545 14.433627679 18.385452324 
22.517564136 26.743807708 31.019610933 35.337245631 39.706199654 44.127495553 48.573468493 52.981130147 57.260574856 
61.314636956 65.064173623 68.473443911 71.570491335 74.458252868 77.312901041 80.362276578 83.828792062 87.848459618 
92.437315014 97.520452547 102.96280744 108.57609491 114.11280282 119.26355817 123.67090288 126.96515801 128.81745672 
128.9961548 127.40985395 124.12391359 119.3458774 113.38477301 106.59478653 99.316785131 91.842591546 84.428530417 
77.33545596 70.845964762 65.253977502 60.842545528 57.815245781 56.164573485 55.702060157 56.147799162 57.176354145 
58.461602553 59.729683905 60.792824863 61.556540901 62.00409756 62.16280675 62.063722026 61.714288924 61.098896135 
60.199169056 59.016802815 57.589926923 55.996472369 54.34231764 52.752488991 51.358890121 50.28679297 49.668130116 
49.629255622 50.253528291 51.530488058 53.32904336 55.428933798 57.58584286 59.575828714 61.20350285 62.291657551 
62.672535941 62.191168544 60.721917757 58.193596807 54.614535733 50.087112707 44.804167126 39.026257278 33.044892247 
27.141060338 21.551309422 16.453099629 11.970288811 8.1840399694 5.1363842726 2.8300366854 1.2348675699 0.3048182156 
0 
