# vtk DataFile Version 5.1
vtk output
ASCII
DATASET POLYDATA
POINTS 100 float
-107.63 -95.9433 101.085 -107.637 -95.9478 101.073 -107.661 -95.9623 101.035 
-107.7 -95.9867 100.97 -107.756 -96.0207 100.88 -107.83 -96.064 100.767 
-107.923 -96.1166 100.632 -108.036 -96.179 100.477 -108.168 -96.252 100.304 
-108.32 -96.3373 100.117 -108.49 -96.4368 99.9181 -108.677 -96.5531 99.7091 
-108.879 -96.6886 99.4925 -109.093 -96.8457 99.2702 -109.317 -97.0265 99.0438 
-109.549 -97.2322 98.8143 -109.789 -97.4629 98.5822 -110.033 -97.7181 98.3474 
-110.283 -97.9958 98.1096 -110.538 -98.2933 97.8679 -110.798 -98.6072 97.6211 
-111.065 -98.934 97.3681 -111.338 -99.27 97.1077 -111.619 -99.6122 96.839 
-111.907 -99.9584 96.5613 -112.201 -100.307 96.2741 -112.5 -100.659 95.9777 
-112.802 -101.015 95.6724 -113.105 -101.377 95.3592 -113.406 -101.747 95.0392 
-113.703 -102.13 94.7137 -113.994 -102.529 94.3842 -114.276 -102.947 94.0522 
-114.55 -103.385 93.7189 -114.815 -103.846 93.3856 -115.071 -104.331 93.0532 
-115.319 -104.84 92.7229 -115.56 -105.372 92.3952 -115.795 -105.927 92.0709 
-116.024 -106.505 91.7508 -116.248 -107.104 91.4356 -116.465 -107.723 91.126 
-116.673 -108.365 90.8228 -116.87 -109.027 90.527 -117.053 -109.712 90.2393 
-117.219 -110.419 89.9603 -117.363 -111.147 89.6907 -117.484 -111.896 89.4305 
-117.579 -112.663 89.1795 -117.648 -113.444 88.9371 -117.691 -114.235 88.7023 
-117.71 -115.03 88.4738 -117.708 -115.821 88.2499 -117.689 -116.603 88.029 
-117.657 -117.368 87.8095 -117.616 -118.109 87.5897 -117.572 -118.823 87.3686 
-117.526 -119.506 87.1454 -117.481 -120.157 86.9201 -117.438 -120.777 86.6929 
-117.396 -121.368 86.4647 -117.355 -121.934 86.2366 -117.312 -122.48 86.0102 
-117.266 -123.01 85.7868 -117.214 -123.53 85.5678 -117.154 -124.044 85.3544 
-117.087 -124.553 85.1471 -117.013 -125.059 84.9462 -116.934 -125.561 84.7513 
-116.851 -126.057 84.5617 -116.768 -126.544 84.3762 -116.69 -127.019 84.1937 
-116.619 -127.476 84.0126 -116.559 -127.915 83.8318 -116.512 -128.332 83.6504 
-116.478 -128.726 83.4679 -116.458 -129.098 83.2843 -116.449 -129.45 83.0999 
-116.451 -129.784 82.9158 -116.459 -130.103 82.7331 -116.47 -130.41 82.5534 
-116.481 -130.708 82.378 -116.49 -130.999 82.2086 -116.493 -131.282 82.0464 
-116.491 -131.558 81.8924 -116.484 -131.824 81.7472 -116.473 -132.077 81.6111 
-116.46 -132.312 81.4842 -116.446 -132.526 81.3664 -116.435 -132.716 81.2574 
-116.429 -132.878 81.1569 -116.428 -133.012 81.0649 -116.433 -133.118 80.9815 
-116.443 -133.198 80.9068 -116.457 -133.255 80.8414 -116.474 -133.294 80.7859 
-116.49 -133.318 80.741 -116.503 -133.331 80.7074 -116.512 -133.339 80.6859 
-116.515 -133.342 80.6767 
LINES 2 100
OFFSETS vtktypeint64
0 100 
CONNECTIVITY vtktypeint64
0 1 2 3 4 5 6 7 8 
9 10 11 12 13 14 15 16 17 
18 19 20 21 22 23 24 25 26 
27 28 29 30 31 32 33 34 35 
36 37 38 39 40 41 42 43 44 
45 46 47 48 49 50 51 52 53 
54 55 56 57 58 59 60 61 62 
63 64 65 66 67 68 69 70 71 
72 73 74 75 76 77 78 79 80 
81 82 83 84 85 86 87 88 89 
90 91 92 93 94 95 96 97 98 
99 
POINT_DATA 100
FIELD FieldData 3
_theta 1 100 double
0 0.031733259127 0.063466518254 0.095199777382 0.12693303651 0.15866629564 0.19039955476 0.22213281389 0.25386607302 
0.28559933214 0.31733259127 0.3490658504 0.38079910953 0.41253236865 0.44426562778 0.47599888691 0.50773214603 0.53946540516 
0.57119866429 0.60293192342 0.63466518254 0.66639844167 0.6981317008 0.72986495992 0.76159821905 0.79333147818 0.82506473731 
0.85679799643 0.88853125556 0.92026451469 0.95199777382 0.98373103294 1.0154642921 1.0471975512 1.0789308103 1.1106640695 
1.1423973286 1.1741305877 1.2058638468 1.237597106 1.2693303651 1.3010636242 1.3327968833 1.3645301425 1.3962634016 
1.4279966607 1.4597299198 1.491463179 1.5231964381 1.5549296972 1.5866629564 1.6183962155 1.6501294746 1.6818627337 
1.7135959929 1.745329252 1.7770625111 1.8087957702 1.8405290294 1.8722622885 1.9039955476 1.9357288068 1.9674620659 
1.999195325 2.0309285841 2.0626618433 2.0943951024 2.1261283615 2.1578616206 2.1895948798 2.2213281389 2.253061398 
2.2847946572 2.3165279163 2.3482611754 2.3799944345 2.4117276937 2.4434609528 2.4751942119 2.506927471 2.5386607302 
2.5703939893 2.6021272484 2.6338605076 2.6655937667 2.6973270258 2.7290602849 2.7607935441 2.7925268032 2.8242600623 
2.8559933214 2.8877265806 2.9194598397 2.9511930988 2.982926358 3.0146596171 3.0463928762 3.0781261353 3.1098593945 
3.1415926536 
_radius 1 100 double
3.1776437162e-14 0.35709167241 0.70911469097 1.0517203367 1.3817694711 1.6975099436 1.9984279766 2.2848671432 2.557551799 
2.8171300156 3.0638036949 3.2970927995 3.5157916418 3.7181573838 3.9022830877 4.0665131149 4.2097503496 4.3315851089 
4.4322744838 4.5126570611 4.5740817882 4.6183782554 4.647837873 4.6651476277 4.6732321327 4.6750019284 4.6730532908 
4.6693972103 4.6652974314 4.6612627063 4.657180189 4.6525263726 4.6465758636 4.6385537853 4.627731496 4.6135164181 
4.5955992905 4.5741803559 4.5502178178 4.5255702848 4.5028885136 4.485183871 4.475154163 4.474511043 4.4836141374 
4.5016074741 4.5270230541 4.5585992547 4.5959783609 4.6400213761 4.6926396001 4.7562053089 4.8327202626 4.9229762293 
5.0259383277 5.1385280102 5.2558794903 5.3719992947 5.4806286778 5.5760714422 5.6538160244 5.7108856653 5.745935559 
5.7591644387 5.7521195301 5.7274493753 5.6886138319 5.6395277499 5.5841235361 5.5258659577 5.4673050913 5.4097696055 
5.3532676789 5.2965967404 5.2376027357 5.1735018548 5.1011865649 5.0174707961 4.9192713323 4.803762144 4.6685629987 
4.5120175776 4.3335678435 4.1341480236 3.9164416551 3.6848201095 3.444832787 3.202231764 2.9616760184 2.7254763158 
2.4929202023 2.2605871799 2.0235263126 1.7766984042 1.5161401496 1.239659253 0.94711103794 0.64036304891 0.32302618874 
2.2845615912e-13 
_area 1 100 double
0 0.28692745742 1.1370352422 2.5243065473 4.420548539 6.8028976059 9.6474485301 12.919755955 16.575999349 
20.571692854 24.865339887 29.408288973 34.126810472 38.914743703 43.644482596 48.185521367 52.416637291 56.225839303 
59.504303012 62.14935272 64.0843268 65.285845677 65.801655333 65.748096705 65.287352325 64.594782168 63.830420145 
63.123886787 62.572689264 62.24650149 62.188345814 62.408215537 62.873785259 63.509930231 64.213963783 64.880369545 
65.424241952 65.798418423 66.004232593 66.095778344 66.174684233 66.369906202 66.799833089 67.525457224 68.518147058 
69.669834422 70.847978494 71.959638434 72.990907516 74.015609747 75.180321558 76.670513673 78.658620822 81.242627005 
84.401680813 87.992664661 91.782392342 95.495123769 98.86040174 101.65190151 103.7121366 104.96220485 105.39831012 
105.07805871 104.10162343 102.59452319 100.69630745 98.553286326 96.309340952 94.090898267 91.988377731 90.041213263 
88.233074012 86.499406594 84.744775947 82.864630906 80.764746509 78.371820915 75.631645216 72.497033042 68.914571714 
64.82396164 60.180457697 54.995372973 49.371588687 43.509792881 37.677638088 32.151070028 27.145437667 22.758296413 
18.951617884 15.594428102 12.545514577 9.7200379296 7.109671652 4.7689415065 2.7899391385 1.277148081 0.32519921306 
0 
