# vtk DataFile Version 5.1
vtk output
ASCII
DATASET POLYDATA
POINTS 100 float
-110.563 -100.361 115.024 -110.572 -100.38 115.02 -110.599 -100.432 115.008 
-110.644 -100.515 114.984 -110.708 -100.624 114.947 -110.789 -100.753 114.894 
-110.887 -100.897 114.822 -111.001 -101.048 114.728 -111.131 -101.202 114.611 
-111.276 -101.353 114.469 -111.436 -101.5 114.3 -111.609 -101.641 114.106 
-111.796 -101.775 113.887 -111.994 -101.904 113.646 -112.205 -102.03 113.384 
-112.426 -102.155 113.106 -112.658 -102.281 112.813 -112.901 -102.41 112.507 
-113.153 -102.543 112.192 -113.414 -102.68 111.868 -113.685 -102.821 111.535 
-113.964 -102.965 111.194 -114.251 -103.111 110.844 -114.545 -103.26 110.485 
-114.847 -103.412 110.114 -115.154 -103.57 109.731 -115.467 -103.736 109.336 
-115.785 -103.915 108.928 -116.106 -104.114 108.506 -116.429 -104.338 108.072 
-116.753 -104.594 107.626 -117.076 -104.888 107.17 -117.396 -105.226 106.706 
-117.71 -105.61 106.233 -118.017 -106.042 105.755 -118.314 -106.521 105.271 
-118.597 -107.045 104.784 -118.863 -107.608 104.293 -119.111 -108.205 103.8 
-119.336 -108.828 103.304 -119.536 -109.471 102.807 -119.71 -110.127 102.309 
-119.854 -110.79 101.811 -119.968 -111.455 101.315 -120.052 -112.12 100.822 
-120.106 -112.783 100.334 -120.131 -113.444 99.854 -120.129 -114.102 99.3835 
-120.103 -114.76 98.9245 -120.056 -115.416 98.4787 -119.99 -116.072 98.0476 
-119.91 -116.726 97.6318 -119.819 -117.377 97.2315 -119.72 -118.021 96.8465 
-119.614 -118.654 96.4759 -119.505 -119.272 96.1186 -119.393 -119.872 95.7732 
-119.28 -120.448 95.4384 -119.164 -120.998 95.1128 -119.046 -121.521 94.7953 
-118.926 -122.015 94.4849 -118.803 -122.482 94.1809 -118.676 -122.923 93.8828 
-118.545 -123.343 93.5905 -118.411 -123.743 93.3036 -118.274 -124.129 93.0218 
-118.136 -124.501 92.7447 -117.999 -124.864 92.4718 -117.865 -125.217 92.2023 
-117.735 -125.56 91.9353 -117.613 -125.893 91.6698 -117.5 -126.213 91.4049 
-117.399 -126.519 91.1397 -117.309 -126.807 90.8738 -117.232 -127.078 90.6071 
-117.167 -127.33 90.3399 -117.113 -127.565 90.073 -117.07 -127.785 89.8076 
-117.035 -127.994 89.5451 -117.006 -128.197 89.2874 -116.982 -128.401 89.0361 
-116.96 -128.612 88.793 -116.939 -128.836 88.5594 -116.919 -129.078 88.3365 
-116.899 -129.343 88.1247 -116.879 -129.631 87.9244 -116.859 -129.944 87.7355 
-116.84 -130.278 87.5577 -116.822 -130.63 87.3905 -116.807 -130.993 87.2336 
-116.795 -131.359 87.0869 -116.787 -131.72 86.9506 -116.782 -132.067 86.8253 
-116.78 -132.39 86.712 -116.78 -132.679 86.6119 -116.783 -132.928 86.5266 
-116.786 -133.128 86.4576 -116.788 -133.275 86.4064 -116.79 -133.363 86.3743 
-116.79 -133.391 86.362 
LINES 2 100
OFFSETS vtktypeint64
0 100 
CONNECTIVITY vtktypeint64
0 1 2 3 4 5 6 7 8 
9 10 11 12 13 14 15 16 17 
18 19 20 21 22 23 24 25 26 
27 28 29 30 31 32 33 34 35 
36 37 38 39 40 41 42 43 44 
45 46 47 48 49 50 51 52 53 
54 55 56 57 58 59 60 61 62 
63 64 65 66 67 68 69 70 71 
72 73 74 75 76 77 78 79 80 
81 82 83 84 85 86 87 88 89 
90 91 92 93 94 95 96 97 98 
99 
POINT_DATA 100
FIELD FieldData 3
_theta 1 100 double
0 0.031733259127 0.063466518254 0.095199777382 0.12693303651 0.15866629564 0.19039955476 0.22213281389 0.25386607302 
0.28559933214 0.31733259127 0.3490658504 0.38079910953 0.41253236865 0.44426562778 0.47599888691 0.50773214603 0.53946540516 
0.57119866429 0.60293192342 0.63466518254 0.66639844167 0.6981317008 0.72986495992 0.76159821905 0.79333147818 0.82506473731 
0.85679799643 0.88853125556 0.92026451469 0.95199777382 0.98373103294 1.0154642921 1.0471975512 1.0789308103 1.1106640695 
1.1423973286 1.1741305877 1.2058638468 1.237597106 1.2693303651 1.3010636242 1.3327968833 1.3645301425 1.3962634016 
1.4279966607 1.4597299198 1.491463179 1.5231964381 1.5549296972 1.5866629564 1.6183962155 1.6501294746 1.6818627337 
1.7135959929 1.745329252 1.7770625111 1.8087957702 1.8405290294 1.8722622885 1.9039955476 1.9357288068 1.9674620659 
1.999195325 2.0309285841 2.0626618433 2.0943951024 2.1261283615 2.1578616206 2.1895948798 2.2213281389 2.253061398 
2.2847946572 2.3165279163 2.3482611754 2.3799944345 2.4117276937 2.4434609528 2.4751942119 2.506927471 2.5386607302 
2.5703939893 2.6021272484 2.6338605076 2.6655937667 2.6973270258 2.7290602849 2.7607935441 2.7925268032 2.8242600623 
2.8559933214 2.8877265806 2.9194598397 2.9511930988 2.982926358 3.0146596171 3.0463928762 3.0781261353 3.1098593945 
3.1415926536 
_radius 1 100 double
2.4200213554e-13 0.36855107231 0.73567386034 1.0994382129 1.4575982156 1.8076065402 2.1467516116 2.472371484 2.7820743915 
3.0739055857 3.3464315491 3.5987416272 3.8303807842 4.0412330022 4.2313832367 4.4009941526 4.5502327435 4.6792694567 
4.788354125 4.877951428 4.9488913042 5.0024617601 5.0403664134 5.0645148943 5.0767054977 5.0783377722 5.0702888627 
5.052997061 5.0266912847 4.9916586069 4.9484629286 4.8980768152 4.8419238895 4.7818372494 4.7199389887 4.6584684552 
4.5996287949 4.5455234719 4.4981862537 4.4596421061 4.4319422133 4.4171595924 4.4173544381 4.4345120143 4.4704317298 
4.5265228094 4.6034866293 4.7009705548 4.817395704 4.9501468855 5.0961186112 5.2523809202 5.4166320955 5.5871688328 
5.7623210519 5.9396935259 6.1158196592 6.2864579229 6.4471672453 6.5937600506 6.7225304868 6.8303243769 6.9145337538 
6.9730750469 7.0043906679 7.0074986805 6.9820955714 6.9286897087 6.8487146102 6.7445551672 6.6194291065 6.4771041888 
6.3214899241 6.1561999173 5.9842107727 5.8077241909 5.6282662699 5.4469558779 5.2647912248 5.0827876646 4.9018629404 
4.7224808729 4.5441853671 4.3652398436 4.1825929365 3.9922901239 3.790259797 3.5732144745 3.3393414668 3.0885491628 
2.8222153493 2.5425575111 2.2518645158 1.9518810982 1.6435861991 1.3274212675 1.0037892636 0.67353599255 0.3382034977 
2.688638751e-13 
_area 1 100 double
0 0.34866761325 1.4099849784 3.2203489093 5.8124605861 9.1854836198 13.282412298 17.983289666 23.115557731 
28.476375992 33.859383103 39.079534676 43.991879883 48.50210961 52.568295038 56.194424638 59.417385489 62.290273397 
64.866300634 67.188290362 69.286332975 71.179021334 72.868305227 74.326520339 75.491065661 76.279993283 76.621325412 
76.481399192 75.884158237 74.917448851 73.722706101 72.467583692 71.309856066 70.368252715 69.713175367 69.378842536 
69.371247391 69.637894271 70.071059994 70.586734561 71.167227069 71.853615958 72.72224965 73.858621257 75.33769052 
77.223313381 79.576629048 82.446873595 85.854061893 89.790357339 94.22800314 99.119207951 104.42350695 110.14000323 
116.30276687 122.94841867 130.04156671 137.38133373 144.6230051 151.38739078 157.33043078 162.15383183 165.61713879 
167.55959738 167.90389399 166.65190124 163.88066328 159.73989975 154.45350817 148.31955513 141.66357439 134.78889808 
127.98307975 121.42347692 115.13962444 109.09972072 103.27847809 97.654435395 92.196351016 86.860929571 81.598239785 
76.358543714 71.096789389 65.774377255 60.360370222 54.835441574 49.200184717 43.484501583 37.751819509 32.094799922 
26.624071305 21.453963393 16.689399364 12.417701768 8.707464236 5.6119447754 3.1714401803 1.4134658314 0.35387239314 
0 
