# vtk DataFile Version 5.1
vtk output
ASCII
DATASET POLYDATA
POINTS 100 float
-118.594 -130.065 77.7433 -118.589 -130.029 77.7452 -118.577 -129.931 77.7538 
-118.558 -129.777 77.7692 -118.533 -129.577 77.7916 -118.504 -129.343 77.8213 
-118.473 -129.088 77.8585 -118.442 -128.823 77.9034 -118.412 -128.56 77.956 
-118.385 -128.307 78.0166 -118.362 -128.068 78.085 -118.344 -127.843 78.1614 
-118.331 -127.63 78.2458 -118.324 -127.426 78.3384 -118.323 -127.223 78.4394 
-118.326 -127.015 78.5492 -118.334 -126.796 78.6686 -118.347 -126.563 78.798 
-118.363 -126.313 78.9381 -118.383 -126.049 79.0897 -118.407 -125.773 79.2531 
-118.436 -125.49 79.4284 -118.471 -125.205 79.6155 -118.512 -124.925 79.8137 
-118.56 -124.654 80.0218 -118.617 -124.393 80.2385 -118.682 -124.142 80.4621 
-118.757 -123.898 80.6905 -118.842 -123.656 80.922 -118.935 -123.408 81.1551 
-119.038 -123.145 81.3884 -119.147 -122.86 81.6214 -119.263 -122.545 81.8538 
-119.383 -122.195 82.0863 -119.507 -121.809 82.3197 -119.632 -121.387 82.5557 
-119.758 -120.933 82.7956 -119.884 -120.453 83.0412 -120.009 -119.955 83.2938 
-120.133 -119.446 83.5544 -120.257 -118.934 83.8233 -120.381 -118.422 84.1006 
-120.504 -117.914 84.3855 -120.628 -117.409 84.677 -120.751 -116.903 84.9739 
-120.874 -116.39 85.275 -120.994 -115.863 85.5793 -121.111 -115.314 85.8864 
-121.22 -114.736 86.1963 -121.32 -114.124 86.5098 -121.406 -113.476 86.8285 
-121.474 -112.794 87.1543 -121.522 -112.082 87.4893 -121.544 -111.35 87.8358 
-121.539 -110.608 88.1957 -121.505 -109.869 88.57 -121.44 -109.146 88.9592 
-121.344 -108.45 89.3625 -121.22 -107.79 89.778 -121.068 -107.174 90.2029 
-120.893 -106.604 90.6335 -120.698 -106.078 91.066 -120.488 -105.593 91.4961 
-120.268 -105.143 91.9203 -120.043 -104.718 92.3355 -119.816 -104.311 92.74 
-119.592 -103.915 93.1332 -119.372 -103.521 93.516 -119.16 -103.128 93.8903 
-118.954 -102.734 94.2593 -118.756 -102.338 94.6267 -118.563 -101.945 94.9966 
-118.373 -101.558 95.3727 -118.185 -101.182 95.7582 -117.995 -100.821 96.1556 
-117.801 -100.476 96.5659 -117.6 -100.15 96.9892 -117.391 -99.842 97.4241 
-117.173 -99.5496 97.8685 -116.945 -99.2694 98.3196 -116.708 -98.9976 98.774 
-116.463 -98.7304 99.2285 -116.211 -98.4649 99.6801 -115.956 -98.1999 100.126 
-115.701 -97.9359 100.565 -115.448 -97.6751 100.994 -115.201 -97.4218 101.414 
-114.963 -97.1812 101.823 -114.738 -96.959 102.219 -114.527 -96.7606 102.602 
-114.332 -96.5903 102.97 -114.156 -96.4508 103.319 -114 -96.3426 103.645 
-113.865 -96.2641 103.944 -113.75 -96.2118 104.211 -113.656 -96.1806 104.439 
-113.583 -96.1648 104.623 -113.531 -96.1588 104.76 -113.5 -96.1578 104.844 
-113.489 -96.1588 104.874 
LINES 2 100
OFFSETS vtktypeint64
0 100 
CONNECTIVITY vtktypeint64
0 1 2 3 4 5 6 7 8 
9 10 11 12 13 14 15 16 17 
18 19 20 21 22 23 24 25 26 
27 28 29 30 31 32 33 34 35 
36 37 38 39 40 41 42 43 44 
45 46 47 48 49 50 51 52 53 
54 55 56 57 58 59 60 61 62 
63 64 65 66 67 68 69 70 71 
72 73 74 75 76 77 78 79 80 
81 82 83 84 85 86 87 88 89 
90 91 92 93 94 95 96 97 98 
99 
POINT_DATA 100
FIELD FieldData 3
_theta 1 100 double
0 0.031733259127 0.063466518254 0.095199777382 0.12693303651 0.15866629564 0.19039955476 0.22213281389 0.25386607302 
0.28559933214 0.31733259127 0.3490658504 0.38079910953 0.41253236865 0.44426562778 0.47599888691 0.50773214603 0.53946540516 
0.57119866429 0.60293192342 0.63466518254 0.66639844167 0.6981317008 0.72986495992 0.76159821905 0.79333147818 0.82506473731 
0.85679799643 0.88853125556 0.92026451469 0.95199777382 0.98373103294 1.0154642921 1.0471975512 1.0789308103 1.1106640695 
1.1423973286 1.1741305877 1.2058638468 1.237597106 1.2693303651 1.3010636242 1.3327968833 1.3645301425 1.3962634016 
1.4279966607 1.4597299198 1.491463179 1.5231964381 1.5549296972 1.5866629564 1.6183962155 1.6501294746 1.6818627337 
1.7135959929 1.745329252 1.7770625111 1.8087957702 1.8405290294 1.8722622885 1.9039955476 1.9357288068 1.9674620659 
1.999195325 2.0309285841 2.0626618433 2.0943951024 2.1261283615 2.1578616206 2.1895948798 2.2213281389 2.253061398 
2.2847946572 2.3165279163 2.3482611754 2.3799944345 2.4117276937 2.4434609528 2.4751942119 2.506927471 2.5386607302 
2.5703939893 2.6021272484 2.6338605076 2.6655937667 2.6973270258 2.7290602849 2.7607935441 2.7925268032 2.8242600623 
2.8559933214 2.8877265806 2.9194598397 2.9511930988 2.982926358 3.0146596171 3.0463928762 3.0781261353 3.1098593945 
3.1415926536 
_radius 1 100 double
3.2061149604e-13 0.35116606688 0.69759281528 1.0352076848 1.3606673792 1.6715678485 1.9665365425 2.2452256881 2.5082558956 
2.7571434126 2.9941816613 3.2222004425 3.4441571492 3.6626166416 3.8792761283 4.0947035803 4.308358068 4.5188200079 
4.7240863007 4.9218178377 5.1095133959 5.2846490946 5.4448290844 5.587957783 5.7124091734 5.8171597022 5.9018624006 
5.9668533792 6.0130888147 6.0420141798 6.0553753853 6.0549962398 6.0425617819 6.019452017 5.9866594714 5.9448001609 
5.8942013301 5.8350319234 5.767439771 5.6916715393 5.6081686922 5.517643358 5.4211342984 5.3200272194 5.2160097868 
5.1109400715 5.0066431027 4.9046871102 4.8062000252 4.7117855479 4.6216115151 4.5357260219 4.4545548554 4.3794059324 
4.3127619198 4.2581952206 4.2198349464 4.2014406364 4.2053141627 4.2314392055 4.2771891238 4.3376438752 4.4062708462 
4.4756909992 4.5383869147 4.5873234626 4.6164879797 4.6213498063 4.5992206166 4.5494799432 4.4736228346 4.3750971412 
4.2589305732 4.131195412 3.9984003466 3.8669072006 3.7424343423 3.6296531036 3.5318582933 3.4507241901 3.3861988058 
3.3365646025 3.2986085129 3.2678070442 3.2385066572 3.2041839329 3.157873581 3.092737378 3.0026435483 2.8826351137 
2.7292360012 2.5405934993 2.3164757759 2.0581551894 1.7682187325 1.4503494225 1.1091114535 0.74975263666 0.37802247773 
2.3783371292e-13 
_area 1 100 double
0 0.38429651906 1.5132682382 3.3191887357 5.701637441 8.5431049541 11.725636178 15.145396107 18.724211271 
22.420321265 26.239968146 30.24417281 34.538865715 39.241671521 44.434543206 50.125134107 56.236232739 62.624004326 
69.110605763 75.515034152 81.672981512 87.444562346 92.714077706 97.387339361 101.39057935 104.67259217 107.20972183 
109.01193726 110.12741632 110.64222994 110.67120033 110.33824102 109.75036163 108.97445618 108.02572171 106.87286122 
105.45914818 103.73088306 101.66267145 99.273103842 96.628225334 93.832177951 91.007761725 88.275760387 85.743709529 
83.499477472 81.586249942 79.966344463 78.51995853 77.123354564 75.669175127 74.101716095 72.392677987 70.537106528 
68.557905715 66.529026823 64.577807134 62.866566869 61.559310063 60.778877163 60.578635044 60.944989191 61.798536833 
62.975068665 64.228364422 65.284237352 65.904427879 65.921748483 65.245900215 63.850896514 61.762744332 59.059502751 
55.874272741 52.390255687 48.827156143 45.404136644 42.260084503 39.433787565 36.933518997 34.773418726 32.969313238 
31.518792759 30.376164563 29.442224354 28.581595931 27.645736724 26.48740811 24.985360183 23.076077646 20.767316468 
18.130800663 15.283433821 12.364653549 9.5161578826 6.8685747221 4.5358852233 2.6144160208 1.1824623506 0.29874884316 
1.8189894035e-12 
