# vtk DataFile Version 5.1
vtk output
ASCII
DATASET POLYDATA
POINTS 1002 float
-117.964 -107.781 76.8727 -116.41 -88.5047 88.053 -121.013 -111.166 81.3272 
-115.319 -90.0833 92.9211 -124.034 -95.7419 81.8812 -125.383 -97.3267 85.6124 
-115.205 -97.6124 82.9518 -116.755 -98.4325 85.0571 -115.784 -84.1571 94.3747 
-123.376 -114.269 75.2209 -107.398 -85.9339 95.9096 -112.563 -115.357 77.8973 
-118.303 -106.909 77.548 -118.665 -105.174 78.2426 -118.98 -102.549 78.9762 
-119.179 -99.7052 79.9436 -119.203 -97.2992 81.2867 -118.993 -95.3077 82.8546 
-118.518 -93.4635 84.3839 -117.843 -91.7331 85.7631 -117.105 -90.1057 86.9878 
-118.759 -107.22 77.0439 -119.55 -106.323 77.2895 -120.317 -105.091 77.606 
-121.085 -103.717 78.0271 -121.853 -102.385 78.577 -122.55 -101.072 79.2209 
-123.109 -99.6842 79.8999 -123.528 -98.2701 80.5793 -123.83 -96.938 81.2434 
-117.365 -107.791 77.1728 -116.77 -107.601 77.5308 -116.207 -107.068 77.9062 
-115.727 -106.206 78.2519 -115.486 -105.186 78.625 -115.63 -104.012 79.2194 
-115.987 -102.478 80.1422 -116.128 -100.639 81.2259 -115.823 -98.9029 82.1999 
-118.18 -108.066 76.2992 -118.456 -108.441 75.7439 -118.761 -109.042 75.2641 
-119.171 -109.684 74.8788 -119.864 -110.127 74.5924 -120.846 -110.554 74.423 
-121.842 -111.322 74.3902 -122.584 -112.403 74.509 -123.053 -113.467 74.7908 
-117.248 -108.356 76.4347 -116.498 -109.087 76.1451 -115.721 -110.268 76.0343 
-114.777 -111.672 75.9695 -113.603 -112.722 75.8456 -112.523 -113.253 75.8182 
-111.978 -113.625 76.1146 -112.001 -114.117 76.7003 -112.278 -114.722 77.3472 
-117.164 -89.0526 87.5683 -117.947 -89.6247 86.9967 -118.707 -90.1583 86.3158 
-119.507 -90.7393 85.5426 -120.415 -91.5441 84.7585 -121.329 -92.5519 84.0369 
-122.111 -93.5195 83.3843 -122.784 -94.308 82.7927 -123.427 -95.0042 82.2843 
-116.126 -89.0812 87.8556 -115.91 -89.7802 87.561 -115.751 -90.4603 87.1378 
-115.59 -91.1703 86.5965 -115.414 -92.1551 86.0117 -115.291 -93.4097 85.446 
-115.255 -94.5883 84.8668 -115.252 -95.5382 84.2218 -115.233 -96.476 83.5512 
-116.196 -87.2014 88.7661 -115.977 -85.9293 89.4927 -115.741 -84.831 90.2681 
-115.521 -84.0519 91.1272 -115.365 -83.6701 92.0195 -115.285 -83.6095 92.8162 
-115.278 -83.6882 93.4307 -115.365 -83.7818 93.8699 -115.544 -83.9057 94.1743 
-115.529 -87.1011 88.9743 -114.601 -85.7243 89.9728 -113.612 -84.906 91.0436 
-112.492 -84.8454 92.1475 -111.246 -84.9372 93.2127 -110.006 -84.5516 94.1653 
-108.926 -84.0278 94.9356 -108.102 -84.101 95.4692 -107.591 -84.8773 95.7709 
-121.247 -108.645 81.9505 -121.356 -105.611 82.7046 -121.274 -102.97 83.7393 
-120.958 -101.011 85.0599 -120.371 -98.8864 86.4291 -119.52 -95.9932 87.6435 
-118.499 -93.0849 88.796 -117.425 -91.1692 90.0817 -116.356 -90.3362 91.5088 
-121.62 -110.206 81.5539 -122.234 -109.14 81.8387 -122.835 -107.989 82.1964 
-123.418 -106.791 82.6484 -123.975 -105.541 83.1843 -124.458 -104.141 83.7338 
-124.81 -102.503 84.2248 -125.043 -100.705 84.6668 -125.224 -98.9325 85.1229 
-120.576 -110.738 81.5136 -120.132 -110.162 81.7322 -119.706 -109.421 82.0082 
-119.326 -108.46 82.372 -118.988 -107.09 82.7828 -118.66 -105.18 83.1533 
-118.306 -103.01 83.4975 -117.887 -101.076 83.9237 -117.364 -99.592 84.4678 
-121.122 -112.442 80.8076 -121.282 -113.256 80.2111 -121.513 -113.843 79.5772 
-121.801 -114.484 78.9218 -122.119 -115.073 78.217 -122.436 -115.357 77.4756 
-122.713 -115.417 76.7753 -122.941 -115.378 76.1661 -123.156 -115.059 75.6463 
-120.398 -112.811 80.8048 -119.642 -114.001 80.2464 -118.813 -114.988 79.7434 
-117.953 -116.278 79.3927 -116.994 -117.753 79.1581 -115.893 -118.506 78.9092 
-114.803 -118.037 78.6177 -113.91 -116.917 78.3558 -113.203 -115.941 78.1352 
-116.208 -90.2079 92.2509 -117.225 -90.4548 91.4585 -118.404 -90.9016 90.6063 
-119.712 -91.6947 89.7709 -121.01 -92.8636 88.9895 -122.179 -94.1133 88.2407 
-123.207 -95.0859 87.5017 -124.097 -95.7873 86.7985 -124.823 -96.4824 86.1696 
-115.124 -90.0817 92.6125 -114.998 -90.1222 92.1473 -115.012 -90.3496 91.5311 
-115.188 -90.967 90.7798 -115.438 -92.0567 89.9159 -115.655 -93.4118 88.9909 
-115.847 -94.7211 88.0515 -116.097 -95.9024 87.085 -116.421 -97.0965 86.0704 
-114.813 -89.9791 93.904 -114.348 -89.8007 94.8503 -114.062 -89.579 95.689 
-114.048 -89.2022 96.324 -114.239 -88.3275 96.6431 -114.496 -86.8984 96.5998 
-114.762 -85.4495 96.2537 -115.058 -84.5295 95.7104 -115.4 -84.187 95.0616 
-114.105 -90.0221 94.1515 -112.783 -89.9944 95.3338 -111.468 -89.7606 96.3307 
-110.247 -89.0367 97.0965 -109.069 -87.897 97.6516 -107.886 -86.9278 97.9611 
-106.919 -86.5323 97.9189 -106.523 -86.438 97.4805 -106.77 -86.2407 96.7486 
-124.494 -95.5229 82.0808 -124.945 -95.2438 82.334 -125.346 -94.8368 82.618 
-125.688 -94.3627 82.9683 -125.984 -94.1171 83.4965 -126.201 -94.4138 84.2173 
-126.25 -95.2144 84.9233 -126.089 -96.142 85.3815 -125.768 -96.8662 85.5665 
-123.761 -94.1694 82.7901 -123.317 -92.7048 83.865 -122.702 -91.3135 85.1448 
-121.936 -89.9106 86.6106 -121.017 -88.5557 88.1475 -119.958 -87.3943 89.6297 
-118.838 -86.4093 91.0009 -117.75 -85.5005 92.2462 -116.73 -84.7092 93.3658 
-124.466 -97.461 81.1411 -124.766 -99.6322 80.41 -124.898 -101.925 79.6945 
-124.929 -103.85 78.9089 -124.958 -105.337 77.9225 -124.982 -106.9 76.7963 
-124.878 -108.918 75.8441 -124.545 -111.118 75.3124 -124.007 -112.981 75.1638 
-125.153 -95.4396 86.5051 -124.675 -93.9357 87.5146 -123.825 -92.4953 88.5893 
-122.653 -90.7892 89.7004 -121.347 -89.1642 90.8376 -120.032 -88.1183 91.9113 
-118.764 -87.3372 92.7797 -117.618 -86.2633 93.4167 -116.639 -85.0348 93.9207 
-125.768 -99.558 84.7289 -126.144 -102.309 83.7358 -126.434 -104.79 82.604 
-126.443 -106.472 81.3613 -126.117 -107.944 80.1125 -125.653 -109.996 78.9214 
-125.189 -112.229 77.7586 -124.666 -113.701 76.6621 -124.047 -114.22 75.786 
-114.811 -97.8941 83.0326 -114.611 -98.4331 83.1752 -114.717 -98.985 83.4199 
-115.073 -99.1953 83.7221 -115.479 -98.9835 83.9777 -115.795 -98.6805 84.1499 
-116.043 -98.5902 84.3101 -116.289 -98.6388 84.5283 -116.535 -98.6066 84.7943 
-114.388 -95.9861 83.9702 -113.546 -94.6148 85.1159 -112.925 -93.0549 86.5102 
-112.298 -91.1881 88.1015 -111.362 -89.758 89.5947 -110.366 -89.2431 90.8073 
-109.692 -88.9034 91.9189 -109.174 -87.9903 93.1733 -108.425 -86.7927 94.5638 
-115.439 -99.8394 81.9944 -115.118 -102.527 81.097 -114.133 -105.011 80.4079 
-112.83 -106.92 79.9869 -111.744 -108.885 79.701 -111.128 -111.494 79.3253 
-110.973 -113.978 78.8052 -111.236 -115.25 78.3138 -111.823 -115.417 78.015 
-115.834 -96.6056 86.3051 -114.87 -94.8208 87.5778 -113.957 -92.9243 88.8658 
-112.897 -91.2988 90.271 -111.531 -90.5831 91.6866 -110.17 -90.624 92.8047 
-109.225 -90.4004 93.5889 -108.624 -89.2679 94.3178 -108.041 -87.5557 95.1332 
-117.36 -101.038 83.7072 -117.481 -104.819 82.5957 -116.78 -109.205 82.0696 
-115.404 -112.842 82.0438 -113.978 -114.916 81.9392 -113.016 -115.891 81.3176 
-112.557 -116.411 80.3188 -112.404 -116.469 79.3166 -112.418 -116.005 78.5069 
-114.622 -83.7992 95.3116 -113.222 -83.9252 96.3634 -111.555 -84.0246 97.4062 
-109.655 -83.7119 98.2666 -107.659 -83.5408 98.8114 -105.933 -84.0295 98.9774 
-105.033 -84.5924 98.7353 -105.246 -84.7435 98.0832 -106.245 -85.0101 97.0897 
-122.459 -114.936 75.0838 -121.358 -115.847 74.9845 -120.133 -116.931 74.8087 
-118.877 -117.86 74.6305 -117.684 -118.389 74.7847 -116.566 -118.269 75.4764 
-115.442 -117.325 76.4138 -114.305 -116.053 77.142 -113.301 -115.312 77.5639 
-119.062 -105.929 77.7727 -119.795 -104.546 78.0459 -119.345 -103.659 78.5019 
-120.528 -102.954 78.3976 -120.023 -101.934 78.8354 -119.571 -100.804 79.3397 
-121.277 -101.435 78.8869 -120.728 -100.32 79.3038 -120.19 -99.2151 79.8472 
-119.674 -98.2222 80.5113 -121.972 -100.077 79.5215 -121.396 -98.9606 79.9317 
-120.794 -97.8961 80.5022 -120.169 -96.9897 81.2198 -119.566 -96.1474 82.0211 
-122.524 -98.7601 80.2381 -121.924 -97.7447 80.6683 -121.276 -96.7214 81.2384 
-120.568 -95.8138 81.9692 -119.866 -94.9963 82.7907 -119.195 -94.1971 83.6103 
-122.928 -97.4258 80.9606 -122.304 -96.5468 81.4289 -121.622 -95.5839 81.9911 
-120.847 -94.612 82.6842 -120.056 -93.7363 83.4935 -119.322 -92.9673 84.3221 
-118.598 -92.2962 85.0857 -123.224 -96.1482 81.6454 -122.586 -95.3794 82.1451 
-121.898 -94.5028 82.7179 -121.091 -93.4982 83.3728 -120.212 -92.5363 84.1336 
-119.398 -91.7636 84.9548 -118.651 -91.1473 85.7332 -117.884 -90.604 86.4098 
-119.049 -107.519 76.4598 -119.399 -107.754 75.8956 -119.934 -106.66 76.7321 
-119.834 -108.037 75.4309 -120.405 -106.822 76.1934 -120.802 -105.545 77.1245 
-120.482 -108.328 75.0836 -121.01 -107.005 75.7416 -121.392 -105.865 76.6623 
-121.657 -104.379 77.6623 -121.414 -108.67 74.8133 -121.819 -107.339 75.3768 
-122.092 -106.284 76.2578 -122.309 -105 77.3216 -122.479 -103.202 78.3209 
-122.427 -109.33 74.6122 -122.757 -107.885 75.075 -122.88 -106.833 75.9229 
-122.987 -105.654 77.0325 -123.131 -103.979 78.1022 -123.198 -101.866 79.0265 
-123.22 -110.445 74.5578 -123.595 -108.728 74.8961 -123.674 -107.401 75.6911 
-123.664 -106.181 76.8307 -123.74 -104.647 77.961 -123.827 -102.633 78.8984 
-123.764 -100.373 79.736 -123.71 -111.784 74.74 -124.183 -109.874 74.9599 
-124.363 -108.053 75.6435 -124.343 -106.513 76.7441 -124.331 -105.068 77.9129 
-124.385 -103.313 78.8732 -124.372 -101.134 79.6681 -124.181 -98.8752 80.4448 
-124.652 -112.696 75.8785 -125.259 -111.656 76.9238 -125.17 -110.354 76.2281 
-125.835 -109.801 78.1325 -125.815 -108.936 77.418 -125.51 -107.776 76.9605 
-126.398 -107.857 79.3788 -126.475 -107.369 78.6766 -126.2 -106.526 78.1984 
-125.623 -105.762 77.9858 -126.824 -106.378 80.6914 -127.018 -106.085 79.9668 
-126.833 -105.515 79.4066 -126.27 -104.818 79.1267 -125.561 -104.249 79.0091 
-126.885 -104.73 82.0676 -127.199 -104.467 81.3653 -127.166 -104.035 80.673 
-126.723 -103.494 80.2203 -126.064 -102.928 80.0071 -125.43 -102.399 79.8584 
-126.59 -102.19 83.387 -126.955 -101.788 82.8215 -127.062 -101.239 82.088 
-126.81 -100.781 81.4327 -126.308 -100.489 81.0334 -125.759 -100.24 80.8058 
[...]
POINT_DATA 1002
FIELD FieldData 4
_paraPhi 1 1002 double
6.2831853072 3.1415926536 6.2831853072 3.1415926536 4.7123889804 4.7123889804 1.5707963268 1.5707963268 3.6951670125 
5.7296109483 2.5880182947 0.5535743589 6.2831853072 6.2831853072 6.2831853072 6.2831853072 3.1415926536 3.1415926536 
3.1415926536 3.1415926536 3.1415926536 6.1053039672 5.898798347 5.6768734901 5.4599499503 5.2659633393 5.1032165617 
4.9713148346 4.8656852733 4.7809517865 0.17788134 0.38438696014 0.60631181711 0.82323535693 1.0172219679 1.1799687454 
1.3118704726 1.4175000338 1.5022335207 6.1892828907 6.1070320098 6.035312792 5.9728339911 5.9183214791 5.8706119594 
5.8286879411 5.7916808611 5.7588591896 0.093902416448 0.17615329733 0.2478725152 0.31035131605 0.36486382811 0.41257334776 
0.45449736604 0.4915044461 0.52432611754 3.3194739936 3.5259796137 3.7479044707 3.9648280105 4.1588146215 4.321561399 
4.4534631262 4.5590926874 4.6438261743 2.9637113136 2.7572056934 2.5352808365 2.3183572967 2.1243706857 1.9616239082 
1.829722181 1.7240926197 1.6393591329 3.23549507 3.3177459509 3.3894651688 3.4519439696 3.5064564817 3.5541660013 
3.5960900196 3.6330970997 3.6659187711 3.0476902371 2.9654393563 2.8937201384 2.8312413375 2.7767288255 2.7290193058 
2.6870952876 2.6500882075 2.617266536 6.2831853072 6.2831853072 6.2831853072 6.2831853072 3.1415926536 3.1415926536 
3.1415926536 3.1415926536 3.1415926536 6.1053039672 5.898798347 5.6768734901 5.4599499503 5.2659633393 5.1032165617 
4.9713148346 4.8656852733 4.7809517865 0.17788134 0.38438696014 0.60631181711 0.82323535693 1.0172219679 1.1799687454 
1.3118704726 1.4175000338 1.5022335207 6.1892828907 6.1070320098 6.035312792 5.9728339911 5.9183214791 5.8706119594 
5.8286879411 5.7916808611 5.7588591896 0.093902416448 0.17615329733 0.2478725152 0.31035131605 0.36486382811 0.41257334776 
0.45449736604 0.4915044461 0.52432611754 3.3194739936 3.5259796137 3.7479044707 3.9648280105 4.1588146215 4.321561399 
4.4534631262 4.5590926874 4.6438261743 2.9637113136 2.7572056934 2.5352808365 2.3183572967 2.1243706857 1.9616239082 
1.829722181 1.7240926197 1.6393591329 3.23549507 3.3177459509 3.3894651688 3.4519439696 3.5064564817 3.5541660013 
3.5960900196 3.6330970997 3.6659187711 3.0476902371 2.9654393563 2.8937201384 2.8312413375 2.7767288255 2.7290193058 
2.6870952876 2.6500882075 2.617266536 4.7123889804 4.7123889804 4.7123889804 4.7123889804 4.7123889804 4.7123889804 
4.7123889804 4.7123889804 4.7123889804 4.6087898617 4.4991390697 4.3857031936 4.2712800401 4.1588146215 4.0509635631 
3.94975894 3.8564636551 3.7716124825 4.8159880991 4.9256388911 5.0390747672 5.1534979207 5.2659633393 5.3738143976 
5.4750190208 5.5683143056 5.6531654782 4.6087898617 4.4991390697 4.3857031936 4.2712800401 4.1588146215 4.0509635631 
3.94975894 3.8564636551 3.7716124825 4.8159880991 4.9256388911 5.0390747672 5.1534979207 5.2659633393 5.3738143976 
5.4750190208 5.5683143056 5.6531654782 1.5707963268 1.5707963268 1.5707963268 1.5707963268 1.5707963268 1.5707963268 
1.5707963268 1.5707963268 1.5707963268 1.6743954455 1.7840462375 1.8974821136 2.0119052671 2.1243706857 2.232221744 
2.3334263672 2.426721652 2.5115728246 1.4671972081 1.3575464161 1.24411054 1.1296873865 1.0172219679 0.90937090954 
0.80816628637 0.71487100155 0.63001982895 1.6743954455 1.7840462375 1.8974821136 2.0119052671 2.1243706857 2.232221744 
2.3334263672 2.426721652 2.5115728246 1.4671972081 1.3575464161 1.24411054 1.1296873865 1.0172219679 0.90937090954 
0.80816628637 0.71487100155 0.63001982895 3.6007720849 3.4966939854 3.3839471039 3.2645756454 3.1415926536 3.0186096618 
2.8992382033 2.7864913217 2.6824132222 5.8240058758 5.9280839753 6.0408308569 6.1602023154 6.2831853072 0.12298299178 
0.2423544503 0.35510133185 0.45917943135 6.0560271438 5.7885595667 5.9702140275 5.5125918794 5.6029703303 5.7885595667 
5.2659633393 5.2659633393 5.2659633393 5.2659633393 5.0674903122 5.0120975802 4.9155579264 4.7123889804 4.1588146215 
4.9155579264 4.8353719722 4.7123889804 4.5092200343 4.1588146215 3.6362183941 4.8004512023 4.7123889804 4.5894059886 
4.4126803806 4.1588146215 3.8218076305 3.4545639333 4.7123889804 4.6243267584 4.5092200343 4.3572876485 4.1588146215 
3.9121860814 3.6362183941 3.368750817 6.0174235957 5.9434319871 5.8263323547 5.8809213739 5.7674481418 5.6279784266 
5.8278025282 5.718968232 5.5891129425 5.4372443565 5.7823484065 5.678536687 5.5575666702 5.4192596322 5.2659633393 
5.743164462 5.6444075337 5.5314983644 5.4046708639 5.2659633393 5.1195510325 5.7091357773 5.6152775188 5.5096229709 
5.3926039573 5.2659633393 5.1329233157 4.9978930058 5.6793730533 5.5901633916 5.4910209005 5.3824597928 5.2659633393 
5.1440684722 5.0201624502 4.8979782167 5.5683143056 5.4750190208 5.4750190208 5.3738143976 5.3738143976 5.3738143976 
5.2659633393 5.2659633393 5.2659633393 5.2659633393 5.1534979207 5.1534979207 5.1534979207 5.1534979207 5.1534979207 
5.0390747672 5.0390747672 5.0390747672 5.0390747672 5.0390747672 5.0390747672 4.9256388911 4.9256388911 4.9256388911 
4.9256388911 4.9256388911 4.9256388911 4.9256388911 4.8159880991 4.8159880991 4.8159880991 4.8159880991 4.8159880991 
4.8159880991 4.8159880991 4.8159880991 4.6087898617 4.6087898617 4.4991390697 4.6087898617 4.4991390697 4.3857031936 
4.6087898617 4.4991390697 4.3857031936 4.2712800401 4.6087898617 4.4991390697 4.3857031936 4.2712800401 4.1588146215 
4.6087898617 4.4991390697 4.3857031936 4.2712800401 4.1588146215 4.0509635631 4.6087898617 4.4991390697 4.3857031936 
4.2712800401 4.1588146215 4.0509635631 3.94975894 4.6087898617 4.4991390697 4.3857031936 4.2712800401 4.1588146215 
4.0509635631 3.94975894 3.8564636551 4.526799744 4.4046155105 4.426884955 4.2807094886 4.2918546451 4.3052269283 
4.1588146215 4.1588146215 4.1588146215 4.1588146215 4.042318168 4.0321740035 4.0201070968 4.0055183285 3.9875336042 
3.9337570603 3.9151549899 3.8932795963 3.8672112905 3.8356650183 3.7967995342 3.8346145692 3.809500442 3.7803704271 
3.7462412737 3.7058097288 3.657329819 3.5984456061 3.7454049075 3.7156421835 3.6816134988 3.6424295543 3.5969754326 
3.5438565869 3.4813459737 3.4073543651 3.5642842451 3.4524645613 3.5233842518 3.3320300872 3.403123212 3.4773852225 
3.20576226 3.2746326772 3.348015857 3.4255060145 3.0774230472 3.1415926536 3.2112816139 3.2864685043 3.3668817272 
2.95115522 3.00855263 3.0719036933 3.1415926536 3.2178377658 3.3005964304 2.8307207459 2.8800620952 2.9351694502 
2.9967168029 3.0653475414 3.1415926536 3.225752376 2.718901062 2.7598010554 2.8058000847 2.8576792927 2.91630358 
2.9825888767 3.0574329311 3.1415926536 3.5642842451 3.5233842518 3.4524645613 3.4773852225 3.403123212 3.3320300872 
3.4255060145 3.348015857 3.2746326772 3.20576226 3.3668817272 3.2864685043 3.2112816139 3.1415926536 3.0774230472 
3.3005964304 3.2178377658 3.1415926536 3.0719036933 3.00855263 2.95115522 3.225752376 3.1415926536 3.0653475414 
2.9967168029 2.9351694502 2.8800620952 2.8307207459 3.1415926536 3.0574329311 2.9825888767 2.91630358 2.8576792927 
2.8058000847 2.7598010554 2.718901062 4.526799744 4.426884955 4.4046155105 4.3052269283 4.2918546451 4.2807094886 
4.1588146215 4.1588146215 4.1588146215 4.1588146215 3.9875336042 4.0055183285 4.0201070968 4.0321740035 4.042318168 
3.7967995342 3.8356650183 3.8672112905 3.8932795963 3.9151549899 3.9337570603 3.5984456061 3.657329819 3.7058097288 
3.7462412737 3.7803704271 3.809500442 3.8346145692 3.4073543651 3.4813459737 3.5438565869 3.5969754326 3.6424295543 
3.6816134988 3.7156421835 3.7454049075 4.7123889804 4.8004512023 4.6243267584 4.9155579264 4.7123889804 4.5092200343 
5.0674903122 4.8353719722 4.5894059886 4.3572876485 5.2659633393 5.0120975802 4.7123889804 4.4126803806 4.1588146215 
5.5125918794 5.2659633393 4.9155579264 4.5092200343 4.1588146215 3.9121860814 5.7885595667 5.6029703303 5.2659633393 
4.7123889804 4.1588146215 3.8218076305 3.6362183941 6.0560271438 5.9702140275 5.7885595667 5.2659633393 4.1588146215 
3.6362183941 3.4545639333 3.368750817 0.22715816343 0.49462574053 0.3129712797 0.77059342779 0.68021497688 0.49462574053 
1.0172219679 1.0172219679 1.0172219679 1.0172219679 1.2156949949 1.271087727 1.3676273807 1.5707963268 2.1243706857 
1.3676273807 1.447813335 1.5707963268 1.7739652728 2.1243706857 2.6469669131 1.4827341049 1.5707963268 1.6937793186 
1.8705049266 2.1243706857 2.4613776767 2.8286213739 1.5707963268 1.6588585487 1.7739652728 1.9258976586 2.1243706857 
2.3709992258 2.6469669131 2.9144344902 1.7563855631 1.8785697967 1.8563003522 2.0024758186 1.9913306621 1.9779583789 
2.1243706857 2.1243706857 2.1243706857 2.1243706857 2.2408671392 2.2510113037 2.2630782103 2.2776669786 2.295651703 
2.3494282469 2.3680303173 2.3899057108 2.4159740166 2.4475202889 2.486385773 2.448570738 2.4736848652 2.5028148801 
2.5369440334 2.5773755784 2.6258554882 2.6847397011 2.5377803997 2.5675431237 2.6015718084 2.6407557529 2.6862098746 
2.7393287203 2.8018393335 2.8758309421 1.6743954455 1.6743954455 1.7840462375 1.6743954455 1.7840462375 1.8974821136 
1.6743954455 1.7840462375 1.8974821136 2.0119052671 1.6743954455 1.7840462375 1.8974821136 2.0119052671 2.1243706857 
1.6743954455 1.7840462375 1.8974821136 2.0119052671 2.1243706857 2.232221744 1.6743954455 1.7840462375 1.8974821136 
2.0119052671 2.1243706857 2.232221744 2.3334263672 1.6743954455 1.7840462375 1.8974821136 2.0119052671 2.1243706857 
2.232221744 2.3334263672 2.426721652 1.4671972081 1.3575464161 1.4671972081 1.24411054 1.3575464161 1.4671972081 
1.1296873865 1.24411054 1.3575464161 1.4671972081 1.0172219679 1.1296873865 1.24411054 1.3575464161 1.4671972081 
0.90937090954 1.0172219679 1.1296873865 1.24411054 1.3575464161 1.4671972081 0.80816628637 0.90937090954 1.0172219679 
1.1296873865 1.24411054 1.3575464161 1.4671972081 0.71487100155 0.80816628637 0.90937090954 1.0172219679 1.1296873865 
1.24411054 1.3575464161 1.4671972081 0.60381225391 0.57404952988 0.69302191562 0.54002084522 0.66790778838 0.79216440667 
0.50083690068 0.63877777351 0.77356233629 0.90072551443 0.45538277901 0.60464862014 0.75168694275 0.89058134991 1.0172219679 
0.40226393329 0.56421707518 0.72561863695 0.87851444325 1.0172219679 1.139116835 0.33975332011 0.51573716537 0.69407236469 
0.86392567495 1.0172219679 1.1502619915 1.2630228569 0.26576171152 0.45685295248 0.6552068806 0.84594095064 1.0172219679 
1.1636342747 1.2852923014 1.3852070904 0.22715816343 0.3129712797 0.49462574053 0.49462574053 0.68021497688 0.77059342779 
1.0172219679 1.0172219679 1.0172219679 1.0172219679 2.1243706857 1.5707963268 1.3676273807 1.271087727 1.2156949949 
2.6469669131 2.1243706857 1.7739652728 1.5707963268 1.447813335 1.3676273807 2.8286213739 2.4613776767 2.1243706857 
1.8705049266 1.6937793186 1.5707963268 1.4827341049 2.9144344902 2.6469669131 2.3709992258 2.1243706857 1.9258976586 
1.7739652728 1.6588585487 1.5707963268 1.7563855631 1.8563003522 1.8785697967 1.9779583789 1.9913306621 2.0024758186 
2.1243706857 2.1243706857 2.1243706857 2.1243706857 2.295651703 2.2776669786 2.2630782103 2.2510113037 2.2408671392 
2.486385773 2.4475202889 2.4159740166 2.3899057108 2.3680303173 2.3494282469 2.6847397011 2.6258554882 2.5773755784 
2.5369440334 2.5028148801 2.4736848652 2.448570738 2.8758309421 2.8018393335 2.7393287203 2.6862098746 2.6407557529 
2.6015718084 2.5675431237 2.5377803997 5.8604937156 5.901393709 5.9723133995 5.9473927383 6.0216547488 6.0927478736 
5.9992719463 6.0767621038 6.1501452836 6.2190157008 6.0578962336 6.1383094565 6.2134963469 0 0.064169606361 
6.1241815303 6.206940195 6.2831853072 0.069688960264 0.13304002361 0.19043743361 6.1990255847 0 0.07624511221 
0.14487585072 0.20642320337 0.26153055843 0.3108719077 0 0.084159722458 0.15900377685 0.22528907359 0.28391336087 
0.3357925689 0.38179159818 0.42269159155 5.8604937156 5.9723133995 5.901393709 6.0927478736 6.0216547488 5.9473927383 
6.2190157008 6.1501452836 6.0767621038 5.9992719463 0.064169606361 0 6.2134963469 6.1383094565 6.0578962336 
0.19043743361 0.13304002361 0.069688960264 6.2831853072 6.206940195 6.1241815303 0.3108719077 0.26153055843 0.20642320337 
0.14487585072 0.07624511221 6.2831853072 6.1990255847 0.42269159155 0.38179159818 0.3357925689 0.28391336087 0.22528907359 
0.15900377685 0.084159722458 0 5.6793730533 5.7091357773 5.5901633916 5.743164462 5.6152775188 5.4910209005 
5.7823484065 5.6444075337 5.5096229709 5.3824597928 5.8278025282 5.678536687 5.5314983644 5.3926039573 5.2659633393 
5.8809213739 5.718968232 5.5575666702 5.4046708639 5.2659633393 5.1440684722 5.9434319871 5.7674481418 5.5891129425 
5.4192596322 5.2659633393 5.1329233157 5.0201624502 6.0174235957 5.8263323547 5.6279784266 5.4372443565 5.2659633393 
5.1195510325 4.9978930058 4.8979782167 1.3852070904 1.2852923014 1.2630228569 1.1636342747 1.1502619915 1.139116835 
1.0172219679 1.0172219679 1.0172219679 1.0172219679 0.84594095064 0.86392567495 0.87851444325 0.89058134991 0.90072551443 
0.6552068806 0.69407236469 0.72561863695 0.75168694275 0.77356233629 0.79216440667 0.45685295248 0.51573716537 0.56421707518 
0.60464862014 0.63877777351 0.66790778838 0.69302191562 0.26576171152 0.33975332011 0.40226393329 0.45538277901 0.50083690068 
0.54002084522 0.57404952988 0.60381225391 
_paraPhiHalf 1 1002 double
0 3.1415926536 0 3.1415926536 1.5707963268 1.5707963268 1.5707963268 1.5707963268 2.5880182947 
0.5535743589 2.5880182947 0.5535743589 0 0 0 0 3.1415926536 3.1415926536 
3.1415926536 3.1415926536 3.1415926536 0.17788134 0.38438696014 0.60631181711 0.82323535693 1.0172219679 1.1799687454 
1.3118704726 1.4175000338 1.5022335207 0.17788134 0.38438696014 0.60631181711 0.82323535693 1.0172219679 1.1799687454 
1.3118704726 1.4175000338 1.5022335207 0.093902416448 0.17615329733 0.2478725152 0.31035131605 0.36486382811 0.41257334776 
0.45449736604 0.4915044461 0.52432611754 0.093902416448 0.17615329733 0.2478725152 0.31035131605 0.36486382811 0.41257334776 
0.45449736604 0.4915044461 0.52432611754 2.9637113136 2.7572056934 2.5352808365 2.3183572967 2.1243706857 1.9616239082 
1.829722181 1.7240926197 1.6393591329 2.9637113136 2.7572056934 2.5352808365 2.3183572967 2.1243706857 1.9616239082 
1.829722181 1.7240926197 1.6393591329 3.0476902371 2.9654393563 2.8937201384 2.8312413375 2.7767288255 2.7290193058 
2.6870952876 2.6500882075 2.617266536 3.0476902371 2.9654393563 2.8937201384 2.8312413375 2.7767288255 2.7290193058 
2.6870952876 2.6500882075 2.617266536 0 0 0 0 3.1415926536 3.1415926536 
3.1415926536 3.1415926536 3.1415926536 0.17788134 0.38438696014 0.60631181711 0.82323535693 1.0172219679 1.1799687454 
1.3118704726 1.4175000338 1.5022335207 0.17788134 0.38438696014 0.60631181711 0.82323535693 1.0172219679 1.1799687454 
1.3118704726 1.4175000338 1.5022335207 0.093902416448 0.17615329733 0.2478725152 0.31035131605 0.36486382811 0.41257334776 
0.45449736604 0.4915044461 0.52432611754 0.093902416448 0.17615329733 0.2478725152 0.31035131605 0.36486382811 0.41257334776 
0.45449736604 0.4915044461 0.52432611754 2.9637113136 2.7572056934 2.5352808365 2.3183572967 2.1243706857 1.9616239082 
1.829722181 1.7240926197 1.6393591329 2.9637113136 2.7572056934 2.5352808365 2.3183572967 2.1243706857 1.9616239082 
1.829722181 1.7240926197 1.6393591329 3.0476902371 2.9654393563 2.8937201384 2.8312413375 2.7767288255 2.7290193058 
2.6870952876 2.6500882075 2.617266536 3.0476902371 2.9654393563 2.8937201384 2.8312413375 2.7767288255 2.7290193058 
2.6870952876 2.6500882075 2.617266536 1.5707963268 1.5707963268 1.5707963268 1.5707963268 1.5707963268 1.5707963268 
1.5707963268 1.5707963268 1.5707963268 1.6743954455 1.7840462375 1.8974821136 2.0119052671 2.1243706857 2.232221744 
2.3334263672 2.426721652 2.5115728246 1.4671972081 1.3575464161 1.24411054 1.1296873865 1.0172219679 0.90937090954 
0.80816628637 0.71487100155 0.63001982895 1.6743954455 1.7840462375 1.8974821136 2.0119052671 2.1243706857 2.232221744 
2.3334263672 2.426721652 2.5115728246 1.4671972081 1.3575464161 1.24411054 1.1296873865 1.0172219679 0.90937090954 
0.80816628637 0.71487100155 0.63001982895 1.5707963268 1.5707963268 1.5707963268 1.5707963268 1.5707963268 1.5707963268 
1.5707963268 1.5707963268 1.5707963268 1.6743954455 1.7840462375 1.8974821136 2.0119052671 2.1243706857 2.232221744 
2.3334263672 2.426721652 2.5115728246 1.4671972081 1.3575464161 1.24411054 1.1296873865 1.0172219679 0.90937090954 
0.80816628637 0.71487100155 0.63001982895 1.6743954455 1.7840462375 1.8974821136 2.0119052671 2.1243706857 2.232221744 
2.3334263672 2.426721652 2.5115728246 1.4671972081 1.3575464161 1.24411054 1.1296873865 1.0172219679 0.90937090954 
0.80816628637 0.71487100155 0.63001982895 2.6824132222 2.7864913217 2.8992382033 3.0186096618 3.1415926536 3.0186096618 
2.8992382033 2.7864913217 2.6824132222 0.45917943135 0.35510133185 0.2423544503 0.12298299178 0 0.12298299178 
0.2423544503 0.35510133185 0.45917943135 0.22715816343 0.49462574053 0.3129712797 0.77059342779 0.68021497688 0.49462574053 
1.0172219679 1.0172219679 1.0172219679 1.0172219679 1.2156949949 1.271087727 1.3676273807 1.5707963268 2.1243706857 
1.3676273807 1.447813335 1.5707963268 1.7739652728 2.1243706857 2.6469669131 1.4827341049 1.5707963268 1.6937793186 
1.8705049266 2.1243706857 2.4613776767 2.8286213739 1.5707963268 1.6588585487 1.7739652728 1.9258976586 2.1243706857 
2.3709992258 2.6469669131 2.9144344902 0.26576171152 0.33975332011 0.45685295248 0.40226393329 0.51573716537 0.6552068806 
0.45538277901 0.56421707518 0.69407236469 0.84594095064 0.50083690068 0.60464862014 0.72561863695 0.86392567495 1.0172219679 
0.54002084522 0.63877777351 0.75168694275 0.87851444325 1.0172219679 1.1636342747 0.57404952988 0.66790778838 0.77356233629 
0.89058134991 1.0172219679 1.1502619915 1.2852923014 0.60381225391 0.69302191562 0.79216440667 0.90072551443 1.0172219679 
1.139116835 1.2630228569 1.3852070904 0.71487100155 0.80816628637 0.80816628637 0.90937090954 0.90937090954 0.90937090954 
1.0172219679 1.0172219679 1.0172219679 1.0172219679 1.1296873865 1.1296873865 1.1296873865 1.1296873865 1.1296873865 
1.24411054 1.24411054 1.24411054 1.24411054 1.24411054 1.24411054 1.3575464161 1.3575464161 1.3575464161 
1.3575464161 1.3575464161 1.3575464161 1.3575464161 1.4671972081 1.4671972081 1.4671972081 1.4671972081 1.4671972081 
1.4671972081 1.4671972081 1.4671972081 1.6743954455 1.6743954455 1.7840462375 1.6743954455 1.7840462375 1.8974821136 
1.6743954455 1.7840462375 1.8974821136 2.0119052671 1.6743954455 1.7840462375 1.8974821136 2.0119052671 2.1243706857 
1.6743954455 1.7840462375 1.8974821136 2.0119052671 2.1243706857 2.232221744 1.6743954455 1.7840462375 1.8974821136 
2.0119052671 2.1243706857 2.232221744 2.3334263672 1.6743954455 1.7840462375 1.8974821136 2.0119052671 2.1243706857 
2.232221744 2.3334263672 2.426721652 1.7563855631 1.8785697967 1.8563003522 2.0024758186 1.9913306621 1.9779583789 
2.1243706857 2.1243706857 2.1243706857 2.1243706857 2.2408671392 2.2510113037 2.2630782103 2.2776669786 2.295651703 
2.3494282469 2.3680303173 2.3899057108 2.4159740166 2.4475202889 2.486385773 2.448570738 2.4736848652 2.5028148801 
2.5369440334 2.5773755784 2.6258554882 2.6847397011 2.5377803997 2.5675431237 2.6015718084 2.6407557529 2.6862098746 
2.7393287203 2.8018393335 2.8758309421 2.718901062 2.8307207459 2.7598010554 2.95115522 2.8800620952 2.8058000847 
3.0774230472 3.00855263 2.9351694502 2.8576792927 3.0774230472 3.1415926536 3.0719036933 2.9967168029 2.91630358 
2.95115522 3.00855263 3.0719036933 3.1415926536 3.0653475414 2.9825888767 2.8307207459 2.8800620952 2.9351694502 
2.9967168029 3.0653475414 3.1415926536 3.0574329311 2.718901062 2.7598010554 2.8058000847 2.8576792927 2.91630358 
2.9825888767 3.0574329311 3.1415926536 2.718901062 2.7598010554 2.8307207459 2.8058000847 2.8800620952 2.95115522 
2.8576792927 2.9351694502 3.00855263 3.0774230472 2.91630358 2.9967168029 3.0719036933 3.1415926536 3.0774230472 
2.9825888767 3.0653475414 3.1415926536 3.0719036933 3.00855263 2.95115522 3.0574329311 3.1415926536 3.0653475414 