# vtk DataFile Version 5.1
vtk output
ASCII
DATASET POLYDATA
POINTS 100 float
-111.449 -87.6309 105.515 -111.449 -87.6336 105.518 -111.453 -87.6347 105.523 
-111.462 -87.636 105.527 -111.479 -87.6403 105.528 -111.51 -87.651 105.518 
-111.559 -87.6717 105.493 -111.63 -87.7051 105.447 -111.726 -87.7533 105.376 
-111.849 -87.8169 105.277 -112 -87.8953 105.147 -112.178 -87.9864 104.987 
-112.38 -88.0875 104.798 -112.602 -88.1951 104.584 -112.841 -88.306 104.346 
-113.092 -88.4176 104.09 -113.351 -88.5285 103.819 -113.614 -88.6388 103.537 
-113.879 -88.7502 103.244 -114.144 -88.8658 102.943 -114.41 -88.9899 102.632 
-114.677 -89.1274 102.311 -114.945 -89.2831 101.977 -115.216 -89.461 101.629 
-115.492 -89.664 101.263 -115.771 -89.8933 100.879 -116.056 -90.1481 100.475 
-116.345 -90.426 100.053 -116.637 -90.7233 99.6133 -116.932 -91.0354 99.1601 
-117.227 -91.3579 98.6966 -117.522 -91.6871 98.2271 -117.816 -92.0208 97.7556 
-118.109 -92.3591 97.2859 -118.402 -92.7042 96.8206 -118.695 -93.0611 96.361 
-118.989 -93.4363 95.9072 -119.285 -93.8382 95.4577 -119.583 -94.2751 95.0098 
-119.88 -94.755 94.56 -120.175 -95.2844 94.1043 -120.464 -95.8671 93.6387 
-120.739 -96.5035 93.16 -120.996 -97.1907 92.6661 -121.225 -97.9223 92.156 
-121.42 -98.6886 91.6305 -121.575 -99.4775 91.0919 -121.683 -100.276 90.5439 
-121.741 -101.07 89.9913 -121.749 -101.848 89.4393 -121.709 -102.598 88.8937 
-121.626 -103.314 88.3594 -121.505 -103.992 87.8409 -121.356 -104.63 87.3415 
-121.187 -105.231 86.8631 -121.006 -105.801 86.4061 -120.823 -106.346 85.9699 
-120.642 -106.875 85.5524 -120.467 -107.394 85.1511 -120.3 -107.911 84.7628 
-120.138 -108.43 84.3846 -119.98 -108.954 84.0135 -119.819 -109.483 83.6474 
-119.652 -110.014 83.2848 -119.472 -110.545 82.925 -119.277 -111.07 82.5681 
-119.064 -111.583 82.215 -118.833 -112.081 81.8668 -118.588 -112.558 81.5251 
-118.331 -113.012 81.1913 -118.071 -113.441 80.8669 -117.814 -113.846 80.5526 
-117.568 -114.229 80.249 -117.339 -114.592 79.956 -117.133 -114.939 79.6733 
-116.954 -115.272 79.3999 -116.803 -115.596 79.1347 -116.68 -115.913 78.8766 
-116.581 -116.224 78.6242 -116.503 -116.529 78.3767 -116.441 -116.828 78.1332 
-116.39 -117.121 77.8932 -116.345 -117.405 77.6566 -116.304 -117.68 77.4237 
-116.264 -117.943 77.1949 -116.226 -118.193 76.9712 -116.191 -118.43 76.7535 
-116.161 -118.653 76.543 -116.139 -118.863 76.3411 -116.127 -119.06 76.1494 
-116.127 -119.243 75.9691 -116.14 -119.412 75.8021 -116.166 -119.568 75.6497 
-116.202 -119.708 75.5135 -116.244 -119.831 75.3949 -116.289 -119.936 75.2955 
-116.33 -120.019 75.2163 -116.363 -120.08 75.1584 -116.385 -120.117 75.1225 
-116.392 -120.128 75.1093 
LINES 2 100
OFFSETS vtktypeint64
0 100 
CONNECTIVITY vtktypeint64
0 1 2 3 4 5 6 7 8 
9 10 11 12 13 14 15 16 17 
18 19 20 21 22 23 24 25 26 
27 28 29 30 31 32 33 34 35 
36 37 38 39 40 41 42 43 44 
45 46 47 48 49 50 51 52 53 
54 55 56 57 58 59 60 61 62 
63 64 65 66 67 68 69 70 71 
72 73 74 75 76 77 78 79 80 
81 82 83 84 85 86 87 88 89 
90 91 92 93 94 95 96 97 98 
99 
POINT_DATA 100
FIELD FieldData 3
_theta 1 100 double
0 0.031733259127 0.063466518254 0.095199777382 0.12693303651 0.15866629564 0.19039955476 0.22213281389 0.25386607302 
0.28559933214 0.31733259127 0.3490658504 0.38079910953 0.41253236865 0.44426562778 0.47599888691 0.50773214603 0.53946540516 
0.57119866429 0.60293192342 0.63466518254 0.66639844167 0.6981317008 0.72986495992 0.76159821905 0.79333147818 0.82506473731 
0.85679799643 0.88853125556 0.92026451469 0.95199777382 0.98373103294 1.0154642921 1.0471975512 1.0789308103 1.1106640695 
1.1423973286 1.1741305877 1.2058638468 1.237597106 1.2693303651 1.3010636242 1.3327968833 1.3645301425 1.3962634016 
1.4279966607 1.4597299198 1.491463179 1.5231964381 1.5549296972 1.5866629564 1.6183962155 1.6501294746 1.6818627337 
1.7135959929 1.745329252 1.7770625111 1.8087957702 1.8405290294 1.8722622885 1.9039955476 1.9357288068 1.9674620659 
1.999195325 2.0309285841 2.0626618433 2.0943951024 2.1261283615 2.1578616206 2.1895948798 2.2213281389 2.253061398 
2.2847946572 2.3165279163 2.3482611754 2.3799944345 2.4117276937 2.4434609528 2.4751942119 2.506927471 2.5386607302 
2.5703939893 2.6021272484 2.6338605076 2.6655937667 2.6973270258 2.7290602849 2.7607935441 2.7925268032 2.8242600623 
2.8559933214 2.8877265806 2.9194598397 2.9511930988 2.982926358 3.0146596171 3.0463928762 3.0781261353 3.1098593945 
3.1415926536 
_radius 1 100 double
2.7335124829e-13 0.48791860535 0.96536833504 1.4224399773 1.8509297394 2.2449420596 2.6012038144 2.9190436004 3.2000389124 
3.44739619 3.6651888882 3.8576058889 4.0283281923 4.1800698312 4.3142565737 4.4308301709 4.5282314299 4.6036524952 
4.653611853 4.6748145167 4.6651632095 4.6247220599 4.5564162716 4.4662752873 4.3630855151 4.2574141043 4.1601108327 
4.0805855206 4.025316127 3.9970235966 3.9946827662 4.0141690486 4.0491388432 4.0918351971 4.133764394 4.1663755809 
4.1818892437 4.1743088338 4.140506669 4.0811498702 4.0011160857 3.9089549588 3.815090943 3.7291861927 3.6580195992 
3.6050834461 3.5717542492 3.5589509266 3.5683702389 3.6029379216 3.6663224287 3.7613946235 3.8881108076 4.0422165482 
4.2156257735 4.3976835225 4.5764452272 4.7400905389 4.878552666 4.9848887588 5.0559970102 5.0926527712 5.099010157 
5.0817400395 5.0489586521 5.0090788266 4.9697054647 4.9367104661 4.9136384203 4.9015524449 4.8992996763 4.9040277503 
4.9117294761 4.9176677946 4.9166771784 4.9034656638 4.8730754374 4.8215383928 4.7465461995 4.6478549511 4.5272595886 
4.3881589935 4.2348497368 4.0717228468 3.9025238639 3.7297930308 3.5545451081 3.3761922017 3.1926736104 3.0007437698 
2.7963784668 2.5752731055 2.3334060834 2.0676200372 1.7761477679 1.4589998431 1.1181482134 0.75747769121 0.38251808883 
1.9536695227e-13 
_area 1 100 double
0 0.71352086085 2.7885105863 6.0419470928 10.210552687 15.00122483 20.1415703 25.418223303 30.693807622 
35.897571072 40.991273314 45.925769678 50.616136684 54.948450097 58.804053393 62.082872842 64.714542533 66.647269242 
67.817529966 68.136289091 67.520755043 65.950007494 63.508032463 60.398264218 56.928909467 53.471652975 50.395169946 
47.983345408 46.374581369 45.562516505 45.449658333 45.902038545 46.764119716 47.849095914 48.949924595 49.872603043 
50.467867268 50.662036879 50.457160792 49.896435284 49.09126681 48.238364338 47.598354126 47.252574515 47.101290059 
47.030984342 46.966313513 46.894073816 46.87058924 47.039708015 47.641399166 48.921659502 51.077102852 54.204117717 
58.048234012 62.539999682 67.642587098 72.706664896 77.136184334 80.528911835 82.667763209 83.49140776 83.076071878 
81.622818515 79.436453422 76.892266961 74.385967224 72.265870195 70.764014154 69.957466851 69.782684941 70.090237107 
70.700283634 71.429530634 72.083050815 72.432104457 72.226240051 71.251819591 69.390369818 66.644378856 63.130343122 
59.047646016 54.633232198 50.114372235 45.671493194 41.417482901 37.393622601 33.579513233 29.91361544 26.320105188 
22.736632424 19.137430374 15.547334086 12.044035047 8.7481363226 5.803437275 3.3528902332 1.5173860918 0.38328349636 
0 
