# vtk DataFile Version 5.1
vtk output
ASCII
DATASET POLYDATA
POINTS 100 float
-117.684 -118.389 74.7847 -117.684 -118.373 74.7927 -117.688 -118.322 74.8206 
-117.694 -118.236 74.8676 -117.702 -118.114 74.9323 -117.712 -117.958 75.013 
-117.723 -117.767 75.1074 -117.735 -117.545 75.2131 -117.747 -117.294 75.3276 
-117.76 -117.02 75.448 -117.773 -116.727 75.5722 -117.788 -116.423 75.6978 
-117.805 -116.114 75.8233 -117.825 -115.807 75.9478 -117.85 -115.507 76.071 
-117.88 -115.219 76.1933 -117.916 -114.944 76.3161 -117.959 -114.682 76.441 
-118.008 -114.431 76.5705 -118.064 -114.188 76.7069 -118.125 -113.946 76.8527 
-118.191 -113.702 77.0101 -118.262 -113.448 77.1806 -118.337 -113.179 77.3649 
-118.414 -112.892 77.5628 -118.494 -112.585 77.7732 -118.577 -112.254 77.9939 
-118.664 -111.902 78.2221 -118.756 -111.528 78.4545 -118.854 -111.134 78.6875 
-118.958 -110.721 78.9177 -119.071 -110.289 79.1423 -119.194 -109.837 79.3591 
-119.325 -109.361 79.5672 -119.466 -108.858 79.767 -119.613 -108.323 79.9599 
-119.765 -107.751 80.1485 -119.919 -107.138 80.3365 -120.069 -106.48 80.528 
-120.211 -105.777 80.7275 -120.34 -105.031 80.9391 -120.45 -104.246 81.1667 
-120.537 -103.431 81.4129 -120.597 -102.597 81.6795 -120.626 -101.756 81.9669 
-120.623 -100.921 82.2743 -120.587 -100.104 82.5998 -120.518 -99.3175 82.9407 
-120.418 -98.5691 83.2935 -120.291 -97.864 83.6547 -120.139 -97.2035 84.0209 
-119.966 -96.5856 84.3891 -119.776 -96.0051 84.7571 -119.572 -95.455 85.1234 
-119.358 -94.927 85.4876 -119.135 -94.4135 85.85 -118.905 -93.9081 86.2116 
-118.669 -93.4067 86.5741 -118.426 -92.9083 86.9389 -118.177 -92.4147 87.3079 
-117.921 -91.9304 87.6821 -117.657 -91.462 88.0622 -117.385 -91.0166 88.4484 
-117.104 -90.6012 88.8398 -116.816 -90.2211 89.2351 -116.522 -89.8793 89.6324 
-116.223 -89.5755 90.0293 -115.921 -89.3058 90.4235 -115.619 -89.0634 90.8129 
-115.318 -88.839 91.1954 -115.021 -88.622 91.5698 -114.729 -88.4016 91.9353 
-114.443 -88.1687 92.292 -114.162 -87.9163 92.6403 -113.885 -87.6412 92.9815 
-113.611 -87.344 93.3169 -113.338 -87.0294 93.6483 -113.062 -86.7051 93.9771 
-112.782 -86.3815 94.3046 -112.495 -86.0698 94.6316 -112.199 -85.7811 94.9582 
-111.893 -85.5243 95.2841 -111.577 -85.3055 95.608 -111.252 -85.127 95.9282 
-110.92 -84.9868 96.2425 -110.585 -84.8793 96.5482 -110.249 -84.7959 96.8426 
-109.918 -84.7262 97.1228 -109.595 -84.6592 97.3863 -109.287 -84.5852 97.6307 
-108.996 -84.497 97.8542 -108.728 -84.3907 98.0552 -108.485 -84.2665 98.2328 
-108.271 -84.1287 98.3865 -108.087 -83.985 98.5161 -107.935 -83.8456 98.6218 
-107.816 -83.7217 98.7038 -107.73 -83.6241 98.7626 -107.678 -83.5618 98.7983 
-107.659 -83.5408 98.8114 
LINES 2 100
OFFSETS vtktypeint64
0 100 
CONNECTIVITY vtktypeint64
0 1 2 3 4 5 6 7 8 
9 10 11 12 13 14 15 16 17 
18 19 20 21 22 23 24 25 26 
27 28 29 30 31 32 33 34 35 
36 37 38 39 40 41 42 43 44 
45 46 47 48 49 50 51 52 53 
54 55 56 57 58 59 60 61 62 
63 64 65 66 67 68 69 70 71 
72 73 74 75 76 77 78 79 80 
81 82 83 84 85 86 87 88 89 
90 91 92 93 94 95 96 97 98 
99 
POINT_DATA 100
FIELD FieldData 3
_theta 1 100 double
0 0.031733259127 0.063466518254 0.095199777382 0.12693303651 0.15866629564 0.19039955476 0.22213281389 0.25386607302 
0.28559933214 0.31733259127 0.3490658504 0.38079910953 0.41253236865 0.44426562778 0.47599888691 0.50773214603 0.53946540516 
0.57119866429 0.60293192342 0.63466518254 0.66639844167 0.6981317008 0.72986495992 0.76159821905 0.79333147818 0.82506473731 
0.85679799643 0.88853125556 0.92026451469 0.95199777382 0.98373103294 1.0154642921 1.0471975512 1.0789308103 1.1106640695 
1.1423973286 1.1741305877 1.2058638468 1.237597106 1.2693303651 1.3010636242 1.3327968833 1.3645301425 1.3962634016 
1.4279966607 1.4597299198 1.491463179 1.5231964381 1.5549296972 1.5866629564 1.6183962155 1.6501294746 1.6818627337 
1.7135959929 1.745329252 1.7770625111 1.8087957702 1.8405290294 1.8722622885 1.9039955476 1.9357288068 1.9674620659 
1.999195325 2.0309285841 2.0626618433 2.0943951024 2.1261283615 2.1578616206 2.1895948798 2.2213281389 2.253061398 
2.2847946572 2.3165279163 2.3482611754 2.3799944345 2.4117276937 2.4434609528 2.4751942119 2.506927471 2.5386607302 
2.5703939893 2.6021272484 2.6338605076 2.6655937667 2.6973270258 2.7290602849 2.7607935441 2.7925268032 2.8242600623 
2.8559933214 2.8877265806 2.9194598397 2.9511930988 2.982926358 3.0146596171 3.0463928762 3.0781261353 3.1098593945 
3.1415926536 
_radius 1 100 double
1.4352259737e-13 0.29240945693 0.57961889524 0.85727586298 1.1230358594 1.3771931692 1.6227439097 1.864613368 2.1080811162 
2.357064895 2.6131507911 2.8756361931 3.1422063799 3.4097890979 3.6752966757 3.9360811215 4.1900121166 4.4352141968 
4.6696595912 4.8908979438 5.0961157781 5.2825175732 5.4478536215 5.5908557291 5.7113777583 5.8101588231 5.8882876446 
5.9465698349 5.9850321467 6.002745345 5.9980447943 5.9691036686 5.9146980063 5.8349300092 5.7316631529 5.6084683709 
5.4700056458 5.3210271011 5.1655321266 5.006671887 4.8474865341 4.6919091531 4.5453428874 4.4144049684 4.3057767028 
4.2244952167 4.1724056622 4.1474876613 4.1443004083 4.155304868 4.1725704367 4.1893233767 4.2009388517 4.2052227318 
4.2020325545 4.1924367749 4.1777709595 4.1590480459 4.1369855934 4.1124671086 4.0870062713 4.0629173231 4.0431432465 
4.0308456054 4.0289157397 4.0395436081 4.0638663878 4.1016130237 4.1507447982 4.2072973612 4.2656364025 4.3191148716 
4.3609563677 4.3851871534 4.3874785236 4.3657743542 4.3205826212 4.2548323625 4.1732587463 4.0813941404 3.9843961632 
3.8860449377 3.7881768339 3.6906103168 3.5914380191 3.4875176747 3.3750184168 3.2498900222 3.1081680486 2.9461424418 
2.7605144061 2.5486513019 2.3089388621 2.0411188356 1.7464679346 1.4277338823 1.0888480408 0.73451825016 0.36983538957 
2.4695832504e-13 
_area 1 100 double
0 0.26040658873 1.0168089117 2.2021743287 3.730948053 5.541112224 7.6420739289 10.119054636 13.07623395 
16.587787766 20.68346848 25.347670939 30.522354408 36.120198855 42.053065584 48.262701778 54.727822072 61.427841779 
68.279988931 75.105505748 81.653816389 87.663015348 92.928301563 97.356150084 100.98254937 103.9418429 106.39459046 
108.4468561 110.09838146 111.23800784 111.68100203 111.2320462 109.7562452 107.24060493 103.82446011 99.766324167 
95.348011467 90.795840839 86.256501121 81.799120144 77.432958567 73.156798438 69.044874405 65.300895852 62.218559754 
60.053514929 58.882319236 58.620800564 59.083587093 59.789796068 60.266082646 60.232349199 59.585953351 58.38066793 
56.796732505 55.082622804 53.469211408 52.092210865 50.977108937 50.084483613 49.356288523 48.751271803 48.276708446 
47.991998302 47.980838775 48.315990602 49.039702626 50.164544619 51.668815162 53.424438301 55.187064246 56.714139855 
57.803241811 58.300643714 58.117786362 57.246805139 55.76330872 53.811057232 51.57064527 49.217420091 46.877222987 
44.59698099 42.344148756 40.028519911 37.534878027 34.765706662 31.68347008 28.328512795 24.803658559 21.23835573 
17.752805869 14.437686959 11.353941072 8.5464590046 6.0593243281 3.9417545555 2.2431625313 1.0043079961 0.25205293561 
0 
