# vtk DataFile Version 5.1
vtk output
ASCII
DATASET POLYDATA
POINTS 1002 float
-12.8902 -0.0120814 -1.77111 13.9713 0.398374 -4.77895 -11.4718 1.62435 2.39912 
11.5415 -0.594895 3.35536 -0.303981 7.98138 -1.5957 -1.02463 7.91393 2.81716 
-2.38922 -1.24382 -0.505729 -0.851097 -1.24431 1.29422 19.5601 2.43953 -0.104158 
-16.7427 1.55725 -1.74643 18.6409 -9.84211 -0.669952 -20.4958 -10.0169 1.08316 
-11.9741 0.926251 -0.910215 -10.3039 1.73195 -0.456746 -7.68448 2.21903 -0.735052 
-4.54843 2.46169 -1.38436 -1.56059 2.70104 -1.69532 1.27543 2.88515 -1.70037 
4.45707 2.67853 -2.10301 8.00801 1.99908 -3.09809 11.3532 1.13851 -4.15613 
-12.4877 0.870409 -1.45959 -11.8168 1.84195 -1.13552 -10.6894 2.85513 -0.960675 
-9.08159 3.8564 -1.04686 -7.24807 4.81666 -1.30786 -5.51432 5.70792 -1.53762 
-4.00198 6.48199 -1.6353 -2.66224 7.10829 -1.64212 -1.43805 7.59785 -1.6199 
-12.7908 -0.258454 -1.42963 -12.6563 -0.473623 -0.998405 -12.3391 -0.626783 -0.562058 
-11.6492 -0.71462 -0.206799 -10.5937 -0.805121 0.0381618 -9.31161 -0.961312 0.139217 
-7.79741 -1.13853 0.0474754 -6.02356 -1.24633 -0.176878 -4.1567 -1.26498 -0.385173 
-13.3406 -0.426357 -2.50932 -13.7247 -0.7679 -3.22385 -14.0171 -0.929346 -3.94822 
-14.3029 -0.808802 -4.65081 -14.7721 -0.365243 -4.99611 -15.43 0.262618 -4.66408 
-16.0544 0.803133 -3.84398 -16.4918 1.12457 -2.99057 -16.7244 1.32829 -2.30875 
-13.4752 -1.17018 -2.4782 -14.0845 -2.47751 -2.98964 -14.7575 -4.00845 -3.19418 
-15.4639 -5.76544 -3.13876 -16.3583 -7.50464 -2.80082 -17.5925 -8.92195 -2.12262 
-18.8905 -9.91312 -1.24906 -19.8174 -10.4551 -0.395601 -20.2903 -10.4829 0.377638 
13.1368 1.15211 -4.63273 12.1466 1.95733 -4.44698 11.0637 2.74253 -4.30825 
9.83552 3.52774 -4.15714 8.30822 4.40457 -3.81809 6.5054 5.34546 -3.28937 
4.68923 6.18616 -2.77612 3.01498 6.85125 -2.38043 1.38698 7.42167 -2.01562 
13.2271 0.121467 -4.59329 12.1943 -0.0602056 -4.25729 10.8622 -0.153156 -3.78953 
9.24201 -0.190688 -3.23328 7.32777 -0.16907 -2.6006 5.15082 -0.0904693 -1.92919 
2.88871 -0.0709185 -1.34685 0.800379 -0.265009 -0.951418 -0.959987 -0.693648 -0.702421 
15.5323 0.277861 -4.90103 16.7042 0.297693 -4.69087 17.5602 0.393095 -4.24714 
18.3119 0.519898 -3.7231 19.0697 0.701708 -3.21227 19.7256 0.940768 -2.71577 
20.1446 1.20065 -2.18594 20.2832 1.51063 -1.57128 20.0998 1.93272 -0.859424 
15.635 -0.421707 -4.86546 16.8954 -1.21266 -4.52727 17.7838 -2.04825 -3.91128 
18.5456 -3.05819 -3.3069 19.1881 -4.21759 -2.73611 19.3706 -5.39107 -2.00796 
19.0811 -6.59419 -1.26606 18.8004 -7.87666 -0.875589 18.7533 -9.05162 -0.807433 
-9.36355 1.94051 2.12347 -7.24124 2.38457 2.13513 -5.00219 2.82739 2.38398 
-2.10438 2.89705 2.33779 1.63733 2.41038 1.73283 5.30781 1.68565 1.21957 
7.84937 1.08637 1.48528 9.3234 0.580649 2.28516 10.439 0.0109258 2.9828 
-10.5866 2.23491 2.29175 -9.83096 2.97788 2.39246 -9.27085 3.83708 2.74326 
-8.71105 4.72275 3.18613 -7.7839 5.51274 3.45763 -6.37915 6.1497 3.46046 
-4.80367 6.6759 3.32359 -3.38166 7.15093 3.17688 -2.15448 7.57505 3.02187 
-11.0509 1.22271 2.36383 -10.4694 0.781817 2.30704 -9.738 0.333026 2.2528 
-8.92381 -0.0610003 2.27963 -7.96986 -0.383444 2.3401 -6.69777 -0.670131 2.22036 
-5.13925 -0.909544 1.86646 -3.58328 -1.05434 1.511 -2.19157 -1.13395 1.33998 
-12.9507 1.68136 2.59262 -14.285 1.65766 2.55948 -15.2965 1.4531 2.12501 
-15.9231 1.04615 1.37549 -16.2433 0.612433 0.604791 -16.4294 0.410694 -0.0221359 
-16.6172 0.504693 -0.569977 -16.7941 0.773127 -1.07941 -16.8589 1.13073 -1.47942 
-13.4124 1.09104 2.75127 -15.4211 0.411793 3.02715 -17.1304 -0.600031 2.9661 
-18.31 -2.0171 2.51844 -19.1466 -3.69924 1.99307 -20.0109 -5.44618 1.75659 
-20.8843 -7.11165 1.80101 -21.3561 -8.52227 1.80925 -21.1779 -9.50309 1.56033 
11.2808 0.259588 3.05225 10.8263 1.15286 2.68539 10.0368 2.01907 2.30033 
8.95538 2.86932 1.96214 7.65163 3.78234 1.78589 6.05136 4.76573 1.85332 
4.18337 5.72207 2.09045 2.29299 6.57068 2.35652 0.556733 7.29997 2.59646 
11.056 -1.02355 3.45431 10.5114 -1.39778 3.50035 10.0054 -1.74068 3.38042 
9.5977 -2.03912 3.00974 9.09613 -2.16425 2.47993 8.06878 -1.97359 1.99564 
6.24374 -1.52425 1.65236 3.81912 -1.0932 1.42542 1.30334 -0.96581 1.30405 
12.4814 -0.605277 3.43442 13.3551 -0.445224 3.52104 14.2212 -0.161001 3.54762 
15.2654 0.153333 3.38394 16.445 0.539568 3.05769 17.466 1.08184 2.69746 
18.2084 1.66262 2.26607 18.7901 2.08262 1.62998 19.2648 2.30923 0.795161 
12.4215 -1.50996 3.60839 13.3821 -2.52054 3.76206 14.1323 -3.68865 3.87795 
14.366 -5.08851 3.98423 14.3586 -6.5519 3.9687 14.9143 -7.7359 3.56054 
16.2764 -8.55029 2.58462 17.7166 -9.16953 1.26871 18.5103 -9.64551 0.087929 
-0.864845 8.60125 -1.18405 -1.66682 9.27708 -0.528039 -2.31037 9.78671 0.248933 
-2.39442 9.91481 0.931534 -2.02211 9.71415 1.44451 -1.67117 9.43904 1.88829 
-1.54357 9.19389 2.30515 -1.46151 8.87899 2.61472 -1.27708 8.43181 2.77089 
2.12453 7.91556 -1.96967 4.86277 7.77893 -2.49942 7.36257 7.62141 -2.8802 
9.42062 7.29323 -2.85034 11.5664 6.54764 -2.55478 14.1645 5.48893 -2.29333 
16.6289 4.52335 -2.02532 18.2525 3.79538 -1.53363 19.0816 3.13528 -0.830187 
-2.70158 8.2899 -1.21941 -4.99248 8.42624 -0.998947 -7.15507 8.25144 -0.925718 
-9.28803 7.71356 -0.930216 -11.3235 6.88444 -0.94876 -13.0225 5.88328 -0.974623 
-14.3269 4.8025 -1.05918 -15.3664 3.69559 -1.25095 -16.1833 2.59798 -1.51654 
1.13223 7.80258 2.41602 3.40833 7.60187 2.00644 5.6575 7.33081 1.67572 
7.91589 6.92885 1.43066 10.3045 6.35947 1.23819 12.7384 5.7228 1.08281 
14.9746 5.08005 0.905874 16.8733 4.33008 0.624836 18.4068 3.41358 0.255113 
-3.33691 8.23706 3.16487 -5.78041 8.39574 3.40596 -8.12044 8.30752 3.37568 
-10.1287 7.93404 2.99615 -11.754 7.25834 2.35353 -13.119 6.25794 1.57633 
-14.3452 4.99917 0.719776 -15.4198 3.68816 -0.174975 -16.2366 2.52218 -1.02495 
-2.16398 -1.57082 -0.404253 -1.99033 -1.8694 -0.276048 -1.72339 -2.18437 -0.251479 
-1.21996 -2.56874 -0.345124 -0.689529 -2.91765 -0.290673 -0.550503 -2.99311 0.138811 
-0.823884 -2.70118 0.74169 -1.10286 -2.1938 1.15241 -1.09874 -1.67499 1.28584 
0.474847 -1.00126 -0.786327 4.3501 -1.32343 -1.41642 9.12003 -2.50026 -2.46976 
13.614 -4.28876 -3.42907 16.3955 -6.14288 -3.58467 17.3302 -7.80476 -2.9631 
17.5159 -9.21025 -2.22046 17.7886 -10.0975 -1.69108 18.2148 -10.253 -1.22151 
-4.68333 -1.89543 -0.254766 -7.03355 -2.51142 0.0584105 -9.54086 -3.05195 0.312681 
-11.9012 -3.94246 0.203998 -13.6053 -5.5359 -0.28125 -14.6821 -7.39539 -0.644689 
-15.7708 -8.75323 -0.461658 -17.2939 -9.44128 0.130661 -19.0285 -9.79014 0.726731 
2.20873 -1.41449 1.20169 6.36548 -2.42262 0.931557 10.9911 -4.27537 0.410985 
14.5596 -6.42049 -0.137461 15.9881 -8.21731 -0.357388 15.978 -9.51071 -0.259558 
16.0911 -10.4049 -0.223331 16.9017 -10.8064 -0.418751 17.9178 -10.5802 -0.637847 
-3.37017 -1.9139 1.40002 -5.5383 -2.89912 1.6081 -7.82413 -3.61717 1.86703 
-10.6325 -3.90386 2.05604 -13.6417 -4.31831 2.13033 -16.1133 -5.32331 2.16458 
-17.7732 -6.6746 2.16044 -18.8974 -7.97258 1.9898 -19.78 -9.10273 1.59782 
20.4012 1.36591 0.134187 20.9959 0.302953 0.418495 20.9738 -0.709545 0.766366 
20.4735 -1.94781 1.10619 20.1703 -3.59156 1.26225 20.2718 -5.27373 1.1194 
20.262 -6.60138 0.734781 19.8478 -7.70432 0.247784 19.2386 -8.81369 -0.235409 
-17.176 0.334097 -2.1646 -17.5665 -1.01438 -2.29713 -18.2517 -2.40884 -2.016 
-19.5299 -3.82237 -1.37398 -21.0511 -5.49296 -0.663101 -22.061 -7.56899 -0.174098 
-22.3238 -9.50572 0.120358 -22.0915 -10.5205 0.432762 -21.4807 -10.5202 0.801603 
-11.1728 1.808 -0.743208 -9.90395 2.68637 -0.771883 -8.89423 2.4905 -0.670774 
-8.11536 3.51014 -1.08287 -7.04081 3.19137 -1.11531 -5.83199 2.8241 -1.24869 
-6.10179 4.30472 -1.53439 -4.98959 3.86853 -1.61944 -3.89777 3.45913 -1.69387 
-2.71764 3.03277 -1.78337 -4.31543 5.12832 -1.8319 -3.14522 4.60276 -1.92108 
-2.12121 4.16661 -1.8756 -1.06038 3.71593 -1.87713 0.123463 3.26291 -1.85194 
-2.86641 5.93918 -1.87325 -1.64777 5.38215 -1.96284 -0.495678 4.87881 -1.90087 
0.618049 4.37527 -1.87091 1.84465 3.81798 -1.93498 3.16603 3.24631 -2.0081 
-1.49951 6.61142 -1.83508 -0.223219 6.06477 -1.96308 1.16933 5.46885 -2.04564 
2.57749 4.8288 -2.16304 3.94802 4.15699 -2.33694 5.31809 3.46372 -2.53724 
6.69075 2.74257 -2.78382 -0.0504717 7.08763 -1.88427 1.36924 6.54233 -2.11287 
2.95156 5.88727 -2.3877 4.66854 5.09999 -2.75569 6.29595 4.27595 -3.11496 
7.70747 3.49979 -3.36412 8.99149 2.73502 -3.57851 10.223 1.93404 -3.85662 
-12.9911 0.541476 -2.15463 -13.2944 0.295853 -2.92977 -12.4187 1.65822 -1.67407 
-13.4387 0.249888 -3.79392 -12.7318 1.53262 -2.38052 -11.4625 2.89164 -1.22397 
-13.658 0.497065 -4.54578 -12.8447 1.54172 -3.2344 -11.9381 2.92452 -1.68391 
-10.0436 4.15214 -0.992906 -14.1672 1.03898 -4.70455 -13.0459 1.7963 -3.88983 
-12.1491 2.9791 -2.3468 -10.7064 4.36746 -1.1447 -8.27007 5.3141 -1.04314 
-14.8757 1.67732 -4.08265 -13.5451 2.34063 -3.83376 -12.3823 3.23634 -2.82506 
-11.0566 4.52274 -1.57208 -8.99612 5.67918 -1.01367 -6.42976 6.28494 -1.25022 
-15.5381 2.149 -3.08995 -14.2623 2.9711 -3.05645 -12.9178 3.78832 -2.6486 
-11.4645 4.85343 -1.87359 -9.55334 5.98274 -1.24743 -7.20663 6.75732 -1.16374 
-4.84367 7.07333 -1.4066 -15.9978 2.40743 -2.19563 -14.9459 3.42891 -2.06608 
-13.683 4.39489 -1.90344 -12.2024 5.39865 -1.63101 -10.333 6.41229 -1.31986 
-8.12026 7.2227 -1.16642 -5.84874 7.65651 -1.22053 -3.64404 7.73721 -1.38608 
-15.6051 3.65361 -0.68511 -14.6926 4.8898 0.170524 -14.7507 4.85458 -0.381737 
-13.4184 6.15043 0.958556 -13.7075 6.08552 0.385791 -13.6362 6.05863 -0.243172 
-11.9077 7.23525 1.69545 -12.1688 7.19337 1.05343 -12.3962 7.22601 0.430468 
-12.1366 7.18105 -0.27662 -10.3193 8.06914 2.43959 -10.4209 8.10104 1.76419 
-10.6779 8.18465 1.09964 -10.7893 8.28297 0.398318 -10.2763 8.14257 -0.353425 
-8.54105 8.63457 3.05752 -8.66653 8.79748 2.49876 -8.82636 8.92817 1.84365 
-9.13372 9.12289 1.16933 -9.06512 9.16854 0.405527 -8.27231 8.83888 -0.370308 
-6.33128 8.86681 3.29744 -6.61365 9.17128 2.94554 -6.77544 9.36083 2.40808 
[...]
POINT_DATA 1002
FIELD FieldData 4
_paraPhi 1 1002 double
6.2831853072 3.1415926536 6.2831853072 3.1415926536 4.7123889804 4.7123889804 1.5707963268 1.5707963268 3.6951670125 
5.7296109483 2.5880182947 0.5535743589 6.2831853072 6.2831853072 6.2831853072 6.2831853072 3.1415926536 3.1415926536 
3.1415926536 3.1415926536 3.1415926536 6.1053039672 5.898798347 5.6768734901 5.4599499503 5.2659633393 5.1032165617 
4.9713148346 4.8656852733 4.7809517865 0.17788134 0.38438696014 0.60631181711 0.82323535693 1.0172219679 1.1799687454 
1.3118704726 1.4175000338 1.5022335207 6.1892828907 6.1070320098 6.035312792 5.9728339911 5.9183214791 5.8706119594 
5.8286879411 5.7916808611 5.7588591896 0.093902416448 0.17615329733 0.2478725152 0.31035131605 0.36486382811 0.41257334776 
0.45449736604 0.4915044461 0.52432611754 3.3194739936 3.5259796137 3.7479044707 3.9648280105 4.1588146215 4.321561399 
4.4534631262 4.5590926874 4.6438261743 2.9637113136 2.7572056934 2.5352808365 2.3183572967 2.1243706857 1.9616239082 
1.829722181 1.7240926197 1.6393591329 3.23549507 3.3177459509 3.3894651688 3.4519439696 3.5064564817 3.5541660013 
3.5960900196 3.6330970997 3.6659187711 3.0476902371 2.9654393563 2.8937201384 2.8312413375 2.7767288255 2.7290193058 
2.6870952876 2.6500882075 2.617266536 6.2831853072 6.2831853072 6.2831853072 6.2831853072 3.1415926536 3.1415926536 
3.1415926536 3.1415926536 3.1415926536 6.1053039672 5.898798347 5.6768734901 5.4599499503 5.2659633393 5.1032165617 
4.9713148346 4.8656852733 4.7809517865 0.17788134 0.38438696014 0.60631181711 0.82323535693 1.0172219679 1.1799687454 
1.3118704726 1.4175000338 1.5022335207 6.1892828907 6.1070320098 6.035312792 5.9728339911 5.9183214791 5.8706119594 
5.8286879411 5.7916808611 5.7588591896 0.093902416448 0.17615329733 0.2478725152 0.31035131605 0.36486382811 0.41257334776 
0.45449736604 0.4915044461 0.52432611754 3.3194739936 3.5259796137 3.7479044707 3.9648280105 4.1588146215 4.321561399 
4.4534631262 4.5590926874 4.6438261743 2.9637113136 2.7572056934 2.5352808365 2.3183572967 2.1243706857 1.9616239082 
1.829722181 1.7240926197 1.6393591329 3.23549507 3.3177459509 3.3894651688 3.4519439696 3.5064564817 3.5541660013 
3.5960900196 3.6330970997 3.6659187711 3.0476902371 2.9654393563 2.8937201384 2.8312413375 2.7767288255 2.7290193058 
2.6870952876 2.6500882075 2.617266536 4.7123889804 4.7123889804 4.7123889804 4.7123889804 4.7123889804 4.7123889804 
4.7123889804 4.7123889804 4.7123889804 4.6087898617 4.4991390697 4.3857031936 4.2712800401 4.1588146215 4.0509635631 
3.94975894 3.8564636551 3.7716124825 4.8159880991 4.9256388911 5.0390747672 5.1534979207 5.2659633393 5.3738143976 
5.4750190208 5.5683143056 5.6531654782 4.6087898617 4.4991390697 4.3857031936 4.2712800401 4.1588146215 4.0509635631 
3.94975894 3.8564636551 3.7716124825 4.8159880991 4.9256388911 5.0390747672 5.1534979207 5.2659633393 5.3738143976 
5.4750190208 5.5683143056 5.6531654782 1.5707963268 1.5707963268 1.5707963268 1.5707963268 1.5707963268 1.5707963268 
1.5707963268 1.5707963268 1.5707963268 1.6743954455 1.7840462375 1.8974821136 2.0119052671 2.1243706857 2.232221744 
2.3334263672 2.426721652 2.5115728246 1.4671972081 1.3575464161 1.24411054 1.1296873865 1.0172219679 0.90937090954 
0.80816628637 0.71487100155 0.63001982895 1.6743954455 1.7840462375 1.8974821136 2.0119052671 2.1243706857 2.232221744 
2.3334263672 2.426721652 2.5115728246 1.4671972081 1.3575464161 1.24411054 1.1296873865 1.0172219679 0.90937090954 
0.80816628637 0.71487100155 0.63001982895 3.6007720849 3.4966939854 3.3839471039 3.2645756454 3.1415926536 3.0186096618 
2.8992382033 2.7864913217 2.6824132222 5.8240058758 5.9280839753 6.0408308569 6.1602023154 6.2831853072 0.12298299178 
0.2423544503 0.35510133185 0.45917943135 6.0560271438 5.7885595667 5.9702140275 5.5125918794 5.6029703303 5.7885595667 
5.2659633393 5.2659633393 5.2659633393 5.2659633393 5.0674903122 5.0120975802 4.9155579264 4.7123889804 4.1588146215 
4.9155579264 4.8353719722 4.7123889804 4.5092200343 4.1588146215 3.6362183941 4.8004512023 4.7123889804 4.5894059886 
4.4126803806 4.1588146215 3.8218076305 3.4545639333 4.7123889804 4.6243267584 4.5092200343 4.3572876485 4.1588146215 
3.9121860814 3.6362183941 3.368750817 6.0174235957 5.9434319871 5.8263323547 5.8809213739 5.7674481418 5.6279784266 
5.8278025282 5.718968232 5.5891129425 5.4372443565 5.7823484065 5.678536687 5.5575666702 5.4192596322 5.2659633393 
5.743164462 5.6444075337 5.5314983644 5.4046708639 5.2659633393 5.1195510325 5.7091357773 5.6152775188 5.5096229709 
5.3926039573 5.2659633393 5.1329233157 4.9978930058 5.6793730533 5.5901633916 5.4910209005 5.3824597928 5.2659633393 
5.1440684722 5.0201624502 4.8979782167 5.5683143056 5.4750190208 5.4750190208 5.3738143976 5.3738143976 5.3738143976 
5.2659633393 5.2659633393 5.2659633393 5.2659633393 5.1534979207 5.1534979207 5.1534979207 5.1534979207 5.1534979207 
5.0390747672 5.0390747672 5.0390747672 5.0390747672 5.0390747672 5.0390747672 4.9256388911 4.9256388911 4.9256388911 
4.9256388911 4.9256388911 4.9256388911 4.9256388911 4.8159880991 4.8159880991 4.8159880991 4.8159880991 4.8159880991 
4.8159880991 4.8159880991 4.8159880991 4.6087898617 4.6087898617 4.4991390697 4.6087898617 4.4991390697 4.3857031936 
4.6087898617 4.4991390697 4.3857031936 4.2712800401 4.6087898617 4.4991390697 4.3857031936 4.2712800401 4.1588146215 
4.6087898617 4.4991390697 4.3857031936 4.2712800401 4.1588146215 4.0509635631 4.6087898617 4.4991390697 4.3857031936 
4.2712800401 4.1588146215 4.0509635631 3.94975894 4.6087898617 4.4991390697 4.3857031936 4.2712800401 4.1588146215 
4.0509635631 3.94975894 3.8564636551 4.526799744 4.4046155105 4.426884955 4.2807094886 4.2918546451 4.3052269283 
4.1588146215 4.1588146215 4.1588146215 4.1588146215 4.042318168 4.0321740035 4.0201070968 4.0055183285 3.9875336042 
3.9337570603 3.9151549899 3.8932795963 3.8672112905 3.8356650183 3.7967995342 3.8346145692 3.809500442 3.7803704271 
3.7462412737 3.7058097288 3.657329819 3.5984456061 3.7454049075 3.7156421835 3.6816134988 3.6424295543 3.5969754326 
3.5438565869 3.4813459737 3.4073543651 3.5642842451 3.4524645613 3.5233842518 3.3320300872 3.403123212 3.4773852225 
3.20576226 3.2746326772 3.348015857 3.4255060145 3.0774230472 3.1415926536 3.2112816139 3.2864685043 3.3668817272 
2.95115522 3.00855263 3.0719036933 3.1415926536 3.2178377658 3.3005964304 2.8307207459 2.8800620952 2.9351694502 
2.9967168029 3.0653475414 3.1415926536 3.225752376 2.718901062 2.7598010554 2.8058000847 2.8576792927 2.91630358 
2.9825888767 3.0574329311 3.1415926536 3.5642842451 3.5233842518 3.4524645613 3.4773852225 3.403123212 3.3320300872 
3.4255060145 3.348015857 3.2746326772 3.20576226 3.3668817272 3.2864685043 3.2112816139 3.1415926536 3.0774230472 
3.3005964304 3.2178377658 3.1415926536 3.0719036933 3.00855263 2.95115522 3.225752376 3.1415926536 3.0653475414 
2.9967168029 2.9351694502 2.8800620952 2.8307207459 3.1415926536 3.0574329311 2.9825888767 2.91630358 2.8576792927 
2.8058000847 2.7598010554 2.718901062 4.526799744 4.426884955 4.4046155105 4.3052269283 4.2918546451 4.2807094886 
4.1588146215 4.1588146215 4.1588146215 4.1588146215 3.9875336042 4.0055183285 4.0201070968 4.0321740035 4.042318168 
3.7967995342 3.8356650183 3.8672112905 3.8932795963 3.9151549899 3.9337570603 3.5984456061 3.657329819 3.7058097288 
3.7462412737 3.7803704271 3.809500442 3.8346145692 3.4073543651 3.4813459737 3.5438565869 3.5969754326 3.6424295543 
3.6816134988 3.7156421835 3.7454049075 4.7123889804 4.8004512023 4.6243267584 4.9155579264 4.7123889804 4.5092200343 
5.0674903122 4.8353719722 4.5894059886 4.3572876485 5.2659633393 5.0120975802 4.7123889804 4.4126803806 4.1588146215 
5.5125918794 5.2659633393 4.9155579264 4.5092200343 4.1588146215 3.9121860814 5.7885595667 5.6029703303 5.2659633393 
4.7123889804 4.1588146215 3.8218076305 3.6362183941 6.0560271438 5.9702140275 5.7885595667 5.2659633393 4.1588146215 
3.6362183941 3.4545639333 3.368750817 0.22715816343 0.49462574053 0.3129712797 0.77059342779 0.68021497688 0.49462574053 
1.0172219679 1.0172219679 1.0172219679 1.0172219679 1.2156949949 1.271087727 1.3676273807 1.5707963268 2.1243706857 
1.3676273807 1.447813335 1.5707963268 1.7739652728 2.1243706857 2.6469669131 1.4827341049 1.5707963268 1.6937793186 
1.8705049266 2.1243706857 2.4613776767 2.8286213739 1.5707963268 1.6588585487 1.7739652728 1.9258976586 2.1243706857 
2.3709992258 2.6469669131 2.9144344902 1.7563855631 1.8785697967 1.8563003522 2.0024758186 1.9913306621 1.9779583789 
2.1243706857 2.1243706857 2.1243706857 2.1243706857 2.2408671392 2.2510113037 2.2630782103 2.2776669786 2.295651703 
2.3494282469 2.3680303173 2.3899057108 2.4159740166 2.4475202889 2.486385773 2.448570738 2.4736848652 2.5028148801 
2.5369440334 2.5773755784 2.6258554882 2.6847397011 2.5377803997 2.5675431237 2.6015718084 2.6407557529 2.6862098746 
2.7393287203 2.8018393335 2.8758309421 1.6743954455 1.6743954455 1.7840462375 1.6743954455 1.7840462375 1.8974821136 
1.6743954455 1.7840462375 1.8974821136 2.0119052671 1.6743954455 1.7840462375 1.8974821136 2.0119052671 2.1243706857 
1.6743954455 1.7840462375 1.8974821136 2.0119052671 2.1243706857 2.232221744 1.6743954455 1.7840462375 1.8974821136 
2.0119052671 2.1243706857 2.232221744 2.3334263672 1.6743954455 1.7840462375 1.8974821136 2.0119052671 2.1243706857 
2.232221744 2.3334263672 2.426721652 1.4671972081 1.3575464161 1.4671972081 1.24411054 1.3575464161 1.4671972081 
1.1296873865 1.24411054 1.3575464161 1.4671972081 1.0172219679 1.1296873865 1.24411054 1.3575464161 1.4671972081 
0.90937090954 1.0172219679 1.1296873865 1.24411054 1.3575464161 1.4671972081 0.80816628637 0.90937090954 1.0172219679 
1.1296873865 1.24411054 1.3575464161 1.4671972081 0.71487100155 0.80816628637 0.90937090954 1.0172219679 1.1296873865 
1.24411054 1.3575464161 1.4671972081 0.60381225391 0.57404952988 0.69302191562 0.54002084522 0.66790778838 0.79216440667 
0.50083690068 0.63877777351 0.77356233629 0.90072551443 0.45538277901 0.60464862014 0.75168694275 0.89058134991 1.0172219679 
0.40226393329 0.56421707518 0.72561863695 0.87851444325 1.0172219679 1.139116835 0.33975332011 0.51573716537 0.69407236469 
0.86392567495 1.0172219679 1.1502619915 1.2630228569 0.26576171152 0.45685295248 0.6552068806 0.84594095064 1.0172219679 
1.1636342747 1.2852923014 1.3852070904 0.22715816343 0.3129712797 0.49462574053 0.49462574053 0.68021497688 0.77059342779 
1.0172219679 1.0172219679 1.0172219679 1.0172219679 2.1243706857 1.5707963268 1.3676273807 1.271087727 1.2156949949 
2.6469669131 2.1243706857 1.7739652728 1.5707963268 1.447813335 1.3676273807 2.8286213739 2.4613776767 2.1243706857 
1.8705049266 1.6937793186 1.5707963268 1.4827341049 2.9144344902 2.6469669131 2.3709992258 2.1243706857 1.9258976586 
1.7739652728 1.6588585487 1.5707963268 1.7563855631 1.8563003522 1.8785697967 1.9779583789 1.9913306621 2.0024758186 
2.1243706857 2.1243706857 2.1243706857 2.1243706857 2.295651703 2.2776669786 2.2630782103 2.2510113037 2.2408671392 
2.486385773 2.4475202889 2.4159740166 2.3899057108 2.3680303173 2.3494282469 2.6847397011 2.6258554882 2.5773755784 
2.5369440334 2.5028148801 2.4736848652 2.448570738 2.8758309421 2.8018393335 2.7393287203 2.6862098746 2.6407557529 
2.6015718084 2.5675431237 2.5377803997 5.8604937156 5.901393709 5.9723133995 5.9473927383 6.0216547488 6.0927478736 
5.9992719463 6.0767621038 6.1501452836 6.2190157008 6.0578962336 6.1383094565 6.2134963469 0 0.064169606361 
6.1241815303 6.206940195 6.2831853072 0.069688960264 0.13304002361 0.19043743361 6.1990255847 0 0.07624511221 
0.14487585072 0.20642320337 0.26153055843 0.3108719077 0 0.084159722458 0.15900377685 0.22528907359 0.28391336087 
0.3357925689 0.38179159818 0.42269159155 5.8604937156 5.9723133995 5.901393709 6.0927478736 6.0216547488 5.9473927383 
6.2190157008 6.1501452836 6.0767621038 5.9992719463 0.064169606361 0 6.2134963469 6.1383094565 6.0578962336 
0.19043743361 0.13304002361 0.069688960264 6.2831853072 6.206940195 6.1241815303 0.3108719077 0.26153055843 0.20642320337 
0.14487585072 0.07624511221 6.2831853072 6.1990255847 0.42269159155 0.38179159818 0.3357925689 0.28391336087 0.22528907359 
0.15900377685 0.084159722458 0 5.6793730533 5.7091357773 5.5901633916 5.743164462 5.6152775188 5.4910209005 
5.7823484065 5.6444075337 5.5096229709 5.3824597928 5.8278025282 5.678536687 5.5314983644 5.3926039573 5.2659633393 
5.8809213739 5.718968232 5.5575666702 5.4046708639 5.2659633393 5.1440684722 5.9434319871 5.7674481418 5.5891129425 
5.4192596322 5.2659633393 5.1329233157 5.0201624502 6.0174235957 5.8263323547 5.6279784266 5.4372443565 5.2659633393 
5.1195510325 4.9978930058 4.8979782167 1.3852070904 1.2852923014 1.2630228569 1.1636342747 1.1502619915 1.139116835 
1.0172219679 1.0172219679 1.0172219679 1.0172219679 0.84594095064 0.86392567495 0.87851444325 0.89058134991 0.90072551443 
0.6552068806 0.69407236469 0.72561863695 0.75168694275 0.77356233629 0.79216440667 0.45685295248 0.51573716537 0.56421707518 
0.60464862014 0.63877777351 0.66790778838 0.69302191562 0.26576171152 0.33975332011 0.40226393329 0.45538277901 0.50083690068 
0.54002084522 0.57404952988 0.60381225391 
_paraPhiHalf 1 1002 double
0 3.1415926536 0 3.1415926536 1.5707963268 1.5707963268 1.5707963268 1.5707963268 2.5880182947 
0.5535743589 2.5880182947 0.5535743589 0 0 0 0 3.1415926536 3.1415926536 
3.1415926536 3.1415926536 3.1415926536 0.17788134 0.38438696014 0.60631181711 0.82323535693 1.0172219679 1.1799687454 
1.3118704726 1.4175000338 1.5022335207 0.17788134 0.38438696014 0.60631181711 0.82323535693 1.0172219679 1.1799687454 
1.3118704726 1.4175000338 1.5022335207 0.093902416448 0.17615329733 0.2478725152 0.31035131605 0.36486382811 0.41257334776 
0.45449736604 0.4915044461 0.52432611754 0.093902416448 0.17615329733 0.2478725152 0.31035131605 0.36486382811 0.41257334776 
0.45449736604 0.4915044461 0.52432611754 2.9637113136 2.7572056934 2.5352808365 2.3183572967 2.1243706857 1.9616239082 
1.829722181 1.7240926197 1.6393591329 2.9637113136 2.7572056934 2.5352808365 2.3183572967 2.1243706857 1.9616239082 
1.829722181 1.7240926197 1.6393591329 3.0476902371 2.9654393563 2.8937201384 2.8312413375 2.7767288255 2.7290193058 
2.6870952876 2.6500882075 2.617266536 3.0476902371 2.9654393563 2.8937201384 2.8312413375 2.7767288255 2.7290193058 
2.6870952876 2.6500882075 2.617266536 0 0 0 0 3.1415926536 3.1415926536 
3.1415926536 3.1415926536 3.1415926536 0.17788134 0.38438696014 0.60631181711 0.82323535693 1.0172219679 1.1799687454 
1.3118704726 1.4175000338 1.5022335207 0.17788134 0.38438696014 0.60631181711 0.82323535693 1.0172219679 1.1799687454 
1.3118704726 1.4175000338 1.5022335207 0.093902416448 0.17615329733 0.2478725152 0.31035131605 0.36486382811 0.41257334776 
0.45449736604 0.4915044461 0.52432611754 0.093902416448 0.17615329733 0.2478725152 0.31035131605 0.36486382811 0.41257334776 
0.45449736604 0.4915044461 0.52432611754 2.9637113136 2.7572056934 2.5352808365 2.3183572967 2.1243706857 1.9616239082 
1.829722181 1.7240926197 1.6393591329 2.9637113136 2.7572056934 2.5352808365 2.3183572967 2.1243706857 1.9616239082 
1.829722181 1.7240926197 1.6393591329 3.0476902371 2.9654393563 2.8937201384 2.8312413375 2.7767288255 2.7290193058 
2.6870952876 2.6500882075 2.617266536 3.0476902371 2.9654393563 2.8937201384 2.8312413375 2.7767288255 2.7290193058 
2.6870952876 2.6500882075 2.617266536 1.5707963268 1.5707963268 1.5707963268 1.5707963268 1.5707963268 1.5707963268 
1.5707963268 1.5707963268 1.5707963268 1.6743954455 1.7840462375 1.8974821136 2.0119052671 2.1243706857 2.232221744 
2.3334263672 2.426721652 2.5115728246 1.4671972081 1.3575464161 1.24411054 1.1296873865 1.0172219679 0.90937090954 
0.80816628637 0.71487100155 0.63001982895 1.6743954455 1.7840462375 1.8974821136 2.0119052671 2.1243706857 2.232221744 
2.3334263672 2.426721652 2.5115728246 1.4671972081 1.3575464161 1.24411054 1.1296873865 1.0172219679 0.90937090954 
0.80816628637 0.71487100155 0.63001982895 1.5707963268 1.5707963268 1.5707963268 1.5707963268 1.5707963268 1.5707963268 
1.5707963268 1.5707963268 1.5707963268 1.6743954455 1.7840462375 1.8974821136 2.0119052671 2.1243706857 2.232221744 
2.3334263672 2.426721652 2.5115728246 1.4671972081 1.3575464161 1.24411054 1.1296873865 1.0172219679 0.90937090954 
0.80816628637 0.71487100155 0.63001982895 1.6743954455 1.7840462375 1.8974821136 2.0119052671 2.1243706857 2.232221744 
2.3334263672 2.426721652 2.5115728246 1.4671972081 1.3575464161 1.24411054 1.1296873865 1.0172219679 0.90937090954 
0.80816628637 0.71487100155 0.63001982895 2.6824132222 2.7864913217 2.8992382033 3.0186096618 3.1415926536 3.0186096618 
2.8992382033 2.7864913217 2.6824132222 0.45917943135 0.35510133185 0.2423544503 0.12298299178 0 0.12298299178 
0.2423544503 0.35510133185 0.45917943135 0.22715816343 0.49462574053 0.3129712797 0.77059342779 0.68021497688 0.49462574053 
1.0172219679 1.0172219679 1.0172219679 1.0172219679 1.2156949949 1.271087727 1.3676273807 1.5707963268 2.1243706857 
1.3676273807 1.447813335 1.5707963268 1.7739652728 2.1243706857 2.6469669131 1.4827341049 1.5707963268 1.6937793186 
1.8705049266 2.1243706857 2.4613776767 2.8286213739 1.5707963268 1.6588585487 1.7739652728 1.9258976586 2.1243706857 
2.3709992258 2.6469669131 2.9144344902 0.26576171152 0.33975332011 0.45685295248 0.40226393329 0.51573716537 0.6552068806 
0.45538277901 0.56421707518 0.69407236469 0.84594095064 0.50083690068 0.60464862014 0.72561863695 0.86392567495 1.0172219679 
0.54002084522 0.63877777351 0.75168694275 0.87851444325 1.0172219679 1.1636342747 0.57404952988 0.66790778838 0.77356233629 
0.89058134991 1.0172219679 1.1502619915 1.2852923014 0.60381225391 0.69302191562 0.79216440667 0.90072551443 1.0172219679 
1.139116835 1.2630228569 1.3852070904 0.71487100155 0.80816628637 0.80816628637 0.90937090954 0.90937090954 0.90937090954 
1.0172219679 1.0172219679 1.0172219679 1.0172219679 1.1296873865 1.1296873865 1.1296873865 1.1296873865 1.1296873865 
1.24411054 1.24411054 1.24411054 1.24411054 1.24411054 1.24411054 1.3575464161 1.3575464161 1.3575464161 
1.3575464161 1.3575464161 1.3575464161 1.3575464161 1.4671972081 1.4671972081 1.4671972081 1.4671972081 1.4671972081 
1.4671972081 1.4671972081 1.4671972081 1.6743954455 1.6743954455 1.7840462375 1.6743954455 1.7840462375 1.8974821136 
1.6743954455 1.7840462375 1.8974821136 2.0119052671 1.6743954455 1.7840462375 1.8974821136 2.0119052671 2.1243706857 
1.6743954455 1.7840462375 1.8974821136 2.0119052671 2.1243706857 2.232221744 1.6743954455 1.7840462375 1.8974821136 
2.0119052671 2.1243706857 2.232221744 2.3334263672 1.6743954455 1.7840462375 1.8974821136 2.0119052671 2.1243706857 
2.232221744 2.3334263672 2.426721652 1.7563855631 1.8785697967 1.8563003522 2.0024758186 1.9913306621 1.9779583789 
2.1243706857 2.1243706857 2.1243706857 2.1243706857 2.2408671392 2.2510113037 2.2630782103 2.2776669786 2.295651703 
2.3494282469 2.3680303173 2.3899057108 2.4159740166 2.4475202889 2.486385773 2.448570738 2.4736848652 2.5028148801 
2.5369440334 2.5773755784 2.6258554882 2.6847397011 2.5377803997 2.5675431237 2.6015718084 2.6407557529 2.6862098746 
2.7393287203 2.8018393335 2.8758309421 2.718901062 2.8307207459 2.7598010554 2.95115522 2.8800620952 2.8058000847 
3.0774230472 3.00855263 2.9351694502 2.8576792927 3.0774230472 3.1415926536 3.0719036933 2.9967168029 2.91630358 
2.95115522 3.00855263 3.0719036933 3.1415926536 3.0653475414 2.9825888767 2.8307207459 2.8800620952 2.9351694502 
2.9967168029 3.0653475414 3.1415926536 3.0574329311 2.718901062 2.7598010554 2.8058000847 2.8576792927 2.91630358 
2.9825888767 3.0574329311 3.1415926536 2.718901062 2.7598010554 2.8307207459 2.8058000847 2.8800620952 2.95115522 
2.8576792927 2.9351694502 3.00855263 3.0774230472 2.91630358 2.9967168029 3.0719036933 3.1415926536 3.0774230472 
2.9825888767 3.0653475414 3.1415926536 3.0719036933 3.00855263 2.95115522 3.0574329311 3.1415926536 3.0653475414 