# vtk DataFile Version 5.1
vtk output
ASCII
DATASET POLYDATA
POINTS 1002 float
-12.7327 -0.0858812 -2.10047 12.035 0.274168 -4.20824 -10.8918 1.44364 3.71438 
10.1994 -0.707383 4.28092 1.35117 6.92295 -3.13338 -0.6931 6.98808 2.91396 
-0.812739 -1.15602 -0.406345 0.704998 -2.49397 2.50423 19.3679 3.33456 -0.321796 
-17.8208 1.82294 -0.361049 19.8402 -8.14831 -1.60351 -20.1402 -8.58242 -0.236356 
-10.9246 0.613188 -1.83154 -8.51844 1.26805 -1.83938 -5.71945 1.77053 -2.00499 
-2.61146 1.9392 -2.33534 0.904795 1.66331 -3.07024 4.49255 1.15973 -4.12375 
7.3582 0.8085 -4.85378 9.2449 0.681257 -4.87312 10.6521 0.550446 -4.50242 
-11.9093 0.711015 -1.93019 -10.8348 1.59721 -1.8446 -9.46144 2.53952 -1.83969 
-7.90687 3.45244 -1.88927 -6.36292 4.23222 -1.99606 -4.79721 4.84781 -2.17989 
-3.04935 5.37372 -2.43447 -1.24427 5.89784 -2.72341 0.27443 6.43113 -2.98256 
-12.4458 -0.395191 -2.0549 -11.933 -0.684004 -2.00627 -11.1715 -0.915113 -1.88018 
-10.1543 -1.01004 -1.63848 -8.86153 -0.981374 -1.38988 -7.33739 -0.97173 -1.24322 
-5.73426 -1.03317 -1.10802 -4.1538 -1.06571 -0.85688 -2.54079 -1.05739 -0.562447 
-13.6384 -0.30614 -2.48201 -14.3257 -0.437814 -2.99526 -15.0346 -0.387468 -3.43117 
-16.0084 -0.129608 -3.51176 -17.1219 0.252022 -3.14134 -17.9646 0.630688 -2.52178 
-18.3433 0.947584 -1.91077 -18.3809 1.23037 -1.37557 -18.2007 1.51987 -0.864884 
-14.0329 -1.0627 -2.61572 -15.1885 -2.20923 -3.30036 -16.2458 -3.50195 -3.85284 
-17.3126 -4.82717 -4.00425 -18.4641 -6.02008 -3.789 -19.5636 -7.01594 -3.38198 
-20.2758 -7.852 -2.79419 -20.4415 -8.48195 -1.98708 -20.2872 -8.75232 -1.07467 
11.5664 1.02372 -4.40748 11.0347 1.75719 -4.60581 10.3139 2.45756 -4.74678 
9.2913 3.22244 -4.72274 8.00091 4.08072 -4.50119 6.56653 4.90829 -4.21277 
5.09924 5.61574 -3.99548 3.70813 6.20697 -3.8135 2.4683 6.65598 -3.54145 
11.577 -0.243695 -4.10371 10.9963 -0.706078 -3.94139 10.2196 -1.03332 -3.72596 
9.17898 -1.22594 -3.45964 7.841 -1.3293 -3.05875 6.21579 -1.33165 -2.44725 
4.39391 -1.22445 -1.74195 2.53706 -1.10209 -1.1462 0.781597 -1.07324 -0.720865 
13.2288 0.371853 -4.20025 14.4488 0.513746 -4.22504 15.4994 0.801549 -4.07793 
16.3586 1.20309 -3.67292 17.1725 1.57145 -3.19074 17.984 1.87756 -2.77702 
18.7004 2.23122 -2.31975 19.2339 2.65845 -1.70195 19.4875 3.05684 -0.992368 
13.2875 -0.437354 -4.00884 14.538 -1.15415 -3.77995 15.3673 -1.77763 -3.24809 
15.7261 -2.43537 -2.33899 16.189 -3.32915 -1.51919 17.1897 -4.40137 -1.33666 
18.3968 -5.45428 -1.68879 19.2792 -6.44677 -2.01172 19.7152 -7.38392 -1.96706 
-9.24229 1.843 4.13789 -7.15632 2.03682 4.36589 -4.65926 1.9899 4.35666 
-1.98598 1.77096 4.2294 0.656286 1.44158 4.14823 3.10205 1.03327 4.21813 
5.17501 0.598562 4.41321 6.91874 0.165587 4.556 8.56818 -0.276372 4.49765 
-10.1202 2.11806 3.88631 -9.21219 2.84883 4.02106 -8.16257 3.53988 4.0788 
-6.95952 4.10546 4.00668 -5.72343 4.60962 3.88045 -4.6875 5.23013 3.87434 
-3.87907 5.97787 3.96547 -3.03471 6.61731 3.89819 -1.95014 6.94668 3.51588 
-10.586 1.10342 3.80401 -10.0775 0.757906 3.86294 -9.35106 0.392849 3.88713 
-8.41472 0.0272564 3.85517 -7.21168 -0.304531 3.69138 -5.65924 -0.603828 3.3466 
-3.85861 -0.920681 2.9396 -2.10257 -1.32882 2.66768 -0.593482 -1.8676 2.56864 
-11.9585 1.35206 3.33083 -13.1042 1.26344 2.92947 -14.3565 1.22577 2.55636 
-15.593 1.23633 2.21683 -16.6425 1.28693 1.88232 -17.4543 1.38981 1.50496 
-18.008 1.49886 1.04485 -18.2181 1.55635 0.522818 -18.0987 1.62564 0.0270625 
-12.2998 0.706997 3.2489 -13.8846 -0.0965999 2.7479 -15.6732 -0.928838 2.35619 
-17.5295 -1.87473 2.10492 -19.2356 -3.05035 1.87993 -20.579 -4.44686 1.6099 
-21.3005 -5.92044 1.29998 -21.2707 -7.24289 0.901758 -20.7402 -8.17006 0.369059 
9.56051 0.192622 4.29952 8.81822 1.16149 4.25483 7.93888 2.09454 4.16286 
6.95515 2.96202 3.99245 5.93492 3.78893 3.6938 4.85443 4.53776 3.31452 
3.60216 5.1712 3.00852 2.16001 5.76258 2.87753 0.670681 6.38335 2.88126 
9.79099 -1.27389 4.32835 9.32078 -1.78685 4.26395 8.76683 -2.23014 4.11905 
8.052 -2.61395 3.97803 7.12576 -2.94774 3.87264 6.06409 -3.18645 3.7311 
4.95044 -3.23606 3.47481 3.71799 -3.06333 3.12202 2.27866 -2.76506 2.76973 
11.4407 -0.55372 4.04377 12.6326 -0.261207 3.82041 13.6374 0.209471 3.69859 
14.5186 0.796809 3.59531 15.5229 1.37112 3.25151 16.7537 1.87412 2.56958 
18.0012 2.34255 1.76017 18.9507 2.78127 1.01894 19.4116 3.12642 0.340323 
11.6274 -1.49304 4.06285 13.1352 -2.28461 3.79304 14.6496 -3.09584 3.41481 
16.2239 -3.99263 2.84848 17.8937 -4.97455 2.14615 19.385 -5.94566 1.4408 
20.2561 -6.81444 0.738201 20.41 -7.51676 -0.042485 20.1639 -7.97796 -0.871465 
1.19234 7.28102 -2.83818 0.915454 7.56951 -2.35252 0.469464 7.82314 -1.60159 
-0.0716237 8.06906 -0.669983 -0.5119 8.23962 0.231907 -0.718111 8.22421 0.968933 
-0.741103 8.00693 1.55749 -0.70826 7.67461 2.05835 -0.690201 7.31953 2.5061 
2.80681 7.22323 -3.33473 4.28381 7.31163 -3.18839 6.20573 7.09176 -2.88216 
8.58367 6.66127 -2.69047 10.8596 6.1182 -2.57663 12.7596 5.44218 -2.28332 
14.636 4.71772 -1.77912 16.6204 4.13985 -1.2423 18.3079 3.73081 -0.763079 
-0.56113 6.79068 -2.46951 -3.04366 6.70162 -1.68571 -5.87497 6.73459 -1.13496 
-8.69658 6.72968 -0.892034 -11.2694 6.43452 -0.656238 -13.4058 5.78456 -0.3005 
-14.9385 4.86596 -0.0846569 -15.9835 3.78535 -0.15098 -16.881 2.70953 -0.312223 
1.55527 6.4721 2.18382 3.8718 6.00368 1.61786 5.89037 5.93213 1.53919 
7.7649 6.07174 1.70638 9.93279 5.8345 1.59157 12.3889 5.11885 1.14476 
14.7421 4.4258 0.704275 16.7481 4.03042 0.374882 18.3189 3.73897 0.0415796 
-2.68103 7.44638 3.20924 -4.40543 7.45756 3.10167 -5.9883 7.06702 2.64718 
-7.82838 6.65934 2.24328 -9.97433 6.35373 2.08882 -11.9902 5.77027 1.90748 
-13.6506 4.73478 1.4418 -15.1495 3.58775 0.792523 -16.5902 2.62731 0.164183 
-0.575733 -1.39991 -0.215959 -0.204646 -1.74625 -0.081437 0.25224 -2.17217 -0.0151373 
0.660131 -2.57179 0.0837042 0.864026 -2.85081 0.367717 0.81472 -3.00203 0.863088 
0.629255 -3.04014 1.43098 0.499093 -2.95199 1.91867 0.533411 -2.75018 2.2693 
2.21043 -1.56345 -0.744263 5.67215 -2.60267 -1.46784 9.05516 -4.05156 -2.23717 
11.8285 -5.38544 -2.60144 13.95 -6.38445 -2.54898 15.743 -7.31375 -2.46648 
17.3101 -8.24052 -2.49934 18.4974 -8.78387 -2.43333 19.2847 -8.69588 -2.11517 
-3.46456 -1.33546 -0.272932 -6.10551 -1.85901 -0.359266 -8.63217 -2.65163 -0.59409 
-11.0139 -3.65927 -0.915582 -13.28 -4.81539 -1.22977 -15.3596 -5.94962 -1.352 
-17.0288 -6.92218 -1.18954 -18.2271 -7.71883 -0.855302 -19.1943 -8.30395 -0.50775 
3.02282 -3.40536 2.47864 5.69551 -4.42985 2.18564 8.82928 -5.341 1.54554 
11.9846 -6.19243 0.853506 14.4044 -7.25962 0.444842 15.9579 -8.5106 0.173783 
17.1972 -9.4499 -0.295883 18.3999 -9.64192 -0.910414 19.3398 -9.10054 -1.38355 
-1.87492 -2.04216 2.41327 -4.76003 -2.08102 2.44032 -7.57469 -2.60188 2.41853 
-10.1184 -3.25807 2.09859 -12.5848 -3.85467 1.51878 -15.053 -4.63252 1.01632 
-17.1407 -5.76033 0.767942 -18.5477 -6.98301 0.605736 -19.4421 -7.9647 0.295263 
20.079 2.60946 -0.233571 20.3331 1.55758 -0.00503728 20.3815 0.307548 0.320817 
20.6261 -0.95339 0.489184 21.0917 -2.17553 0.300222 21.3388 -3.38514 -0.106457 
21.1266 -4.57294 -0.499128 20.6939 -5.76728 -0.866729 20.2779 -6.99482 -1.25942 
-19.0713 0.831422 -0.591178 -20.1442 -0.300599 -0.808214 -20.8903 -1.63608 -1.1782 
-21.5129 -3.18705 -1.73493 -22.2717 -4.88783 -2.21822 -22.9143 -6.54522 -2.29146 
-22.9162 -7.85464 -1.88411 -22.2086 -8.59699 -1.2247 -21.174 -8.78507 -0.616378 
-9.81101 1.40529 -1.8192 -8.36951 2.23427 -1.93137 -7.10845 1.99682 -1.96378 
-6.6487 3.0515 -2.13162 -5.35387 2.68702 -2.23242 -4.04254 2.34555 -2.25177 
-4.87873 3.78198 -2.39276 -3.41696 3.33091 -2.62614 -2.0794 2.85816 -2.69593 
-0.657218 2.29781 -2.81945 -3.18688 4.38189 -2.72902 -1.54867 3.92434 -3.11778 
-0.097249 3.39142 -3.27885 1.37025 2.69415 -3.45698 2.98847 1.90191 -3.79905 
-1.47593 4.91626 -3.09851 0.189325 4.48125 -3.6184 1.69254 3.96924 -3.86001 
3.15885 3.2286 -4.03552 4.76697 2.33693 -4.37364 6.27423 1.50415 -4.73586 
0.202774 5.48762 -3.38994 1.76371 5.05553 -3.94109 3.23218 4.55623 -4.23466 
4.62873 3.83804 -4.39016 6.11365 2.93136 -4.62783 7.54177 2.06698 -4.91526 
8.59615 1.3394 -5.02739 1.56109 6.09652 -3.53646 2.96768 5.65512 -3.97965 
4.39678 5.11923 -4.2555 5.78461 4.41629 -4.44171 7.17083 3.53843 -4.64446 
8.48281 2.67042 -4.83154 9.50293 1.93629 -4.88168 10.1727 1.25293 -4.75123 
-12.8848 0.606722 -2.18556 -13.6632 0.581057 -2.53085 -11.8901 1.63039 -1.91687 
-14.4783 0.699401 -2.78264 -12.7585 1.68863 -2.04229 -10.5903 2.71451 -1.72331 
-15.516 1.02396 -2.73919 -13.6064 1.83573 -2.1424 -11.4979 2.85093 -1.69971 
-9.11799 3.76248 -1.6354 -16.5737 1.53064 -2.38049 -14.582 2.22048 -2.08424 
-12.2907 3.04884 -1.77485 -10.0426 4.02234 -1.55912 -7.62983 4.66704 -1.63667 
-17.2628 2.04679 -1.86744 -15.5307 2.83438 -1.78478 -13.1835 3.49694 -1.74449 
-10.7978 4.33483 -1.63333 -8.55074 5.07798 -1.48708 -5.99118 5.36839 -1.70544 
-17.4599 2.39607 -1.33551 -16.1381 3.39678 -1.28475 -14.1274 4.12598 -1.39179 
-11.6965 4.82037 -1.53247 -9.31568 5.49484 -1.45654 -6.861 5.85544 -1.41963 
-4.06849 5.9 -1.87825 -17.2881 2.57698 -0.815703 -16.2619 3.68986 -0.704265 
-14.7903 4.62884 -0.761375 -12.7019 5.37492 -1.0357 -10.259 5.96555 -1.22088 
-7.68037 6.2883 -1.22869 -4.91708 6.34564 -1.4726 -2.13133 6.35433 -2.16763 
-15.6368 3.61446 0.31833 -14.2177 4.69359 0.981713 -14.7493 4.77411 0.50057 
-12.601 5.80696 1.49707 -13.2577 5.87012 1.04703 -13.6464 5.91013 0.452213 
-10.6508 6.58832 1.75235 -11.3898 6.81514 1.3535 -11.9724 6.92738 0.819931 
-11.9555 6.79369 0.0976496 -8.48745 7.00048 1.93307 -9.2152 7.39913 1.54178 
-9.8869 7.68125 1.03722 -10.0753 7.61029 0.382073 -9.56388 7.21412 -0.329218 
-6.49098 7.40934 2.30493 -7.06563 7.81924 1.86764 -7.6488 8.16872 1.30811 
-7.89009 8.16107 0.619512 -7.48324 7.73796 -0.116182 -6.64779 7.18614 -0.731746 
-4.70933 7.82079 2.72754 -5.06181 8.19158 2.25619 -5.44495 8.50169 1.65067 
-5.61603 8.51956 0.89065 -5.25376 8.12145 0.0334276 -4.42643 7.53675 -0.752682 
[...]
POINT_DATA 1002
FIELD FieldData 4
_paraPhi 1 1002 double
6.2831853072 3.1415926536 6.2831853072 3.1415926536 4.7123889804 4.7123889804 1.5707963268 1.5707963268 3.6951670125 
5.7296109483 2.5880182947 0.5535743589 6.2831853072 6.2831853072 6.2831853072 6.2831853072 3.1415926536 3.1415926536 
3.1415926536 3.1415926536 3.1415926536 6.1053039672 5.898798347 5.6768734901 5.4599499503 5.2659633393 5.1032165617 
4.9713148346 4.8656852733 4.7809517865 0.17788134 0.38438696014 0.60631181711 0.82323535693 1.0172219679 1.1799687454 
1.3118704726 1.4175000338 1.5022335207 6.1892828907 6.1070320098 6.035312792 5.9728339911 5.9183214791 5.8706119594 
5.8286879411 5.7916808611 5.7588591896 0.093902416448 0.17615329733 0.2478725152 0.31035131605 0.36486382811 0.41257334776 
0.45449736604 0.4915044461 0.52432611754 3.3194739936 3.5259796137 3.7479044707 3.9648280105 4.1588146215 4.321561399 
4.4534631262 4.5590926874 4.6438261743 2.9637113136 2.7572056934 2.5352808365 2.3183572967 2.1243706857 1.9616239082 
1.829722181 1.7240926197 1.6393591329 3.23549507 3.3177459509 3.3894651688 3.4519439696 3.5064564817 3.5541660013 
3.5960900196 3.6330970997 3.6659187711 3.0476902371 2.9654393563 2.8937201384 2.8312413375 2.7767288255 2.7290193058 
2.6870952876 2.6500882075 2.617266536 6.2831853072 6.2831853072 6.2831853072 6.2831853072 3.1415926536 3.1415926536 
3.1415926536 3.1415926536 3.1415926536 6.1053039672 5.898798347 5.6768734901 5.4599499503 5.2659633393 5.1032165617 
4.9713148346 4.8656852733 4.7809517865 0.17788134 0.38438696014 0.60631181711 0.82323535693 1.0172219679 1.1799687454 
1.3118704726 1.4175000338 1.5022335207 6.1892828907 6.1070320098 6.035312792 5.9728339911 5.9183214791 5.8706119594 
5.8286879411 5.7916808611 5.7588591896 0.093902416448 0.17615329733 0.2478725152 0.31035131605 0.36486382811 0.41257334776 
0.45449736604 0.4915044461 0.52432611754 3.3194739936 3.5259796137 3.7479044707 3.9648280105 4.1588146215 4.321561399 
4.4534631262 4.5590926874 4.6438261743 2.9637113136 2.7572056934 2.5352808365 2.3183572967 2.1243706857 1.9616239082 
1.829722181 1.7240926197 1.6393591329 3.23549507 3.3177459509 3.3894651688 3.4519439696 3.5064564817 3.5541660013 
3.5960900196 3.6330970997 3.6659187711 3.0476902371 2.9654393563 2.8937201384 2.8312413375 2.7767288255 2.7290193058 
2.6870952876 2.6500882075 2.617266536 4.7123889804 4.7123889804 4.7123889804 4.7123889804 4.7123889804 4.7123889804 
4.7123889804 4.7123889804 4.7123889804 4.6087898617 4.4991390697 4.3857031936 4.2712800401 4.1588146215 4.0509635631 
3.94975894 3.8564636551 3.7716124825 4.8159880991 4.9256388911 5.0390747672 5.1534979207 5.2659633393 5.3738143976 
5.4750190208 5.5683143056 5.6531654782 4.6087898617 4.4991390697 4.3857031936 4.2712800401 4.1588146215 4.0509635631 
3.94975894 3.8564636551 3.7716124825 4.8159880991 4.9256388911 5.0390747672 5.1534979207 5.2659633393 5.3738143976 
5.4750190208 5.5683143056 5.6531654782 1.5707963268 1.5707963268 1.5707963268 1.5707963268 1.5707963268 1.5707963268 
1.5707963268 1.5707963268 1.5707963268 1.6743954455 1.7840462375 1.8974821136 2.0119052671 2.1243706857 2.232221744 
2.3334263672 2.426721652 2.5115728246 1.4671972081 1.3575464161 1.24411054 1.1296873865 1.0172219679 0.90937090954 
0.80816628637 0.71487100155 0.63001982895 1.6743954455 1.7840462375 1.8974821136 2.0119052671 2.1243706857 2.232221744 
2.3334263672 2.426721652 2.5115728246 1.4671972081 1.3575464161 1.24411054 1.1296873865 1.0172219679 0.90937090954 
0.80816628637 0.71487100155 0.63001982895 3.6007720849 3.4966939854 3.3839471039 3.2645756454 3.1415926536 3.0186096618 
2.8992382033 2.7864913217 2.6824132222 5.8240058758 5.9280839753 6.0408308569 6.1602023154 6.2831853072 0.12298299178 
0.2423544503 0.35510133185 0.45917943135 6.0560271438 5.7885595667 5.9702140275 5.5125918794 5.6029703303 5.7885595667 
5.2659633393 5.2659633393 5.2659633393 5.2659633393 5.0674903122 5.0120975802 4.9155579264 4.7123889804 4.1588146215 
4.9155579264 4.8353719722 4.7123889804 4.5092200343 4.1588146215 3.6362183941 4.8004512023 4.7123889804 4.5894059886 
4.4126803806 4.1588146215 3.8218076305 3.4545639333 4.7123889804 4.6243267584 4.5092200343 4.3572876485 4.1588146215 
3.9121860814 3.6362183941 3.368750817 6.0174235957 5.9434319871 5.8263323547 5.8809213739 5.7674481418 5.6279784266 
5.8278025282 5.718968232 5.5891129425 5.4372443565 5.7823484065 5.678536687 5.5575666702 5.4192596322 5.2659633393 
5.743164462 5.6444075337 5.5314983644 5.4046708639 5.2659633393 5.1195510325 5.7091357773 5.6152775188 5.5096229709 
5.3926039573 5.2659633393 5.1329233157 4.9978930058 5.6793730533 5.5901633916 5.4910209005 5.3824597928 5.2659633393 
5.1440684722 5.0201624502 4.8979782167 5.5683143056 5.4750190208 5.4750190208 5.3738143976 5.3738143976 5.3738143976 
5.2659633393 5.2659633393 5.2659633393 5.2659633393 5.1534979207 5.1534979207 5.1534979207 5.1534979207 5.1534979207 
5.0390747672 5.0390747672 5.0390747672 5.0390747672 5.0390747672 5.0390747672 4.9256388911 4.9256388911 4.9256388911 
4.9256388911 4.9256388911 4.9256388911 4.9256388911 4.8159880991 4.8159880991 4.8159880991 4.8159880991 4.8159880991 
4.8159880991 4.8159880991 4.8159880991 4.6087898617 4.6087898617 4.4991390697 4.6087898617 4.4991390697 4.3857031936 
4.6087898617 4.4991390697 4.3857031936 4.2712800401 4.6087898617 4.4991390697 4.3857031936 4.2712800401 4.1588146215 
4.6087898617 4.4991390697 4.3857031936 4.2712800401 4.1588146215 4.0509635631 4.6087898617 4.4991390697 4.3857031936 
4.2712800401 4.1588146215 4.0509635631 3.94975894 4.6087898617 4.4991390697 4.3857031936 4.2712800401 4.1588146215 
4.0509635631 3.94975894 3.8564636551 4.526799744 4.4046155105 4.426884955 4.2807094886 4.2918546451 4.3052269283 
4.1588146215 4.1588146215 4.1588146215 4.1588146215 4.042318168 4.0321740035 4.0201070968 4.0055183285 3.9875336042 
3.9337570603 3.9151549899 3.8932795963 3.8672112905 3.8356650183 3.7967995342 3.8346145692 3.809500442 3.7803704271 
3.7462412737 3.7058097288 3.657329819 3.5984456061 3.7454049075 3.7156421835 3.6816134988 3.6424295543 3.5969754326 
3.5438565869 3.4813459737 3.4073543651 3.5642842451 3.4524645613 3.5233842518 3.3320300872 3.403123212 3.4773852225 
3.20576226 3.2746326772 3.348015857 3.4255060145 3.0774230472 3.1415926536 3.2112816139 3.2864685043 3.3668817272 
2.95115522 3.00855263 3.0719036933 3.1415926536 3.2178377658 3.3005964304 2.8307207459 2.8800620952 2.9351694502 
2.9967168029 3.0653475414 3.1415926536 3.225752376 2.718901062 2.7598010554 2.8058000847 2.8576792927 2.91630358 
2.9825888767 3.0574329311 3.1415926536 3.5642842451 3.5233842518 3.4524645613 3.4773852225 3.403123212 3.3320300872 
3.4255060145 3.348015857 3.2746326772 3.20576226 3.3668817272 3.2864685043 3.2112816139 3.1415926536 3.0774230472 
3.3005964304 3.2178377658 3.1415926536 3.0719036933 3.00855263 2.95115522 3.225752376 3.1415926536 3.0653475414 
2.9967168029 2.9351694502 2.8800620952 2.8307207459 3.1415926536 3.0574329311 2.9825888767 2.91630358 2.8576792927 
2.8058000847 2.7598010554 2.718901062 4.526799744 4.426884955 4.4046155105 4.3052269283 4.2918546451 4.2807094886 
4.1588146215 4.1588146215 4.1588146215 4.1588146215 3.9875336042 4.0055183285 4.0201070968 4.0321740035 4.042318168 
3.7967995342 3.8356650183 3.8672112905 3.8932795963 3.9151549899 3.9337570603 3.5984456061 3.657329819 3.7058097288 
3.7462412737 3.7803704271 3.809500442 3.8346145692 3.4073543651 3.4813459737 3.5438565869 3.5969754326 3.6424295543 
3.6816134988 3.7156421835 3.7454049075 4.7123889804 4.8004512023 4.6243267584 4.9155579264 4.7123889804 4.5092200343 
5.0674903122 4.8353719722 4.5894059886 4.3572876485 5.2659633393 5.0120975802 4.7123889804 4.4126803806 4.1588146215 
5.5125918794 5.2659633393 4.9155579264 4.5092200343 4.1588146215 3.9121860814 5.7885595667 5.6029703303 5.2659633393 
4.7123889804 4.1588146215 3.8218076305 3.6362183941 6.0560271438 5.9702140275 5.7885595667 5.2659633393 4.1588146215 
3.6362183941 3.4545639333 3.368750817 0.22715816343 0.49462574053 0.3129712797 0.77059342779 0.68021497688 0.49462574053 
1.0172219679 1.0172219679 1.0172219679 1.0172219679 1.2156949949 1.271087727 1.3676273807 1.5707963268 2.1243706857 
1.3676273807 1.447813335 1.5707963268 1.7739652728 2.1243706857 2.6469669131 1.4827341049 1.5707963268 1.6937793186 
1.8705049266 2.1243706857 2.4613776767 2.8286213739 1.5707963268 1.6588585487 1.7739652728 1.9258976586 2.1243706857 
2.3709992258 2.6469669131 2.9144344902 1.7563855631 1.8785697967 1.8563003522 2.0024758186 1.9913306621 1.9779583789 
2.1243706857 2.1243706857 2.1243706857 2.1243706857 2.2408671392 2.2510113037 2.2630782103 2.2776669786 2.295651703 
2.3494282469 2.3680303173 2.3899057108 2.4159740166 2.4475202889 2.486385773 2.448570738 2.4736848652 2.5028148801 
2.5369440334 2.5773755784 2.6258554882 2.6847397011 2.5377803997 2.5675431237 2.6015718084 2.6407557529 2.6862098746 
2.7393287203 2.8018393335 2.8758309421 1.6743954455 1.6743954455 1.7840462375 1.6743954455 1.7840462375 1.8974821136 
1.6743954455 1.7840462375 1.8974821136 2.0119052671 1.6743954455 1.7840462375 1.8974821136 2.0119052671 2.1243706857 
1.6743954455 1.7840462375 1.8974821136 2.0119052671 2.1243706857 2.232221744 1.6743954455 1.7840462375 1.8974821136 
2.0119052671 2.1243706857 2.232221744 2.3334263672 1.6743954455 1.7840462375 1.8974821136 2.0119052671 2.1243706857 
2.232221744 2.3334263672 2.426721652 1.4671972081 1.3575464161 1.4671972081 1.24411054 1.3575464161 1.4671972081 
1.1296873865 1.24411054 1.3575464161 1.4671972081 1.0172219679 1.1296873865 1.24411054 1.3575464161 1.4671972081 
0.90937090954 1.0172219679 1.1296873865 1.24411054 1.3575464161 1.4671972081 0.80816628637 0.90937090954 1.0172219679 
1.1296873865 1.24411054 1.3575464161 1.4671972081 0.71487100155 0.80816628637 0.90937090954 1.0172219679 1.1296873865 
1.24411054 1.3575464161 1.4671972081 0.60381225391 0.57404952988 0.69302191562 0.54002084522 0.66790778838 0.79216440667 
0.50083690068 0.63877777351 0.77356233629 0.90072551443 0.45538277901 0.60464862014 0.75168694275 0.89058134991 1.0172219679 
0.40226393329 0.56421707518 0.72561863695 0.87851444325 1.0172219679 1.139116835 0.33975332011 0.51573716537 0.69407236469 
0.86392567495 1.0172219679 1.1502619915 1.2630228569 0.26576171152 0.45685295248 0.6552068806 0.84594095064 1.0172219679 
1.1636342747 1.2852923014 1.3852070904 0.22715816343 0.3129712797 0.49462574053 0.49462574053 0.68021497688 0.77059342779 
1.0172219679 1.0172219679 1.0172219679 1.0172219679 2.1243706857 1.5707963268 1.3676273807 1.271087727 1.2156949949 
2.6469669131 2.1243706857 1.7739652728 1.5707963268 1.447813335 1.3676273807 2.8286213739 2.4613776767 2.1243706857 
1.8705049266 1.6937793186 1.5707963268 1.4827341049 2.9144344902 2.6469669131 2.3709992258 2.1243706857 1.9258976586 
1.7739652728 1.6588585487 1.5707963268 1.7563855631 1.8563003522 1.8785697967 1.9779583789 1.9913306621 2.0024758186 
2.1243706857 2.1243706857 2.1243706857 2.1243706857 2.295651703 2.2776669786 2.2630782103 2.2510113037 2.2408671392 
2.486385773 2.4475202889 2.4159740166 2.3899057108 2.3680303173 2.3494282469 2.6847397011 2.6258554882 2.5773755784 
2.5369440334 2.5028148801 2.4736848652 2.448570738 2.8758309421 2.8018393335 2.7393287203 2.6862098746 2.6407557529 
2.6015718084 2.5675431237 2.5377803997 5.8604937156 5.901393709 5.9723133995 5.9473927383 6.0216547488 6.0927478736 
5.9992719463 6.0767621038 6.1501452836 6.2190157008 6.0578962336 6.1383094565 6.2134963469 0 0.064169606361 
6.1241815303 6.206940195 6.2831853072 0.069688960264 0.13304002361 0.19043743361 6.1990255847 0 0.07624511221 
0.14487585072 0.20642320337 0.26153055843 0.3108719077 0 0.084159722458 0.15900377685 0.22528907359 0.28391336087 
0.3357925689 0.38179159818 0.42269159155 5.8604937156 5.9723133995 5.901393709 6.0927478736 6.0216547488 5.9473927383 
6.2190157008 6.1501452836 6.0767621038 5.9992719463 0.064169606361 0 6.2134963469 6.1383094565 6.0578962336 
0.19043743361 0.13304002361 0.069688960264 6.2831853072 6.206940195 6.1241815303 0.3108719077 0.26153055843 0.20642320337 
0.14487585072 0.07624511221 6.2831853072 6.1990255847 0.42269159155 0.38179159818 0.3357925689 0.28391336087 0.22528907359 
0.15900377685 0.084159722458 0 5.6793730533 5.7091357773 5.5901633916 5.743164462 5.6152775188 5.4910209005 
5.7823484065 5.6444075337 5.5096229709 5.3824597928 5.8278025282 5.678536687 5.5314983644 5.3926039573 5.2659633393 
5.8809213739 5.718968232 5.5575666702 5.4046708639 5.2659633393 5.1440684722 5.9434319871 5.7674481418 5.5891129425 
5.4192596322 5.2659633393 5.1329233157 5.0201624502 6.0174235957 5.8263323547 5.6279784266 5.4372443565 5.2659633393 
5.1195510325 4.9978930058 4.8979782167 1.3852070904 1.2852923014 1.2630228569 1.1636342747 1.1502619915 1.139116835 
1.0172219679 1.0172219679 1.0172219679 1.0172219679 0.84594095064 0.86392567495 0.87851444325 0.89058134991 0.90072551443 
0.6552068806 0.69407236469 0.72561863695 0.75168694275 0.77356233629 0.79216440667 0.45685295248 0.51573716537 0.56421707518 
0.60464862014 0.63877777351 0.66790778838 0.69302191562 0.26576171152 0.33975332011 0.40226393329 0.45538277901 0.50083690068 
0.54002084522 0.57404952988 0.60381225391 
_paraPhiHalf 1 1002 double
0 3.1415926536 0 3.1415926536 1.5707963268 1.5707963268 1.5707963268 1.5707963268 2.5880182947 
0.5535743589 2.5880182947 0.5535743589 0 0 0 0 3.1415926536 3.1415926536 
3.1415926536 3.1415926536 3.1415926536 0.17788134 0.38438696014 0.60631181711 0.82323535693 1.0172219679 1.1799687454 
1.3118704726 1.4175000338 1.5022335207 0.17788134 0.38438696014 0.60631181711 0.82323535693 1.0172219679 1.1799687454 
1.3118704726 1.4175000338 1.5022335207 0.093902416448 0.17615329733 0.2478725152 0.31035131605 0.36486382811 0.41257334776 
0.45449736604 0.4915044461 0.52432611754 0.093902416448 0.17615329733 0.2478725152 0.31035131605 0.36486382811 0.41257334776 
0.45449736604 0.4915044461 0.52432611754 2.9637113136 2.7572056934 2.5352808365 2.3183572967 2.1243706857 1.9616239082 
1.829722181 1.7240926197 1.6393591329 2.9637113136 2.7572056934 2.5352808365 2.3183572967 2.1243706857 1.9616239082 
1.829722181 1.7240926197 1.6393591329 3.0476902371 2.9654393563 2.8937201384 2.8312413375 2.7767288255 2.7290193058 
2.6870952876 2.6500882075 2.617266536 3.0476902371 2.9654393563 2.8937201384 2.8312413375 2.7767288255 2.7290193058 
2.6870952876 2.6500882075 2.617266536 0 0 0 0 3.1415926536 3.1415926536 
3.1415926536 3.1415926536 3.1415926536 0.17788134 0.38438696014 0.60631181711 0.82323535693 1.0172219679 1.1799687454 
1.3118704726 1.4175000338 1.5022335207 0.17788134 0.38438696014 0.60631181711 0.82323535693 1.0172219679 1.1799687454 
1.3118704726 1.4175000338 1.5022335207 0.093902416448 0.17615329733 0.2478725152 0.31035131605 0.36486382811 0.41257334776 
0.45449736604 0.4915044461 0.52432611754 0.093902416448 0.17615329733 0.2478725152 0.31035131605 0.36486382811 0.41257334776 
0.45449736604 0.4915044461 0.52432611754 2.9637113136 2.7572056934 2.5352808365 2.3183572967 2.1243706857 1.9616239082 
1.829722181 1.7240926197 1.6393591329 2.9637113136 2.7572056934 2.5352808365 2.3183572967 2.1243706857 1.9616239082 
1.829722181 1.7240926197 1.6393591329 3.0476902371 2.9654393563 2.8937201384 2.8312413375 2.7767288255 2.7290193058 
2.6870952876 2.6500882075 2.617266536 3.0476902371 2.9654393563 2.8937201384 2.8312413375 2.7767288255 2.7290193058 
2.6870952876 2.6500882075 2.617266536 1.5707963268 1.5707963268 1.5707963268 1.5707963268 1.5707963268 1.5707963268 
1.5707963268 1.5707963268 1.5707963268 1.6743954455 1.7840462375 1.8974821136 2.0119052671 2.1243706857 2.232221744 
2.3334263672 2.426721652 2.5115728246 1.4671972081 1.3575464161 1.24411054 1.1296873865 1.0172219679 0.90937090954 
0.80816628637 0.71487100155 0.63001982895 1.6743954455 1.7840462375 1.8974821136 2.0119052671 2.1243706857 2.232221744 
2.3334263672 2.426721652 2.5115728246 1.4671972081 1.3575464161 1.24411054 1.1296873865 1.0172219679 0.90937090954 
0.80816628637 0.71487100155 0.63001982895 1.5707963268 1.5707963268 1.5707963268 1.5707963268 1.5707963268 1.5707963268 
1.5707963268 1.5707963268 1.5707963268 1.6743954455 1.7840462375 1.8974821136 2.0119052671 2.1243706857 2.232221744 
2.3334263672 2.426721652 2.5115728246 1.4671972081 1.3575464161 1.24411054 1.1296873865 1.0172219679 0.90937090954 
0.80816628637 0.71487100155 0.63001982895 1.6743954455 1.7840462375 1.8974821136 2.0119052671 2.1243706857 2.232221744 
2.3334263672 2.426721652 2.5115728246 1.4671972081 1.3575464161 1.24411054 1.1296873865 1.0172219679 0.90937090954 
0.80816628637 0.71487100155 0.63001982895 2.6824132222 2.7864913217 2.8992382033 3.0186096618 3.1415926536 3.0186096618 
2.8992382033 2.7864913217 2.6824132222 0.45917943135 0.35510133185 0.2423544503 0.12298299178 0 0.12298299178 
0.2423544503 0.35510133185 0.45917943135 0.22715816343 0.49462574053 0.3129712797 0.77059342779 0.68021497688 0.49462574053 
1.0172219679 1.0172219679 1.0172219679 1.0172219679 1.2156949949 1.271087727 1.3676273807 1.5707963268 2.1243706857 
1.3676273807 1.447813335 1.5707963268 1.7739652728 2.1243706857 2.6469669131 1.4827341049 1.5707963268 1.6937793186 
1.8705049266 2.1243706857 2.4613776767 2.8286213739 1.5707963268 1.6588585487 1.7739652728 1.9258976586 2.1243706857 
2.3709992258 2.6469669131 2.9144344902 0.26576171152 0.33975332011 0.45685295248 0.40226393329 0.51573716537 0.6552068806 
0.45538277901 0.56421707518 0.69407236469 0.84594095064 0.50083690068 0.60464862014 0.72561863695 0.86392567495 1.0172219679 
0.54002084522 0.63877777351 0.75168694275 0.87851444325 1.0172219679 1.1636342747 0.57404952988 0.66790778838 0.77356233629 
0.89058134991 1.0172219679 1.1502619915 1.2852923014 0.60381225391 0.69302191562 0.79216440667 0.90072551443 1.0172219679 
1.139116835 1.2630228569 1.3852070904 0.71487100155 0.80816628637 0.80816628637 0.90937090954 0.90937090954 0.90937090954 
1.0172219679 1.0172219679 1.0172219679 1.0172219679 1.1296873865 1.1296873865 1.1296873865 1.1296873865 1.1296873865 
1.24411054 1.24411054 1.24411054 1.24411054 1.24411054 1.24411054 1.3575464161 1.3575464161 1.3575464161 
1.3575464161 1.3575464161 1.3575464161 1.3575464161 1.4671972081 1.4671972081 1.4671972081 1.4671972081 1.4671972081 
1.4671972081 1.4671972081 1.4671972081 1.6743954455 1.6743954455 1.7840462375 1.6743954455 1.7840462375 1.8974821136 
1.6743954455 1.7840462375 1.8974821136 2.0119052671 1.6743954455 1.7840462375 1.8974821136 2.0119052671 2.1243706857 
1.6743954455 1.7840462375 1.8974821136 2.0119052671 2.1243706857 2.232221744 1.6743954455 1.7840462375 1.8974821136 
2.0119052671 2.1243706857 2.232221744 2.3334263672 1.6743954455 1.7840462375 1.8974821136 2.0119052671 2.1243706857 
2.232221744 2.3334263672 2.426721652 1.7563855631 1.8785697967 1.8563003522 2.0024758186 1.9913306621 1.9779583789 
2.1243706857 2.1243706857 2.1243706857 2.1243706857 2.2408671392 2.2510113037 2.2630782103 2.2776669786 2.295651703 
2.3494282469 2.3680303173 2.3899057108 2.4159740166 2.4475202889 2.486385773 2.448570738 2.4736848652 2.5028148801 
2.5369440334 2.5773755784 2.6258554882 2.6847397011 2.5377803997 2.5675431237 2.6015718084 2.6407557529 2.6862098746 
2.7393287203 2.8018393335 2.8758309421 2.718901062 2.8307207459 2.7598010554 2.95115522 2.8800620952 2.8058000847 
3.0774230472 3.00855263 2.9351694502 2.8576792927 3.0774230472 3.1415926536 3.0719036933 2.9967168029 2.91630358 
2.95115522 3.00855263 3.0719036933 3.1415926536 3.0653475414 2.9825888767 2.8307207459 2.8800620952 2.9351694502 
2.9967168029 3.0653475414 3.1415926536 3.0574329311 2.718901062 2.7598010554 2.8058000847 2.8576792927 2.91630358 
2.9825888767 3.0574329311 3.1415926536 2.718901062 2.7598010554 2.8307207459 2.8058000847 2.8800620952 2.95115522 
2.8576792927 2.9351694502 3.00855263 3.0774230472 2.91630358 2.9967168029 3.0719036933 3.1415926536 3.0774230472 
2.9825888767 3.0653475414 3.1415926536 3.0719036933 3.00855263 2.95115522 3.0574329311 3.1415926536 3.0653475414 