# vtk DataFile Version 5.1
vtk output
ASCII
DATASET POLYDATA
POINTS 1002 float
-113.759 -103.512 96.7018 -118.181 -126.504 88.3466 -114.7 -102.571 90.5559 
-115.723 -121.706 81.4666 -122.903 -115.177 91.331 -121.788 -110.947 86.682 
-114.282 -113.756 90.3075 -112.787 -114.236 87.1297 -121.731 -130.951 81.5744 
-114.602 -97.882 97.0954 -110.758 -134.147 83.3346 -104.056 -97.8054 98.6592 
-114.679 -104.891 95.6616 -115.687 -106.924 94.6283 -116.627 -109.403 93.5864 
-117.313 -112.29 92.5892 -117.683 -115.79 91.8211 -117.887 -119.525 91.3284 
-118.085 -122.455 90.8301 -118.25 -124.181 90.0761 -118.283 -125.324 89.1666 
-114.639 -104.026 96.1517 -115.657 -104.782 95.5684 -116.787 -105.827 94.9309 
-117.923 -107.062 94.27 -118.936 -108.336 93.6746 -119.802 -109.692 93.1515 
-120.619 -111.258 92.6234 -121.447 -112.888 92.103 -122.237 -114.248 91.6734 
-113.494 -103.812 96.5631 -113.282 -104.31 96.3268 -113.154 -104.99 95.9132 
-113.181 -105.827 95.2797 -113.37 -106.883 94.5173 -113.59 -108.192 93.7531 
-113.755 -109.59 92.9716 -113.927 -110.916 92.0921 -114.138 -112.246 91.1571 
-113.461 -102.892 97.4379 -113.301 -102.504 98.1972 -113.305 -102.029 98.8827 
-113.421 -101.136 99.3409 -113.572 -99.9149 99.4388 -113.725 -98.8396 99.1987 
-113.889 -98.1964 98.7788 -114.083 -97.8959 98.289 -114.32 -97.7993 97.7309 
-112.68 -102.74 97.7747 -111.482 -102.199 98.9533 -110.136 -101.723 99.9813 
-108.7 -101.087 100.651 -107.327 -100.204 101.014 -106.128 -99.2529 101.168 
-105.117 -98.5471 100.987 -104.36 -98.2048 100.366 -103.988 -98.0372 99.4927 
-118.871 -126.014 88.6696 -119.536 -125.47 89.019 -120.131 -124.74 89.3968 
-120.72 -123.662 89.7451 -121.332 -122.247 90.0185 -121.881 -120.682 90.2928 
-122.319 -119.139 90.6536 -122.659 -117.702 91.023 -122.871 -116.394 91.2579 
-117.59 -126.154 88.4769 -117.026 -125.66 88.6016 -116.557 -124.943 88.7498 
-116.172 -123.942 88.9517 -115.81 -122.603 89.1483 -115.473 -120.904 89.2655 
-115.199 -118.969 89.3713 -114.951 -117.043 89.59 -114.651 -115.294 89.9279 
-118.457 -127.553 87.8388 -118.785 -128.63 87.347 -119.205 -129.458 86.7591 
-119.67 -129.991 86.0083 -120.085 -130.459 85.2085 -120.448 -130.964 84.4762 
-120.837 -131.357 83.7404 -121.247 -131.508 82.9294 -121.574 -131.378 82.1528 
-117.647 -127.69 87.6966 -117.103 -128.864 87.021 -116.543 -129.522 86.2382 
-115.824 -129.616 85.3098 -114.903 -129.885 84.4358 -113.98 -130.923 83.9302 
-113.185 -132.353 83.8232 -112.395 -133.469 83.8199 -111.538 -134.028 83.6636 
-115.281 -103.806 89.4616 -115.755 -105.551 88.3785 -116.09 -107.805 87.3574 
-116.301 -110.298 86.3823 -116.392 -112.767 85.3859 -116.355 -115.016 84.339 
-116.217 -116.885 83.3345 -116.038 -118.48 82.5136 -115.865 -120.071 81.9148 
-115.452 -103.063 90.0341 -116.286 -103.681 89.4859 -117.113 -104.464 88.9517 
-117.859 -105.46 88.4806 -118.558 -106.52 88.0491 -119.323 -107.33 87.5834 
-120.164 -107.872 87.1148 -120.928 -108.53 86.7825 -121.47 -109.59 86.6583 
-114.401 -102.878 90.3715 -114.132 -103.379 90.1315 -113.882 -104.094 89.8343 
-113.671 -105.019 89.5013 -113.554 -106.229 89.1753 -113.546 -107.818 88.8668 
-113.569 -109.657 88.5134 -113.476 -111.421 88.0621 -113.193 -112.921 87.5651 
-114.503 -101.783 91.3516 -114.3 -100.93 92.1959 -114.126 -99.9603 93.0552 
-113.997 -98.9821 93.8741 -113.935 -98.1618 94.6084 -113.967 -97.5614 95.2797 
-114.055 -97.2241 95.9188 -114.154 -97.2298 96.4757 -114.311 -97.5186 96.8716 
-113.832 -101.636 91.6116 -112.877 -100.57 92.7774 -111.848 -99.2827 93.9301 
-110.677 -97.9021 94.9912 -109.3 -96.6914 95.9822 -107.769 -95.8676 96.8793 
-106.262 -95.633 97.5607 -105.031 -96.0777 98.0011 -104.281 -96.9469 98.3293 
-116.503 -120.947 81.6519 -117.344 -120.107 81.9327 -118.136 -119.17 82.3155 
-118.859 -118.183 82.8173 -119.555 -117.221 83.4533 -120.178 -116.253 84.1929 
-120.651 -115.124 84.9449 -121.029 -113.764 85.6195 -121.409 -112.303 86.1893 
-115.1 -121.432 81.6316 -114.536 -121.137 81.9199 -114.039 -120.784 82.3111 
-113.575 -120.274 82.7613 -113.123 -119.55 83.2631 -112.749 -118.7 83.8471 
-112.568 -117.811 84.5438 -112.6 -116.809 85.3619 -112.723 -115.597 86.2565 
-116.096 -122.883 81.158 -116.595 -123.983 80.8476 -117.226 -124.84 80.5101 
-117.949 -125.556 80.1989 -118.713 -126.48 80.0561 -119.49 -127.754 80.1314 
-120.254 -129.1 80.3179 -120.934 -130.158 80.5679 -121.439 -130.771 80.9695 
-115.203 -123.229 81.1282 -114.697 -124.845 80.8041 -114.188 -126.513 80.5771 
-113.632 -128.327 80.502 -113.027 -130.296 80.5166 -112.405 -132.105 80.6072 
-111.789 -133.335 80.9447 -111.238 -133.919 81.6382 -110.868 -134.116 82.5244 
-123.187 -114.848 91.104 -123.357 -114.351 90.7577 -123.43 -113.605 90.243 
-123.454 -112.703 89.604 -123.424 -111.919 88.9556 -123.272 -111.447 88.3729 
-122.972 -111.237 87.863 -122.58 -111.135 87.4177 -122.171 -111.045 87.0282 
-123.447 -116.504 90.8911 -123.737 -117.755 90.1412 -123.771 -119.403 89.0835 
-123.684 -121.547 87.9556 -123.482 -123.652 86.9484 -123.068 -125.376 85.9429 
-122.573 -127.005 84.7591 -122.232 -128.688 83.4909 -122.02 -130.095 82.3861 
-122.388 -113.225 91.5284 -121.811 -110.706 91.8497 -121.333 -107.94 92.5185 
-120.864 -105.313 93.4653 -120.151 -102.969 94.3357 -119.139 -101.039 94.9412 
-117.977 -99.7596 95.4425 -116.771 -99.0611 96.0094 -115.605 -98.5314 96.6012 
-121.73 -113.355 86.4505 -121.706 -115.75 86.0385 -121.954 -117.607 85.28 
-122.351 -119.196 84.3433 -122.466 -121.234 83.5672 -122.204 -123.756 83.0064 
-121.947 -126.179 82.4808 -121.913 -128.188 81.9774 -121.914 -129.786 81.6505 
-121.891 -108.956 87.2045 -121.655 -107.448 88.0146 -121.098 -106.283 89.1088 
-120.477 -104.871 90.2647 -119.874 -103.066 91.3135 -119.023 -101.443 92.3521 
-117.825 -100.34 93.5331 -116.569 -99.477 94.8216 -115.501 -98.6209 96.0541 
-114.053 -113.942 90.0535 -113.751 -114.29 89.8017 -113.394 -114.758 89.582 
-113.052 -115.164 89.3511 -112.769 -115.291 89.0282 -112.542 -115.081 88.6093 
-112.395 -114.698 88.173 -112.392 -114.372 87.778 -112.544 -114.225 87.4316 
-114.392 -116.683 89.392 -114.006 -120.281 88.6888 -113.214 -123.907 88.088 
-112.384 -126.803 87.3636 -111.722 -128.884 86.5075 -111.074 -130.645 85.7551 
-110.411 -132.247 85.2007 -110.051 -133.394 84.6872 -110.211 -133.958 84.0666 
-113.684 -111.358 91.2955 -112.783 -109.125 92.5023 -111.658 -107.106 93.8152 
-110.356 -105.293 95.1616 -108.926 -103.611 96.4639 -107.518 -102.016 97.5132 
-106.29 -100.646 98.1231 -105.281 -99.5961 98.3703 -104.512 -98.7064 98.4951 
-112.252 -116.506 86.2571 -111.699 -119.223 85.4884 -111.376 -122.468 84.8362 
-111.123 -125.742 84.2182 -110.506 -128.285 83.662 -109.558 -130.034 83.3518 
-108.895 -131.517 83.3304 -108.978 -132.876 83.4041 -109.719 -133.8 83.4075 
-112.849 -111.866 88.2482 -112.369 -109.273 89.4196 -111.435 -106.858 90.6394 
-110.452 -104.83 92.0272 -109.577 -102.963 93.6148 -108.513 -101.099 95.1454 
-107.128 -99.545 96.3122 -105.742 -98.5874 97.1257 -104.69 -98.1007 97.8452 
-121.117 -131.698 81.2502 -120.094 -132.044 81.0101 -118.832 -132.206 80.7805 
-117.612 -132.608 80.6135 -116.515 -133.342 80.6767 -115.428 -133.962 81.0272 
-114.291 -134.161 81.5534 -113.11 -134.153 82.1484 -111.903 -134.177 82.7617 
-113.476 -97.0459 97.8899 -112.237 -96.3918 98.6088 -110.87 -96.1315 99.3454 
-109.339 -96.0982 100.215 -107.63 -95.9433 101.085 -105.922 -95.7226 101.532 
-104.582 -95.8189 101.253 -103.869 -96.3409 100.413 -103.756 -97.0671 99.4457 
-115.621 -105.729 95.1352 -116.667 -106.904 94.5836 -116.632 -108.095 94.1078 
-117.757 -108.366 93.9973 -117.612 -109.64 93.5784 -117.48 -110.892 93.0772 
-118.778 -109.913 93.452 -118.593 -111.406 93.0904 -118.344 -112.728 92.6331 
-118.03 -114.164 92.1957 -119.67 -111.446 93.0161 -119.528 -113.16 92.723 
-119.25 -114.632 92.3057 -118.817 -116.157 91.9086 -118.338 -117.901 91.6045 
-120.506 -113.022 92.607 -120.409 -114.807 92.4203 -120.171 -116.353 92.0532 
-119.695 -117.885 91.6572 -119.116 -119.638 91.3605 -118.583 -121.298 91.1234 
-121.362 -114.531 92.1379 -121.256 -116.234 92.0225 -121.033 -117.767 91.7161 
-120.566 -119.224 91.3292 -119.939 -120.829 90.9933 -119.352 -122.395 90.7232 
-118.817 -123.529 90.4391 -122.185 -115.688 91.6671 -122.031 -117.212 91.5182 
-121.764 -118.709 91.2145 -121.314 -120.167 90.858 -120.696 -121.665 90.5293 
-120.073 -123.088 90.2164 -119.518 -124.168 89.8906 -118.933 -124.853 89.5423 
-114.426 -103.272 96.7941 -114.332 -102.714 97.4314 -115.539 -103.857 96.0682 
-114.36 -102.058 97.9889 -115.482 -103.115 96.5372 -116.769 -104.733 95.2801 
-114.513 -101.046 98.3563 -115.511 -102.364 96.9687 -116.761 -103.882 95.6247 
-118.005 -105.813 94.5191 -114.796 -99.8548 98.4331 -115.731 -101.39 97.2928 
-116.845 -103.161 96.0071 -118.108 -104.902 94.8143 -119.117 -106.971 93.8424 
-115.122 -98.9322 98.2168 -116.144 -100.299 97.371 -117.143 -102.259 96.3179 
-118.309 -104.192 95.1725 -119.357 -106.004 94.0591 -120.061 -108.331 93.1787 
-115.358 -98.4767 97.7913 -116.53 -99.4456 97.1295 -117.564 -101.149 96.3447 
-118.633 -103.249 95.4191 -119.644 -105.223 94.319 -120.364 -107.341 93.2454 
-120.899 -110.02 92.5037 -115.486 -98.3904 97.2358 -116.714 -99.048 96.6335 
-117.864 -100.206 96.0119 -118.951 -102.042 95.3457 -119.927 -104.191 94.4627 
-120.636 -106.445 93.3811 -121.147 -109.01 92.4556 -121.679 -111.783 91.9338 
-116.589 -99.2211 95.4518 -117.765 -100.021 94.1882 -117.832 -99.717 94.8393 
-119.025 -101.049 92.9748 -119.052 -100.624 93.6507 -119.117 -100.502 94.3487 
-120.049 -102.545 91.8826 -120.216 -101.994 92.5347 -120.314 -101.659 93.2523 
-120.289 -101.985 93.9103 -120.755 -104.334 90.7953 -121.091 -103.756 91.4241 
-121.337 -103.296 92.1405 -121.333 -103.399 92.8181 -121.125 -104.217 93.2796 
-121.405 -105.899 89.6038 -121.782 -105.475 90.2102 -122.115 -105.103 90.9353 
-122.17 -105.159 91.6607 -121.924 -105.897 92.1895 -121.599 -106.999 92.4409 
-122.018 -107.251 88.4549 -122.395 -107.047 89.003 -122.727 -106.88 89.6898 
-122.827 -107.022 90.4493 -122.616 -107.764 91.1052 -122.283 -108.932 91.517 
[...]
POINT_DATA 1002
FIELD FieldData 4
_paraPhi 1 1002 double
6.2831853072 3.1415926536 6.2831853072 3.1415926536 4.7123889804 4.7123889804 1.5707963268 1.5707963268 3.6951670125 
5.7296109483 2.5880182947 0.5535743589 6.2831853072 6.2831853072 6.2831853072 6.2831853072 3.1415926536 3.1415926536 
3.1415926536 3.1415926536 3.1415926536 6.1053039672 5.898798347 5.6768734901 5.4599499503 5.2659633393 5.1032165617 
4.9713148346 4.8656852733 4.7809517865 0.17788134 0.38438696014 0.60631181711 0.82323535693 1.0172219679 1.1799687454 
1.3118704726 1.4175000338 1.5022335207 6.1892828907 6.1070320098 6.035312792 5.9728339911 5.9183214791 5.8706119594 
5.8286879411 5.7916808611 5.7588591896 0.093902416448 0.17615329733 0.2478725152 0.31035131605 0.36486382811 0.41257334776 
0.45449736604 0.4915044461 0.52432611754 3.3194739936 3.5259796137 3.7479044707 3.9648280105 4.1588146215 4.321561399 
4.4534631262 4.5590926874 4.6438261743 2.9637113136 2.7572056934 2.5352808365 2.3183572967 2.1243706857 1.9616239082 
1.829722181 1.7240926197 1.6393591329 3.23549507 3.3177459509 3.3894651688 3.4519439696 3.5064564817 3.5541660013 
3.5960900196 3.6330970997 3.6659187711 3.0476902371 2.9654393563 2.8937201384 2.8312413375 2.7767288255 2.7290193058 
2.6870952876 2.6500882075 2.617266536 6.2831853072 6.2831853072 6.2831853072 6.2831853072 3.1415926536 3.1415926536 
3.1415926536 3.1415926536 3.1415926536 6.1053039672 5.898798347 5.6768734901 5.4599499503 5.2659633393 5.1032165617 
4.9713148346 4.8656852733 4.7809517865 0.17788134 0.38438696014 0.60631181711 0.82323535693 1.0172219679 1.1799687454 
1.3118704726 1.4175000338 1.5022335207 6.1892828907 6.1070320098 6.035312792 5.9728339911 5.9183214791 5.8706119594 
5.8286879411 5.7916808611 5.7588591896 0.093902416448 0.17615329733 0.2478725152 0.31035131605 0.36486382811 0.41257334776 
0.45449736604 0.4915044461 0.52432611754 3.3194739936 3.5259796137 3.7479044707 3.9648280105 4.1588146215 4.321561399 
4.4534631262 4.5590926874 4.6438261743 2.9637113136 2.7572056934 2.5352808365 2.3183572967 2.1243706857 1.9616239082 
1.829722181 1.7240926197 1.6393591329 3.23549507 3.3177459509 3.3894651688 3.4519439696 3.5064564817 3.5541660013 
3.5960900196 3.6330970997 3.6659187711 3.0476902371 2.9654393563 2.8937201384 2.8312413375 2.7767288255 2.7290193058 
2.6870952876 2.6500882075 2.617266536 4.7123889804 4.7123889804 4.7123889804 4.7123889804 4.7123889804 4.7123889804 
4.7123889804 4.7123889804 4.7123889804 4.6087898617 4.4991390697 4.3857031936 4.2712800401 4.1588146215 4.0509635631 
3.94975894 3.8564636551 3.7716124825 4.8159880991 4.9256388911 5.0390747672 5.1534979207 5.2659633393 5.3738143976 
5.4750190208 5.5683143056 5.6531654782 4.6087898617 4.4991390697 4.3857031936 4.2712800401 4.1588146215 4.0509635631 
3.94975894 3.8564636551 3.7716124825 4.8159880991 4.9256388911 5.0390747672 5.1534979207 5.2659633393 5.3738143976 
5.4750190208 5.5683143056 5.6531654782 1.5707963268 1.5707963268 1.5707963268 1.5707963268 1.5707963268 1.5707963268 
1.5707963268 1.5707963268 1.5707963268 1.6743954455 1.7840462375 1.8974821136 2.0119052671 2.1243706857 2.232221744 
2.3334263672 2.426721652 2.5115728246 1.4671972081 1.3575464161 1.24411054 1.1296873865 1.0172219679 0.90937090954 
0.80816628637 0.71487100155 0.63001982895 1.6743954455 1.7840462375 1.8974821136 2.0119052671 2.1243706857 2.232221744 
2.3334263672 2.426721652 2.5115728246 1.4671972081 1.3575464161 1.24411054 1.1296873865 1.0172219679 0.90937090954 
0.80816628637 0.71487100155 0.63001982895 3.6007720849 3.4966939854 3.3839471039 3.2645756454 3.1415926536 3.0186096618 
2.8992382033 2.7864913217 2.6824132222 5.8240058758 5.9280839753 6.0408308569 6.1602023154 6.2831853072 0.12298299178 
0.2423544503 0.35510133185 0.45917943135 6.0560271438 5.7885595667 5.9702140275 5.5125918794 5.6029703303 5.7885595667 
5.2659633393 5.2659633393 5.2659633393 5.2659633393 5.0674903122 5.0120975802 4.9155579264 4.7123889804 4.1588146215 
4.9155579264 4.8353719722 4.7123889804 4.5092200343 4.1588146215 3.6362183941 4.8004512023 4.7123889804 4.5894059886 
4.4126803806 4.1588146215 3.8218076305 3.4545639333 4.7123889804 4.6243267584 4.5092200343 4.3572876485 4.1588146215 
3.9121860814 3.6362183941 3.368750817 6.0174235957 5.9434319871 5.8263323547 5.8809213739 5.7674481418 5.6279784266 
5.8278025282 5.718968232 5.5891129425 5.4372443565 5.7823484065 5.678536687 5.5575666702 5.4192596322 5.2659633393 
5.743164462 5.6444075337 5.5314983644 5.4046708639 5.2659633393 5.1195510325 5.7091357773 5.6152775188 5.5096229709 
5.3926039573 5.2659633393 5.1329233157 4.9978930058 5.6793730533 5.5901633916 5.4910209005 5.3824597928 5.2659633393 
5.1440684722 5.0201624502 4.8979782167 5.5683143056 5.4750190208 5.4750190208 5.3738143976 5.3738143976 5.3738143976 
5.2659633393 5.2659633393 5.2659633393 5.2659633393 5.1534979207 5.1534979207 5.1534979207 5.1534979207 5.1534979207 
5.0390747672 5.0390747672 5.0390747672 5.0390747672 5.0390747672 5.0390747672 4.9256388911 4.9256388911 4.9256388911 
4.9256388911 4.9256388911 4.9256388911 4.9256388911 4.8159880991 4.8159880991 4.8159880991 4.8159880991 4.8159880991 
4.8159880991 4.8159880991 4.8159880991 4.6087898617 4.6087898617 4.4991390697 4.6087898617 4.4991390697 4.3857031936 
4.6087898617 4.4991390697 4.3857031936 4.2712800401 4.6087898617 4.4991390697 4.3857031936 4.2712800401 4.1588146215 
4.6087898617 4.4991390697 4.3857031936 4.2712800401 4.1588146215 4.0509635631 4.6087898617 4.4991390697 4.3857031936 
4.2712800401 4.1588146215 4.0509635631 3.94975894 4.6087898617 4.4991390697 4.3857031936 4.2712800401 4.1588146215 
4.0509635631 3.94975894 3.8564636551 4.526799744 4.4046155105 4.426884955 4.2807094886 4.2918546451 4.3052269283 
4.1588146215 4.1588146215 4.1588146215 4.1588146215 4.042318168 4.0321740035 4.0201070968 4.0055183285 3.9875336042 
3.9337570603 3.9151549899 3.8932795963 3.8672112905 3.8356650183 3.7967995342 3.8346145692 3.809500442 3.7803704271 
3.7462412737 3.7058097288 3.657329819 3.5984456061 3.7454049075 3.7156421835 3.6816134988 3.6424295543 3.5969754326 
3.5438565869 3.4813459737 3.4073543651 3.5642842451 3.4524645613 3.5233842518 3.3320300872 3.403123212 3.4773852225 
3.20576226 3.2746326772 3.348015857 3.4255060145 3.0774230472 3.1415926536 3.2112816139 3.2864685043 3.3668817272 
2.95115522 3.00855263 3.0719036933 3.1415926536 3.2178377658 3.3005964304 2.8307207459 2.8800620952 2.9351694502 
2.9967168029 3.0653475414 3.1415926536 3.225752376 2.718901062 2.7598010554 2.8058000847 2.8576792927 2.91630358 
2.9825888767 3.0574329311 3.1415926536 3.5642842451 3.5233842518 3.4524645613 3.4773852225 3.403123212 3.3320300872 
3.4255060145 3.348015857 3.2746326772 3.20576226 3.3668817272 3.2864685043 3.2112816139 3.1415926536 3.0774230472 
3.3005964304 3.2178377658 3.1415926536 3.0719036933 3.00855263 2.95115522 3.225752376 3.1415926536 3.0653475414 
2.9967168029 2.9351694502 2.8800620952 2.8307207459 3.1415926536 3.0574329311 2.9825888767 2.91630358 2.8576792927 
2.8058000847 2.7598010554 2.718901062 4.526799744 4.426884955 4.4046155105 4.3052269283 4.2918546451 4.2807094886 
4.1588146215 4.1588146215 4.1588146215 4.1588146215 3.9875336042 4.0055183285 4.0201070968 4.0321740035 4.042318168 
3.7967995342 3.8356650183 3.8672112905 3.8932795963 3.9151549899 3.9337570603 3.5984456061 3.657329819 3.7058097288 
3.7462412737 3.7803704271 3.809500442 3.8346145692 3.4073543651 3.4813459737 3.5438565869 3.5969754326 3.6424295543 
3.6816134988 3.7156421835 3.7454049075 4.7123889804 4.8004512023 4.6243267584 4.9155579264 4.7123889804 4.5092200343 
5.0674903122 4.8353719722 4.5894059886 4.3572876485 5.2659633393 5.0120975802 4.7123889804 4.4126803806 4.1588146215 
5.5125918794 5.2659633393 4.9155579264 4.5092200343 4.1588146215 3.9121860814 5.7885595667 5.6029703303 5.2659633393 
4.7123889804 4.1588146215 3.8218076305 3.6362183941 6.0560271438 5.9702140275 5.7885595667 5.2659633393 4.1588146215 
3.6362183941 3.4545639333 3.368750817 0.22715816343 0.49462574053 0.3129712797 0.77059342779 0.68021497688 0.49462574053 
1.0172219679 1.0172219679 1.0172219679 1.0172219679 1.2156949949 1.271087727 1.3676273807 1.5707963268 2.1243706857 
1.3676273807 1.447813335 1.5707963268 1.7739652728 2.1243706857 2.6469669131 1.4827341049 1.5707963268 1.6937793186 
1.8705049266 2.1243706857 2.4613776767 2.8286213739 1.5707963268 1.6588585487 1.7739652728 1.9258976586 2.1243706857 
2.3709992258 2.6469669131 2.9144344902 1.7563855631 1.8785697967 1.8563003522 2.0024758186 1.9913306621 1.9779583789 
2.1243706857 2.1243706857 2.1243706857 2.1243706857 2.2408671392 2.2510113037 2.2630782103 2.2776669786 2.295651703 
2.3494282469 2.3680303173 2.3899057108 2.4159740166 2.4475202889 2.486385773 2.448570738 2.4736848652 2.5028148801 
2.5369440334 2.5773755784 2.6258554882 2.6847397011 2.5377803997 2.5675431237 2.6015718084 2.6407557529 2.6862098746 
2.7393287203 2.8018393335 2.8758309421 1.6743954455 1.6743954455 1.7840462375 1.6743954455 1.7840462375 1.8974821136 
1.6743954455 1.7840462375 1.8974821136 2.0119052671 1.6743954455 1.7840462375 1.8974821136 2.0119052671 2.1243706857 
1.6743954455 1.7840462375 1.8974821136 2.0119052671 2.1243706857 2.232221744 1.6743954455 1.7840462375 1.8974821136 
2.0119052671 2.1243706857 2.232221744 2.3334263672 1.6743954455 1.7840462375 1.8974821136 2.0119052671 2.1243706857 
2.232221744 2.3334263672 2.426721652 1.4671972081 1.3575464161 1.4671972081 1.24411054 1.3575464161 1.4671972081 
1.1296873865 1.24411054 1.3575464161 1.4671972081 1.0172219679 1.1296873865 1.24411054 1.3575464161 1.4671972081 
0.90937090954 1.0172219679 1.1296873865 1.24411054 1.3575464161 1.4671972081 0.80816628637 0.90937090954 1.0172219679 
1.1296873865 1.24411054 1.3575464161 1.4671972081 0.71487100155 0.80816628637 0.90937090954 1.0172219679 1.1296873865 
1.24411054 1.3575464161 1.4671972081 0.60381225391 0.57404952988 0.69302191562 0.54002084522 0.66790778838 0.79216440667 
0.50083690068 0.63877777351 0.77356233629 0.90072551443 0.45538277901 0.60464862014 0.75168694275 0.89058134991 1.0172219679 
0.40226393329 0.56421707518 0.72561863695 0.87851444325 1.0172219679 1.139116835 0.33975332011 0.51573716537 0.69407236469 
0.86392567495 1.0172219679 1.1502619915 1.2630228569 0.26576171152 0.45685295248 0.6552068806 0.84594095064 1.0172219679 
1.1636342747 1.2852923014 1.3852070904 0.22715816343 0.3129712797 0.49462574053 0.49462574053 0.68021497688 0.77059342779 
1.0172219679 1.0172219679 1.0172219679 1.0172219679 2.1243706857 1.5707963268 1.3676273807 1.271087727 1.2156949949 
2.6469669131 2.1243706857 1.7739652728 1.5707963268 1.447813335 1.3676273807 2.8286213739 2.4613776767 2.1243706857 
1.8705049266 1.6937793186 1.5707963268 1.4827341049 2.9144344902 2.6469669131 2.3709992258 2.1243706857 1.9258976586 
1.7739652728 1.6588585487 1.5707963268 1.7563855631 1.8563003522 1.8785697967 1.9779583789 1.9913306621 2.0024758186 
2.1243706857 2.1243706857 2.1243706857 2.1243706857 2.295651703 2.2776669786 2.2630782103 2.2510113037 2.2408671392 
2.486385773 2.4475202889 2.4159740166 2.3899057108 2.3680303173 2.3494282469 2.6847397011 2.6258554882 2.5773755784 
2.5369440334 2.5028148801 2.4736848652 2.448570738 2.8758309421 2.8018393335 2.7393287203 2.6862098746 2.6407557529 
2.6015718084 2.5675431237 2.5377803997 5.8604937156 5.901393709 5.9723133995 5.9473927383 6.0216547488 6.0927478736 
5.9992719463 6.0767621038 6.1501452836 6.2190157008 6.0578962336 6.1383094565 6.2134963469 0 0.064169606361 
6.1241815303 6.206940195 6.2831853072 0.069688960264 0.13304002361 0.19043743361 6.1990255847 0 0.07624511221 
0.14487585072 0.20642320337 0.26153055843 0.3108719077 0 0.084159722458 0.15900377685 0.22528907359 0.28391336087 
0.3357925689 0.38179159818 0.42269159155 5.8604937156 5.9723133995 5.901393709 6.0927478736 6.0216547488 5.9473927383 
6.2190157008 6.1501452836 6.0767621038 5.9992719463 0.064169606361 0 6.2134963469 6.1383094565 6.0578962336 
0.19043743361 0.13304002361 0.069688960264 6.2831853072 6.206940195 6.1241815303 0.3108719077 0.26153055843 0.20642320337 
0.14487585072 0.07624511221 6.2831853072 6.1990255847 0.42269159155 0.38179159818 0.3357925689 0.28391336087 0.22528907359 
0.15900377685 0.084159722458 0 5.6793730533 5.7091357773 5.5901633916 5.743164462 5.6152775188 5.4910209005 
5.7823484065 5.6444075337 5.5096229709 5.3824597928 5.8278025282 5.678536687 5.5314983644 5.3926039573 5.2659633393 
5.8809213739 5.718968232 5.5575666702 5.4046708639 5.2659633393 5.1440684722 5.9434319871 5.7674481418 5.5891129425 
5.4192596322 5.2659633393 5.1329233157 5.0201624502 6.0174235957 5.8263323547 5.6279784266 5.4372443565 5.2659633393 
5.1195510325 4.9978930058 4.8979782167 1.3852070904 1.2852923014 1.2630228569 1.1636342747 1.1502619915 1.139116835 
1.0172219679 1.0172219679 1.0172219679 1.0172219679 0.84594095064 0.86392567495 0.87851444325 0.89058134991 0.90072551443 
0.6552068806 0.69407236469 0.72561863695 0.75168694275 0.77356233629 0.79216440667 0.45685295248 0.51573716537 0.56421707518 
0.60464862014 0.63877777351 0.66790778838 0.69302191562 0.26576171152 0.33975332011 0.40226393329 0.45538277901 0.50083690068 
0.54002084522 0.57404952988 0.60381225391 
_paraPhiHalf 1 1002 double
0 3.1415926536 0 3.1415926536 1.5707963268 1.5707963268 1.5707963268 1.5707963268 2.5880182947 
0.5535743589 2.5880182947 0.5535743589 0 0 0 0 3.1415926536 3.1415926536 
3.1415926536 3.1415926536 3.1415926536 0.17788134 0.38438696014 0.60631181711 0.82323535693 1.0172219679 1.1799687454 
1.3118704726 1.4175000338 1.5022335207 0.17788134 0.38438696014 0.60631181711 0.82323535693 1.0172219679 1.1799687454 
1.3118704726 1.4175000338 1.5022335207 0.093902416448 0.17615329733 0.2478725152 0.31035131605 0.36486382811 0.41257334776 
0.45449736604 0.4915044461 0.52432611754 0.093902416448 0.17615329733 0.2478725152 0.31035131605 0.36486382811 0.41257334776 
0.45449736604 0.4915044461 0.52432611754 2.9637113136 2.7572056934 2.5352808365 2.3183572967 2.1243706857 1.9616239082 
1.829722181 1.7240926197 1.6393591329 2.9637113136 2.7572056934 2.5352808365 2.3183572967 2.1243706857 1.9616239082 
1.829722181 1.7240926197 1.6393591329 3.0476902371 2.9654393563 2.8937201384 2.8312413375 2.7767288255 2.7290193058 
2.6870952876 2.6500882075 2.617266536 3.0476902371 2.9654393563 2.8937201384 2.8312413375 2.7767288255 2.7290193058 
2.6870952876 2.6500882075 2.617266536 0 0 0 0 3.1415926536 3.1415926536 
3.1415926536 3.1415926536 3.1415926536 0.17788134 0.38438696014 0.60631181711 0.82323535693 1.0172219679 1.1799687454 
1.3118704726 1.4175000338 1.5022335207 0.17788134 0.38438696014 0.60631181711 0.82323535693 1.0172219679 1.1799687454 
1.3118704726 1.4175000338 1.5022335207 0.093902416448 0.17615329733 0.2478725152 0.31035131605 0.36486382811 0.41257334776 
0.45449736604 0.4915044461 0.52432611754 0.093902416448 0.17615329733 0.2478725152 0.31035131605 0.36486382811 0.41257334776 
0.45449736604 0.4915044461 0.52432611754 2.9637113136 2.7572056934 2.5352808365 2.3183572967 2.1243706857 1.9616239082 
1.829722181 1.7240926197 1.6393591329 2.9637113136 2.7572056934 2.5352808365 2.3183572967 2.1243706857 1.9616239082 
1.829722181 1.7240926197 1.6393591329 3.0476902371 2.9654393563 2.8937201384 2.8312413375 2.7767288255 2.7290193058 
2.6870952876 2.6500882075 2.617266536 3.0476902371 2.9654393563 2.8937201384 2.8312413375 2.7767288255 2.7290193058 
2.6870952876 2.6500882075 2.617266536 1.5707963268 1.5707963268 1.5707963268 1.5707963268 1.5707963268 1.5707963268 
1.5707963268 1.5707963268 1.5707963268 1.6743954455 1.7840462375 1.8974821136 2.0119052671 2.1243706857 2.232221744 
2.3334263672 2.426721652 2.5115728246 1.4671972081 1.3575464161 1.24411054 1.1296873865 1.0172219679 0.90937090954 
0.80816628637 0.71487100155 0.63001982895 1.6743954455 1.7840462375 1.8974821136 2.0119052671 2.1243706857 2.232221744 
2.3334263672 2.426721652 2.5115728246 1.4671972081 1.3575464161 1.24411054 1.1296873865 1.0172219679 0.90937090954 
0.80816628637 0.71487100155 0.63001982895 1.5707963268 1.5707963268 1.5707963268 1.5707963268 1.5707963268 1.5707963268 
1.5707963268 1.5707963268 1.5707963268 1.6743954455 1.7840462375 1.8974821136 2.0119052671 2.1243706857 2.232221744 
2.3334263672 2.426721652 2.5115728246 1.4671972081 1.3575464161 1.24411054 1.1296873865 1.0172219679 0.90937090954 
0.80816628637 0.71487100155 0.63001982895 1.6743954455 1.7840462375 1.8974821136 2.0119052671 2.1243706857 2.232221744 
2.3334263672 2.426721652 2.5115728246 1.4671972081 1.3575464161 1.24411054 1.1296873865 1.0172219679 0.90937090954 
0.80816628637 0.71487100155 0.63001982895 2.6824132222 2.7864913217 2.8992382033 3.0186096618 3.1415926536 3.0186096618 
2.8992382033 2.7864913217 2.6824132222 0.45917943135 0.35510133185 0.2423544503 0.12298299178 0 0.12298299178 
0.2423544503 0.35510133185 0.45917943135 0.22715816343 0.49462574053 0.3129712797 0.77059342779 0.68021497688 0.49462574053 
1.0172219679 1.0172219679 1.0172219679 1.0172219679 1.2156949949 1.271087727 1.3676273807 1.5707963268 2.1243706857 
1.3676273807 1.447813335 1.5707963268 1.7739652728 2.1243706857 2.6469669131 1.4827341049 1.5707963268 1.6937793186 
1.8705049266 2.1243706857 2.4613776767 2.8286213739 1.5707963268 1.6588585487 1.7739652728 1.9258976586 2.1243706857 
2.3709992258 2.6469669131 2.9144344902 0.26576171152 0.33975332011 0.45685295248 0.40226393329 0.51573716537 0.6552068806 
0.45538277901 0.56421707518 0.69407236469 0.84594095064 0.50083690068 0.60464862014 0.72561863695 0.86392567495 1.0172219679 
0.54002084522 0.63877777351 0.75168694275 0.87851444325 1.0172219679 1.1636342747 0.57404952988 0.66790778838 0.77356233629 
0.89058134991 1.0172219679 1.1502619915 1.2852923014 0.60381225391 0.69302191562 0.79216440667 0.90072551443 1.0172219679 
1.139116835 1.2630228569 1.3852070904 0.71487100155 0.80816628637 0.80816628637 0.90937090954 0.90937090954 0.90937090954 
1.0172219679 1.0172219679 1.0172219679 1.0172219679 1.1296873865 1.1296873865 1.1296873865 1.1296873865 1.1296873865 
1.24411054 1.24411054 1.24411054 1.24411054 1.24411054 1.24411054 1.3575464161 1.3575464161 1.3575464161 
1.3575464161 1.3575464161 1.3575464161 1.3575464161 1.4671972081 1.4671972081 1.4671972081 1.4671972081 1.4671972081 
1.4671972081 1.4671972081 1.4671972081 1.6743954455 1.6743954455 1.7840462375 1.6743954455 1.7840462375 1.8974821136 
1.6743954455 1.7840462375 1.8974821136 2.0119052671 1.6743954455 1.7840462375 1.8974821136 2.0119052671 2.1243706857 
1.6743954455 1.7840462375 1.8974821136 2.0119052671 2.1243706857 2.232221744 1.6743954455 1.7840462375 1.8974821136 
2.0119052671 2.1243706857 2.232221744 2.3334263672 1.6743954455 1.7840462375 1.8974821136 2.0119052671 2.1243706857 
2.232221744 2.3334263672 2.426721652 1.7563855631 1.8785697967 1.8563003522 2.0024758186 1.9913306621 1.9779583789 
2.1243706857 2.1243706857 2.1243706857 2.1243706857 2.2408671392 2.2510113037 2.2630782103 2.2776669786 2.295651703 
2.3494282469 2.3680303173 2.3899057108 2.4159740166 2.4475202889 2.486385773 2.448570738 2.4736848652 2.5028148801 
2.5369440334 2.5773755784 2.6258554882 2.6847397011 2.5377803997 2.5675431237 2.6015718084 2.6407557529 2.6862098746 
2.7393287203 2.8018393335 2.8758309421 2.718901062 2.8307207459 2.7598010554 2.95115522 2.8800620952 2.8058000847 
3.0774230472 3.00855263 2.9351694502 2.8576792927 3.0774230472 3.1415926536 3.0719036933 2.9967168029 2.91630358 
2.95115522 3.00855263 3.0719036933 3.1415926536 3.0653475414 2.9825888767 2.8307207459 2.8800620952 2.9351694502 
2.9967168029 3.0653475414 3.1415926536 3.0574329311 2.718901062 2.7598010554 2.8058000847 2.8576792927 2.91630358 
2.9825888767 3.0574329311 3.1415926536 2.718901062 2.7598010554 2.8307207459 2.8058000847 2.8800620952 2.95115522 
2.8576792927 2.9351694502 3.00855263 3.0774230472 2.91630358 2.9967168029 3.0719036933 3.1415926536 3.0774230472 
2.9825888767 3.0653475414 3.1415926536 3.0719036933 3.00855263 2.95115522 3.0574329311 3.1415926536 3.0653475414 