# vtk DataFile Version 5.1
vtk output
ASCII
DATASET POLYDATA
POINTS 1002 float
-13.6611 -0.903557 -1.98745 12.842 1.11347 -4.96014 -10.9675 2.90954 4.30453 
9.48878 -1.47085 5.57472 1.26168 9.69042 -2.40883 0.185348 8.89492 3.30246 
1.7495 -0.282364 -0.357945 2.47444 -2.52987 2.95301 18.1858 3.00887 -1.70378 
-17.9072 1.54645 -1.64006 16.1671 -11.3534 -2.02997 -17.6923 -10.0201 -1.28529 
-11.9963 0.346949 -1.48855 -9.78858 1.62031 -1.08752 -7.28752 2.75945 -0.615226 
-4.38554 3.51648 -0.449915 -0.703027 3.75045 -1.35282 3.47854 3.57792 -3.20818 
7.14403 3.1828 -4.80314 9.71675 2.61745 -5.34903 11.4695 1.89798 -5.19067 
-12.9892 0.160969 -1.7063 -12.0545 1.37926 -1.43164 -10.7814 2.64303 -1.2067 
-9.06282 3.84087 -1.1099 -6.93402 4.98305 -1.23928 -4.66638 6.12542 -1.60639 
-2.60169 7.22611 -2.0487 -0.946387 8.20289 -2.34751 0.294046 9.02579 -2.43461 
-13.2797 -1.0712 -1.87853 -12.6511 -1.10849 -1.75336 -11.8007 -0.99086 -1.52417 
-10.7912 -0.698991 -1.09076 -9.57563 -0.264757 -0.521535 -7.97944 0.201101 -0.0332272 
-5.90329 0.556684 0.253162 -3.44079 0.664239 0.331231 -0.804734 0.399455 0.14705 
-14.4826 -1.51259 -2.58049 -14.9639 -2.08186 -3.45442 -15.3183 -2.50813 -4.39333 
-15.808 -2.62661 -5.06388 -16.3229 -2.31433 -5.3177 -16.5957 -1.61873 -5.17012 
-16.7652 -0.732936 -4.59311 -17.1354 0.148872 -3.63761 -17.625 0.918122 -2.56488 
-14.6491 -2.34872 -2.67668 -15.213 -3.95035 -3.56149 -15.4778 -5.6193 -4.31505 
-15.9106 -7.24527 -4.55282 -16.8738 -8.79071 -4.22915 -18.0647 -10.2013 -3.62049 
-18.7778 -11.1944 -2.94724 -18.7194 -11.4345 -2.29202 -18.2071 -10.9305 -1.72636 
12.1767 2.12051 -4.98501 11.2912 3.18802 -4.93081 10.2706 4.25885 -4.90138 
9.23054 5.28965 -4.94614 8.15895 6.27042 -4.94788 6.8832 7.18469 -4.69548 
5.33759 7.98898 -4.11495 3.74007 8.66163 -3.38597 2.36138 9.22262 -2.77713 
12.554 0.642132 -4.97134 12.2411 0.172526 -5.09541 12.0042 -0.320029 -5.42307 
11.6608 -0.775038 -5.69268 10.785 -1.0529 -5.40372 9.24637 -1.09924 -4.45598 
7.39557 -0.9931 -3.27453 5.54264 -0.800715 -2.19327 3.67736 -0.541951 -1.22356 
13.7721 0.966983 -4.92196 14.6503 0.942901 -4.92 15.3907 1.06061 -4.7485 
16.0129 1.25134 -4.33815 16.5395 1.45894 -3.82953 16.9093 1.71673 -3.31826 
17.1791 2.05186 -2.80459 17.5374 2.41193 -2.36035 17.9662 2.7358 -2.03271 
13.9161 -0.0538689 -4.77232 14.7129 -1.35613 -4.35345 14.9337 -2.69696 -3.47001 
14.6551 -3.99918 -2.25539 14.5522 -5.25853 -1.43471 15.2119 -6.53922 -1.65005 
16.2906 -7.8993 -2.55275 16.9273 -9.28551 -3.13745 16.7764 -10.5072 -2.87339 
-8.87599 3.33118 4.65995 -6.19844 3.5921 4.5843 -3.19128 3.58837 4.27213 
-0.390657 3.22643 4.17534 1.96734 2.54175 4.3941 4.06605 1.67997 4.61341 
5.93309 0.77324 4.75428 7.38543 -0.0913269 5.01628 8.48132 -0.849138 5.37151 
-10.3135 3.49486 4.58355 -9.5786 4.10586 4.89822 -8.62451 4.75961 5.09172 
-7.29772 5.46084 4.97122 -5.69858 6.17205 4.57677 -4.19255 6.84333 4.20554 
-2.99605 7.46073 4.03901 -1.97258 8.02603 3.94494 -0.920163 8.51499 3.71542 
-10.399 2.614 4.38822 -9.6156 2.31703 4.40891 -8.48907 2.0788 4.27018 
-6.94972 1.87331 3.98052 -5.11068 1.55389 3.68901 -3.2379 1.00066 3.55143 
-1.53953 0.239638 3.56226 -0.0443567 -0.640401 3.55115 1.29382 -1.57996 3.35341 
-12.3603 2.71525 3.82517 -13.7155 2.35132 3.21578 -15.0532 1.83465 2.5602 
-16.2262 1.28344 1.81942 -16.9742 0.811976 0.924227 -17.2527 0.475841 -0.0163296 
-17.3672 0.361832 -0.750923 -17.5969 0.560714 -1.16348 -17.8642 1.01743 -1.38948 
-12.5139 2.14704 3.73552 -14.1473 1.11457 3.0919 -15.829 -0.259202 2.55338 
-17.3452 -1.95547 2.15395 -18.4018 -3.78974 1.73325 -18.8848 -5.53315 1.16054 
-18.9158 -7.08813 0.484014 -18.6635 -8.42219 -0.18441 -18.2329 -9.43473 -0.781696 
8.9673 -0.375229 5.54602 8.35718 0.882851 5.37379 7.77306 2.18844 4.9694 
7.23324 3.41036 4.33194 6.58712 4.53314 3.64439 5.65898 5.62101 3.17233 
4.41094 6.66529 3.03705 2.95763 7.58367 3.13373 1.49329 8.32527 3.2645 
9.20192 -2.10572 5.50189 8.70175 -2.69783 5.41147 8.09599 -3.261 5.26086 
7.53549 -3.74881 4.96708 6.97531 -4.06759 4.53436 6.28884 -4.19722 4.07286 
5.5142 -4.14506 3.66925 4.69267 -3.83696 3.34368 3.70741 -3.24808 3.10421 
10.3233 -1.3515 5.55052 11.3437 -1.13349 5.28349 12.4896 -0.828767 4.84515 
13.6372 -0.393309 4.34597 14.8169 0.203699 3.65053 16.1526 0.857797 2.52418 
17.4684 1.43673 1.11035 18.32 1.95094 -0.159611 18.4961 2.47457 -1.06736 
10.5093 -2.45549 5.47018 11.7213 -3.46636 5.05475 12.9556 -4.48944 4.35776 
14.0173 -5.53889 3.47278 14.9294 -6.64742 2.4804 15.7487 -7.83797 1.49952 
16.2714 -9.0682 0.647335 16.3507 -10.187 -0.146091 16.2157 -10.9912 -1.04493 
1.1387 10.3449 -2.19185 0.866324 11.0158 -1.83074 0.467714 11.5558 -1.17512 
0.0961674 11.7782 -0.201946 -0.0623464 11.5948 0.82798 0.00146398 11.1067 1.59994 
0.115688 10.5121 2.09975 0.157499 9.93891 2.51845 0.155875 9.40587 2.93925 
2.98978 9.89327 -2.67678 5.18386 9.81365 -3.23306 7.53022 9.45504 -3.69717 
9.58148 8.89418 -3.55388 11.3598 8.17733 -2.97699 13.1741 7.2954 -2.65033 
14.9457 6.28433 -2.676 16.365 5.21546 -2.59106 17.396 4.11691 -2.21007 
-0.284605 9.62834 -2.27676 -2.09169 9.25779 -2.12052 -4.58649 8.54043 -1.54412 
-7.70438 7.55094 -0.687723 -10.7766 6.47472 -0.270243 -13.3253 5.52613 -0.536444 
-15.3582 4.75432 -0.951689 -16.8372 3.9464 -1.16995 -17.6401 2.86947 -1.3545 
2.18445 8.8268 2.71028 4.40745 8.60027 1.99336 6.5962 8.31728 1.55115 
8.4675 8.06759 1.69801 10.0551 7.7089 2.06272 11.7747 6.99371 1.81423 
13.861 5.96583 0.724361 15.9399 4.90278 -0.570475 17.4433 3.93535 -1.41748 
-1.73002 9.10707 3.49346 -3.72042 9.11889 3.54262 -5.84233 8.86233 3.57238 
-8.15646 8.22172 3.60262 -10.6877 7.17248 3.39472 -13.314 5.98434 2.72208 
-15.6206 4.961 1.67988 -17.1413 4.02312 0.526317 -17.7987 2.89938 -0.592643 
2.07018 -0.725904 -0.31886 2.33805 -1.24367 -0.316307 2.34705 -1.78482 -0.166035 
1.98118 -2.27237 0.304109 1.47663 -2.6336 0.981289 1.26046 -2.82264 1.55952 
1.47373 -2.84733 1.931 1.89051 -2.77145 2.23457 2.25372 -2.65926 2.58197 
5.29072 -1.68108 -1.76099 8.13924 -3.58653 -3.27644 9.87113 -5.3632 -4.08314 
10.9129 -6.68357 -3.8312 12.0248 -7.98098 -3.19492 13.3188 -9.68008 -3.02437 
14.3774 -11.3288 -3.22646 15.0586 -12.1684 -3.17093 15.5887 -12.0485 -2.67476 
-1.95932 0.174359 0.599996 -5.66569 -0.304147 0.763166 -8.47868 -1.81494 0.111924 
-10.124 -3.75058 -0.618059 -11.2071 -5.36531 -0.78287 -12.3534 -6.55514 -0.695416 
-13.6152 -7.62612 -0.934285 -14.9095 -8.64901 -1.36374 -16.2876 -9.47582 -1.51292 
4.32121 -4.03779 2.46916 5.91874 -5.64581 1.98526 7.36401 -7.04611 1.61054 
9.06427 -8.16955 1.06813 11.047 -9.37308 0.152846 12.6264 -10.8952 -0.676152 
13.4431 -12.2707 -0.96695 14.0675 -12.8037 -1.05666 15.0346 -12.3628 -1.43624 
0.156545 -1.31268 3.07447 -2.66801 -0.488218 2.98814 -5.81637 -0.339059 2.75928 
-9.13383 -0.927765 2.58251 -12.2619 -2.21025 2.29924 -14.5387 -4.0211 1.52087 
-15.6369 -5.92018 0.380823 -16.0673 -7.50285 -0.558873 -16.6384 -8.79251 -1.05605 
18.771 1.61358 -1.32275 19.1828 -0.000865278 -0.766512 19.502 -1.55159 -0.122319 
19.6899 -2.82369 0.403099 19.6006 -4.05072 0.41329 19.2415 -5.55114 -0.263963 
18.7416 -7.17901 -1.18469 18.0848 -8.67173 -1.78649 17.1972 -10.0529 -1.99034 
-17.9798 -0.353665 -2.43072 -18.246 -2.34792 -2.98062 -18.7863 -4.16378 -3.00874 
-19.5603 -6.12035 -2.55464 -20.5688 -8.69305 -2.00873 -21.6008 -11.2823 -1.60624 
-21.9713 -12.5711 -1.29014 -21.1569 -12.2413 -1.10115 -19.4712 -11.1315 -1.14198 
-11.0153 1.43602 -1.29639 -9.73032 2.61271 -1.14832 -8.53105 2.66588 -0.949839 
-8.05112 3.74807 -1.0969 -6.93601 3.70119 -0.927235 -5.75015 3.64229 -0.640771 
-5.97583 4.79626 -1.2389 -4.95185 4.62978 -1.13079 -3.8194 4.43276 -0.991788 
-2.43943 4.14473 -1.00628 -3.75642 5.83577 -1.62348 -2.75047 5.51103 -1.61702 
-1.5806 5.14439 -1.7134 -0.156921 4.70651 -1.99857 1.57538 4.17933 -2.51737 
-1.73713 6.87906 -2.12464 -0.676807 6.43441 -2.27063 0.631647 5.90147 -2.61223 
2.15535 5.30104 -3.14159 3.84024 4.64309 -3.747 5.5674 3.93327 -4.32809 
-0.0761013 7.82426 -2.51821 1.07736 7.32853 -2.85557 2.53472 6.70449 -3.39663 
4.13754 5.97886 -4.03603 5.7337 5.19134 -4.59894 7.25469 4.3612 -4.99942 
8.60808 3.49775 -5.24186 1.25739 8.60519 -2.70808 2.53074 8.07853 -3.21875 
4.0904 7.42201 -3.89832 5.69055 6.63742 -4.53031 7.12944 5.7637 -4.93444 
8.42303 4.8347 -5.1185 9.61573 3.86295 -5.19686 10.6484 2.87111 -5.22533 
-13.9059 -0.27887 -2.15191 -14.4808 -0.643378 -2.83218 -13.0685 1.13501 -1.67883 
-14.8557 -0.840005 -3.60284 -13.764 0.989588 -2.10141 -11.8613 2.57043 -1.26299 
-15.1788 -0.735932 -4.23 -14.1676 1.00901 -2.67988 -12.7019 2.59844 -1.42565 
-10.1349 3.91707 -1.03371 -15.4038 -0.245516 -4.53584 -14.3459 1.28326 -3.26751 
-13.2227 2.76512 -1.76848 -11.0924 4.07864 -0.963894 -7.88632 5.21225 -1.11514 
-15.6339 0.563443 -4.34384 -14.4702 1.85861 -3.56844 -13.446 3.11637 -2.18899 
-11.7687 4.33357 -1.01393 -8.80581 5.48812 -0.907156 -5.3934 6.48831 -1.50957 
-16.1835 1.48029 -3.56948 -14.9398 2.63602 -3.25194 -13.7034 3.65154 -2.33064 
-12.156 4.68983 -1.14251 -9.53079 5.80114 -0.7376 -6.12651 6.85536 -1.30646 
-3.12187 7.68358 -1.9897 -17.0048 2.28461 -2.44388 -15.8851 3.39252 -2.32136 
-14.3942 4.25428 -1.87865 -12.5985 5.11815 -1.05464 -10.106 6.14291 -0.595558 
-6.86182 7.219 -1.05467 -3.73394 8.13087 -1.8454 -1.4215 8.73927 -2.26969 
-17.4535 4.05994 -0.178657 -16.3896 4.99283 1.0042 -16.3119 4.96241 0.0948704 
-14.2129 5.93326 2.06043 -14.6865 5.90025 1.27402 -14.278 5.77815 0.316169 
-11.3782 7.11755 2.78761 -12.0616 7.0502 2.11981 -12.1901 6.94772 1.28608 
-11.5968 6.75563 0.387417 -8.58466 8.32595 3.07816 -9.1694 8.33939 2.51155 
-9.57691 8.29155 1.78279 -9.31231 8.1615 0.823861 -8.50612 7.90654 -0.0954197 
-6.10776 9.17133 3.10476 -6.51804 9.37424 2.60963 -7.01088 9.49322 1.98924 
-7.04867 9.52225 1.02806 -6.34497 9.37845 -0.136494 -5.34319 9.02295 -1.05967 
-3.88185 9.56754 3.11154 -4.11597 9.9547 2.65514 -4.54554 10.2849 2.1489 
-4.84495 10.5453 1.33449 -4.50128 10.6191 0.133448 -3.57656 10.3816 -1.05154 
[...]
POINT_DATA 1002
FIELD FieldData 4
_paraPhi 1 1002 double
6.2831853072 3.1415926536 6.2831853072 3.1415926536 4.7123889804 4.7123889804 1.5707963268 1.5707963268 3.6951670125 
5.7296109483 2.5880182947 0.5535743589 6.2831853072 6.2831853072 6.2831853072 6.2831853072 3.1415926536 3.1415926536 
3.1415926536 3.1415926536 3.1415926536 6.1053039672 5.898798347 5.6768734901 5.4599499503 5.2659633393 5.1032165617 
4.9713148346 4.8656852733 4.7809517865 0.17788134 0.38438696014 0.60631181711 0.82323535693 1.0172219679 1.1799687454 
1.3118704726 1.4175000338 1.5022335207 6.1892828907 6.1070320098 6.035312792 5.9728339911 5.9183214791 5.8706119594 
5.8286879411 5.7916808611 5.7588591896 0.093902416448 0.17615329733 0.2478725152 0.31035131605 0.36486382811 0.41257334776 
0.45449736604 0.4915044461 0.52432611754 3.3194739936 3.5259796137 3.7479044707 3.9648280105 4.1588146215 4.321561399 
4.4534631262 4.5590926874 4.6438261743 2.9637113136 2.7572056934 2.5352808365 2.3183572967 2.1243706857 1.9616239082 
1.829722181 1.7240926197 1.6393591329 3.23549507 3.3177459509 3.3894651688 3.4519439696 3.5064564817 3.5541660013 
3.5960900196 3.6330970997 3.6659187711 3.0476902371 2.9654393563 2.8937201384 2.8312413375 2.7767288255 2.7290193058 
2.6870952876 2.6500882075 2.617266536 6.2831853072 6.2831853072 6.2831853072 6.2831853072 3.1415926536 3.1415926536 
3.1415926536 3.1415926536 3.1415926536 6.1053039672 5.898798347 5.6768734901 5.4599499503 5.2659633393 5.1032165617 
4.9713148346 4.8656852733 4.7809517865 0.17788134 0.38438696014 0.60631181711 0.82323535693 1.0172219679 1.1799687454 
1.3118704726 1.4175000338 1.5022335207 6.1892828907 6.1070320098 6.035312792 5.9728339911 5.9183214791 5.8706119594 
5.8286879411 5.7916808611 5.7588591896 0.093902416448 0.17615329733 0.2478725152 0.31035131605 0.36486382811 0.41257334776 
0.45449736604 0.4915044461 0.52432611754 3.3194739936 3.5259796137 3.7479044707 3.9648280105 4.1588146215 4.321561399 
4.4534631262 4.5590926874 4.6438261743 2.9637113136 2.7572056934 2.5352808365 2.3183572967 2.1243706857 1.9616239082 
1.829722181 1.7240926197 1.6393591329 3.23549507 3.3177459509 3.3894651688 3.4519439696 3.5064564817 3.5541660013 
3.5960900196 3.6330970997 3.6659187711 3.0476902371 2.9654393563 2.8937201384 2.8312413375 2.7767288255 2.7290193058 
2.6870952876 2.6500882075 2.617266536 4.7123889804 4.7123889804 4.7123889804 4.7123889804 4.7123889804 4.7123889804 
4.7123889804 4.7123889804 4.7123889804 4.6087898617 4.4991390697 4.3857031936 4.2712800401 4.1588146215 4.0509635631 
3.94975894 3.8564636551 3.7716124825 4.8159880991 4.9256388911 5.0390747672 5.1534979207 5.2659633393 5.3738143976 
5.4750190208 5.5683143056 5.6531654782 4.6087898617 4.4991390697 4.3857031936 4.2712800401 4.1588146215 4.0509635631 
3.94975894 3.8564636551 3.7716124825 4.8159880991 4.9256388911 5.0390747672 5.1534979207 5.2659633393 5.3738143976 
5.4750190208 5.5683143056 5.6531654782 1.5707963268 1.5707963268 1.5707963268 1.5707963268 1.5707963268 1.5707963268 
1.5707963268 1.5707963268 1.5707963268 1.6743954455 1.7840462375 1.8974821136 2.0119052671 2.1243706857 2.232221744 
2.3334263672 2.426721652 2.5115728246 1.4671972081 1.3575464161 1.24411054 1.1296873865 1.0172219679 0.90937090954 
0.80816628637 0.71487100155 0.63001982895 1.6743954455 1.7840462375 1.8974821136 2.0119052671 2.1243706857 2.232221744 
2.3334263672 2.426721652 2.5115728246 1.4671972081 1.3575464161 1.24411054 1.1296873865 1.0172219679 0.90937090954 
0.80816628637 0.71487100155 0.63001982895 3.6007720849 3.4966939854 3.3839471039 3.2645756454 3.1415926536 3.0186096618 
2.8992382033 2.7864913217 2.6824132222 5.8240058758 5.9280839753 6.0408308569 6.1602023154 6.2831853072 0.12298299178 
0.2423544503 0.35510133185 0.45917943135 6.0560271438 5.7885595667 5.9702140275 5.5125918794 5.6029703303 5.7885595667 
5.2659633393 5.2659633393 5.2659633393 5.2659633393 5.0674903122 5.0120975802 4.9155579264 4.7123889804 4.1588146215 
4.9155579264 4.8353719722 4.7123889804 4.5092200343 4.1588146215 3.6362183941 4.8004512023 4.7123889804 4.5894059886 
4.4126803806 4.1588146215 3.8218076305 3.4545639333 4.7123889804 4.6243267584 4.5092200343 4.3572876485 4.1588146215 
3.9121860814 3.6362183941 3.368750817 6.0174235957 5.9434319871 5.8263323547 5.8809213739 5.7674481418 5.6279784266 
5.8278025282 5.718968232 5.5891129425 5.4372443565 5.7823484065 5.678536687 5.5575666702 5.4192596322 5.2659633393 
5.743164462 5.6444075337 5.5314983644 5.4046708639 5.2659633393 5.1195510325 5.7091357773 5.6152775188 5.5096229709 
5.3926039573 5.2659633393 5.1329233157 4.9978930058 5.6793730533 5.5901633916 5.4910209005 5.3824597928 5.2659633393 
5.1440684722 5.0201624502 4.8979782167 5.5683143056 5.4750190208 5.4750190208 5.3738143976 5.3738143976 5.3738143976 
5.2659633393 5.2659633393 5.2659633393 5.2659633393 5.1534979207 5.1534979207 5.1534979207 5.1534979207 5.1534979207 
5.0390747672 5.0390747672 5.0390747672 5.0390747672 5.0390747672 5.0390747672 4.9256388911 4.9256388911 4.9256388911 
4.9256388911 4.9256388911 4.9256388911 4.9256388911 4.8159880991 4.8159880991 4.8159880991 4.8159880991 4.8159880991 
4.8159880991 4.8159880991 4.8159880991 4.6087898617 4.6087898617 4.4991390697 4.6087898617 4.4991390697 4.3857031936 
4.6087898617 4.4991390697 4.3857031936 4.2712800401 4.6087898617 4.4991390697 4.3857031936 4.2712800401 4.1588146215 
4.6087898617 4.4991390697 4.3857031936 4.2712800401 4.1588146215 4.0509635631 4.6087898617 4.4991390697 4.3857031936 
4.2712800401 4.1588146215 4.0509635631 3.94975894 4.6087898617 4.4991390697 4.3857031936 4.2712800401 4.1588146215 
4.0509635631 3.94975894 3.8564636551 4.526799744 4.4046155105 4.426884955 4.2807094886 4.2918546451 4.3052269283 
4.1588146215 4.1588146215 4.1588146215 4.1588146215 4.042318168 4.0321740035 4.0201070968 4.0055183285 3.9875336042 
3.9337570603 3.9151549899 3.8932795963 3.8672112905 3.8356650183 3.7967995342 3.8346145692 3.809500442 3.7803704271 
3.7462412737 3.7058097288 3.657329819 3.5984456061 3.7454049075 3.7156421835 3.6816134988 3.6424295543 3.5969754326 
3.5438565869 3.4813459737 3.4073543651 3.5642842451 3.4524645613 3.5233842518 3.3320300872 3.403123212 3.4773852225 
3.20576226 3.2746326772 3.348015857 3.4255060145 3.0774230472 3.1415926536 3.2112816139 3.2864685043 3.3668817272 
2.95115522 3.00855263 3.0719036933 3.1415926536 3.2178377658 3.3005964304 2.8307207459 2.8800620952 2.9351694502 
2.9967168029 3.0653475414 3.1415926536 3.225752376 2.718901062 2.7598010554 2.8058000847 2.8576792927 2.91630358 
2.9825888767 3.0574329311 3.1415926536 3.5642842451 3.5233842518 3.4524645613 3.4773852225 3.403123212 3.3320300872 
3.4255060145 3.348015857 3.2746326772 3.20576226 3.3668817272 3.2864685043 3.2112816139 3.1415926536 3.0774230472 
3.3005964304 3.2178377658 3.1415926536 3.0719036933 3.00855263 2.95115522 3.225752376 3.1415926536 3.0653475414 
2.9967168029 2.9351694502 2.8800620952 2.8307207459 3.1415926536 3.0574329311 2.9825888767 2.91630358 2.8576792927 
2.8058000847 2.7598010554 2.718901062 4.526799744 4.426884955 4.4046155105 4.3052269283 4.2918546451 4.2807094886 
4.1588146215 4.1588146215 4.1588146215 4.1588146215 3.9875336042 4.0055183285 4.0201070968 4.0321740035 4.042318168 
3.7967995342 3.8356650183 3.8672112905 3.8932795963 3.9151549899 3.9337570603 3.5984456061 3.657329819 3.7058097288 
3.7462412737 3.7803704271 3.809500442 3.8346145692 3.4073543651 3.4813459737 3.5438565869 3.5969754326 3.6424295543 
3.6816134988 3.7156421835 3.7454049075 4.7123889804 4.8004512023 4.6243267584 4.9155579264 4.7123889804 4.5092200343 
5.0674903122 4.8353719722 4.5894059886 4.3572876485 5.2659633393 5.0120975802 4.7123889804 4.4126803806 4.1588146215 
5.5125918794 5.2659633393 4.9155579264 4.5092200343 4.1588146215 3.9121860814 5.7885595667 5.6029703303 5.2659633393 
4.7123889804 4.1588146215 3.8218076305 3.6362183941 6.0560271438 5.9702140275 5.7885595667 5.2659633393 4.1588146215 
3.6362183941 3.4545639333 3.368750817 0.22715816343 0.49462574053 0.3129712797 0.77059342779 0.68021497688 0.49462574053 
1.0172219679 1.0172219679 1.0172219679 1.0172219679 1.2156949949 1.271087727 1.3676273807 1.5707963268 2.1243706857 
1.3676273807 1.447813335 1.5707963268 1.7739652728 2.1243706857 2.6469669131 1.4827341049 1.5707963268 1.6937793186 
1.8705049266 2.1243706857 2.4613776767 2.8286213739 1.5707963268 1.6588585487 1.7739652728 1.9258976586 2.1243706857 
2.3709992258 2.6469669131 2.9144344902 1.7563855631 1.8785697967 1.8563003522 2.0024758186 1.9913306621 1.9779583789 
2.1243706857 2.1243706857 2.1243706857 2.1243706857 2.2408671392 2.2510113037 2.2630782103 2.2776669786 2.295651703 
2.3494282469 2.3680303173 2.3899057108 2.4159740166 2.4475202889 2.486385773 2.448570738 2.4736848652 2.5028148801 
2.5369440334 2.5773755784 2.6258554882 2.6847397011 2.5377803997 2.5675431237 2.6015718084 2.6407557529 2.6862098746 
2.7393287203 2.8018393335 2.8758309421 1.6743954455 1.6743954455 1.7840462375 1.6743954455 1.7840462375 1.8974821136 
1.6743954455 1.7840462375 1.8974821136 2.0119052671 1.6743954455 1.7840462375 1.8974821136 2.0119052671 2.1243706857 
1.6743954455 1.7840462375 1.8974821136 2.0119052671 2.1243706857 2.232221744 1.6743954455 1.7840462375 1.8974821136 
2.0119052671 2.1243706857 2.232221744 2.3334263672 1.6743954455 1.7840462375 1.8974821136 2.0119052671 2.1243706857 
2.232221744 2.3334263672 2.426721652 1.4671972081 1.3575464161 1.4671972081 1.24411054 1.3575464161 1.4671972081 
1.1296873865 1.24411054 1.3575464161 1.4671972081 1.0172219679 1.1296873865 1.24411054 1.3575464161 1.4671972081 
0.90937090954 1.0172219679 1.1296873865 1.24411054 1.3575464161 1.4671972081 0.80816628637 0.90937090954 1.0172219679 
1.1296873865 1.24411054 1.3575464161 1.4671972081 0.71487100155 0.80816628637 0.90937090954 1.0172219679 1.1296873865 
1.24411054 1.3575464161 1.4671972081 0.60381225391 0.57404952988 0.69302191562 0.54002084522 0.66790778838 0.79216440667 
0.50083690068 0.63877777351 0.77356233629 0.90072551443 0.45538277901 0.60464862014 0.75168694275 0.89058134991 1.0172219679 
0.40226393329 0.56421707518 0.72561863695 0.87851444325 1.0172219679 1.139116835 0.33975332011 0.51573716537 0.69407236469 
0.86392567495 1.0172219679 1.1502619915 1.2630228569 0.26576171152 0.45685295248 0.6552068806 0.84594095064 1.0172219679 
1.1636342747 1.2852923014 1.3852070904 0.22715816343 0.3129712797 0.49462574053 0.49462574053 0.68021497688 0.77059342779 
1.0172219679 1.0172219679 1.0172219679 1.0172219679 2.1243706857 1.5707963268 1.3676273807 1.271087727 1.2156949949 
2.6469669131 2.1243706857 1.7739652728 1.5707963268 1.447813335 1.3676273807 2.8286213739 2.4613776767 2.1243706857 
1.8705049266 1.6937793186 1.5707963268 1.4827341049 2.9144344902 2.6469669131 2.3709992258 2.1243706857 1.9258976586 
1.7739652728 1.6588585487 1.5707963268 1.7563855631 1.8563003522 1.8785697967 1.9779583789 1.9913306621 2.0024758186 
2.1243706857 2.1243706857 2.1243706857 2.1243706857 2.295651703 2.2776669786 2.2630782103 2.2510113037 2.2408671392 
2.486385773 2.4475202889 2.4159740166 2.3899057108 2.3680303173 2.3494282469 2.6847397011 2.6258554882 2.5773755784 
2.5369440334 2.5028148801 2.4736848652 2.448570738 2.8758309421 2.8018393335 2.7393287203 2.6862098746 2.6407557529 
2.6015718084 2.5675431237 2.5377803997 5.8604937156 5.901393709 5.9723133995 5.9473927383 6.0216547488 6.0927478736 
5.9992719463 6.0767621038 6.1501452836 6.2190157008 6.0578962336 6.1383094565 6.2134963469 0 0.064169606361 
6.1241815303 6.206940195 6.2831853072 0.069688960264 0.13304002361 0.19043743361 6.1990255847 0 0.07624511221 
0.14487585072 0.20642320337 0.26153055843 0.3108719077 0 0.084159722458 0.15900377685 0.22528907359 0.28391336087 
0.3357925689 0.38179159818 0.42269159155 5.8604937156 5.9723133995 5.901393709 6.0927478736 6.0216547488 5.9473927383 
6.2190157008 6.1501452836 6.0767621038 5.9992719463 0.064169606361 0 6.2134963469 6.1383094565 6.0578962336 
0.19043743361 0.13304002361 0.069688960264 6.2831853072 6.206940195 6.1241815303 0.3108719077 0.26153055843 0.20642320337 
0.14487585072 0.07624511221 6.2831853072 6.1990255847 0.42269159155 0.38179159818 0.3357925689 0.28391336087 0.22528907359 
0.15900377685 0.084159722458 0 5.6793730533 5.7091357773 5.5901633916 5.743164462 5.6152775188 5.4910209005 
5.7823484065 5.6444075337 5.5096229709 5.3824597928 5.8278025282 5.678536687 5.5314983644 5.3926039573 5.2659633393 
5.8809213739 5.718968232 5.5575666702 5.4046708639 5.2659633393 5.1440684722 5.9434319871 5.7674481418 5.5891129425 
5.4192596322 5.2659633393 5.1329233157 5.0201624502 6.0174235957 5.8263323547 5.6279784266 5.4372443565 5.2659633393 
5.1195510325 4.9978930058 4.8979782167 1.3852070904 1.2852923014 1.2630228569 1.1636342747 1.1502619915 1.139116835 
1.0172219679 1.0172219679 1.0172219679 1.0172219679 0.84594095064 0.86392567495 0.87851444325 0.89058134991 0.90072551443 
0.6552068806 0.69407236469 0.72561863695 0.75168694275 0.77356233629 0.79216440667 0.45685295248 0.51573716537 0.56421707518 
0.60464862014 0.63877777351 0.66790778838 0.69302191562 0.26576171152 0.33975332011 0.40226393329 0.45538277901 0.50083690068 
0.54002084522 0.57404952988 0.60381225391 
_paraPhiHalf 1 1002 double
0 3.1415926536 0 3.1415926536 1.5707963268 1.5707963268 1.5707963268 1.5707963268 2.5880182947 
0.5535743589 2.5880182947 0.5535743589 0 0 0 0 3.1415926536 3.1415926536 
3.1415926536 3.1415926536 3.1415926536 0.17788134 0.38438696014 0.60631181711 0.82323535693 1.0172219679 1.1799687454 
1.3118704726 1.4175000338 1.5022335207 0.17788134 0.38438696014 0.60631181711 0.82323535693 1.0172219679 1.1799687454 
1.3118704726 1.4175000338 1.5022335207 0.093902416448 0.17615329733 0.2478725152 0.31035131605 0.36486382811 0.41257334776 
0.45449736604 0.4915044461 0.52432611754 0.093902416448 0.17615329733 0.2478725152 0.31035131605 0.36486382811 0.41257334776 
0.45449736604 0.4915044461 0.52432611754 2.9637113136 2.7572056934 2.5352808365 2.3183572967 2.1243706857 1.9616239082 
1.829722181 1.7240926197 1.6393591329 2.9637113136 2.7572056934 2.5352808365 2.3183572967 2.1243706857 1.9616239082 
1.829722181 1.7240926197 1.6393591329 3.0476902371 2.9654393563 2.8937201384 2.8312413375 2.7767288255 2.7290193058 
2.6870952876 2.6500882075 2.617266536 3.0476902371 2.9654393563 2.8937201384 2.8312413375 2.7767288255 2.7290193058 
2.6870952876 2.6500882075 2.617266536 0 0 0 0 3.1415926536 3.1415926536 
3.1415926536 3.1415926536 3.1415926536 0.17788134 0.38438696014 0.60631181711 0.82323535693 1.0172219679 1.1799687454 
1.3118704726 1.4175000338 1.5022335207 0.17788134 0.38438696014 0.60631181711 0.82323535693 1.0172219679 1.1799687454 
1.3118704726 1.4175000338 1.5022335207 0.093902416448 0.17615329733 0.2478725152 0.31035131605 0.36486382811 0.41257334776 
0.45449736604 0.4915044461 0.52432611754 0.093902416448 0.17615329733 0.2478725152 0.31035131605 0.36486382811 0.41257334776 
0.45449736604 0.4915044461 0.52432611754 2.9637113136 2.7572056934 2.5352808365 2.3183572967 2.1243706857 1.9616239082 
1.829722181 1.7240926197 1.6393591329 2.9637113136 2.7572056934 2.5352808365 2.3183572967 2.1243706857 1.9616239082 
1.829722181 1.7240926197 1.6393591329 3.0476902371 2.9654393563 2.8937201384 2.8312413375 2.7767288255 2.7290193058 
2.6870952876 2.6500882075 2.617266536 3.0476902371 2.9654393563 2.8937201384 2.8312413375 2.7767288255 2.7290193058 
2.6870952876 2.6500882075 2.617266536 1.5707963268 1.5707963268 1.5707963268 1.5707963268 1.5707963268 1.5707963268 
1.5707963268 1.5707963268 1.5707963268 1.6743954455 1.7840462375 1.8974821136 2.0119052671 2.1243706857 2.232221744 
2.3334263672 2.426721652 2.5115728246 1.4671972081 1.3575464161 1.24411054 1.1296873865 1.0172219679 0.90937090954 
0.80816628637 0.71487100155 0.63001982895 1.6743954455 1.7840462375 1.8974821136 2.0119052671 2.1243706857 2.232221744 
2.3334263672 2.426721652 2.5115728246 1.4671972081 1.3575464161 1.24411054 1.1296873865 1.0172219679 0.90937090954 
0.80816628637 0.71487100155 0.63001982895 1.5707963268 1.5707963268 1.5707963268 1.5707963268 1.5707963268 1.5707963268 
1.5707963268 1.5707963268 1.5707963268 1.6743954455 1.7840462375 1.8974821136 2.0119052671 2.1243706857 2.232221744 
2.3334263672 2.426721652 2.5115728246 1.4671972081 1.3575464161 1.24411054 1.1296873865 1.0172219679 0.90937090954 
0.80816628637 0.71487100155 0.63001982895 1.6743954455 1.7840462375 1.8974821136 2.0119052671 2.1243706857 2.232221744 
2.3334263672 2.426721652 2.5115728246 1.4671972081 1.3575464161 1.24411054 1.1296873865 1.0172219679 0.90937090954 
0.80816628637 0.71487100155 0.63001982895 2.6824132222 2.7864913217 2.8992382033 3.0186096618 3.1415926536 3.0186096618 
2.8992382033 2.7864913217 2.6824132222 0.45917943135 0.35510133185 0.2423544503 0.12298299178 0 0.12298299178 
0.2423544503 0.35510133185 0.45917943135 0.22715816343 0.49462574053 0.3129712797 0.77059342779 0.68021497688 0.49462574053 
1.0172219679 1.0172219679 1.0172219679 1.0172219679 1.2156949949 1.271087727 1.3676273807 1.5707963268 2.1243706857 
1.3676273807 1.447813335 1.5707963268 1.7739652728 2.1243706857 2.6469669131 1.4827341049 1.5707963268 1.6937793186 
1.8705049266 2.1243706857 2.4613776767 2.8286213739 1.5707963268 1.6588585487 1.7739652728 1.9258976586 2.1243706857 
2.3709992258 2.6469669131 2.9144344902 0.26576171152 0.33975332011 0.45685295248 0.40226393329 0.51573716537 0.6552068806 
0.45538277901 0.56421707518 0.69407236469 0.84594095064 0.50083690068 0.60464862014 0.72561863695 0.86392567495 1.0172219679 
0.54002084522 0.63877777351 0.75168694275 0.87851444325 1.0172219679 1.1636342747 0.57404952988 0.66790778838 0.77356233629 
0.89058134991 1.0172219679 1.1502619915 1.2852923014 0.60381225391 0.69302191562 0.79216440667 0.90072551443 1.0172219679 
1.139116835 1.2630228569 1.3852070904 0.71487100155 0.80816628637 0.80816628637 0.90937090954 0.90937090954 0.90937090954 
1.0172219679 1.0172219679 1.0172219679 1.0172219679 1.1296873865 1.1296873865 1.1296873865 1.1296873865 1.1296873865 
1.24411054 1.24411054 1.24411054 1.24411054 1.24411054 1.24411054 1.3575464161 1.3575464161 1.3575464161 
1.3575464161 1.3575464161 1.3575464161 1.3575464161 1.4671972081 1.4671972081 1.4671972081 1.4671972081 1.4671972081 
1.4671972081 1.4671972081 1.4671972081 1.6743954455 1.6743954455 1.7840462375 1.6743954455 1.7840462375 1.8974821136 
1.6743954455 1.7840462375 1.8974821136 2.0119052671 1.6743954455 1.7840462375 1.8974821136 2.0119052671 2.1243706857 
1.6743954455 1.7840462375 1.8974821136 2.0119052671 2.1243706857 2.232221744 1.6743954455 1.7840462375 1.8974821136 
2.0119052671 2.1243706857 2.232221744 2.3334263672 1.6743954455 1.7840462375 1.8974821136 2.0119052671 2.1243706857 
2.232221744 2.3334263672 2.426721652 1.7563855631 1.8785697967 1.8563003522 2.0024758186 1.9913306621 1.9779583789 
2.1243706857 2.1243706857 2.1243706857 2.1243706857 2.2408671392 2.2510113037 2.2630782103 2.2776669786 2.295651703 
2.3494282469 2.3680303173 2.3899057108 2.4159740166 2.4475202889 2.486385773 2.448570738 2.4736848652 2.5028148801 
2.5369440334 2.5773755784 2.6258554882 2.6847397011 2.5377803997 2.5675431237 2.6015718084 2.6407557529 2.6862098746 
2.7393287203 2.8018393335 2.8758309421 2.718901062 2.8307207459 2.7598010554 2.95115522 2.8800620952 2.8058000847 
3.0774230472 3.00855263 2.9351694502 2.8576792927 3.0774230472 3.1415926536 3.0719036933 2.9967168029 2.91630358 
2.95115522 3.00855263 3.0719036933 3.1415926536 3.0653475414 2.9825888767 2.8307207459 2.8800620952 2.9351694502 
2.9967168029 3.0653475414 3.1415926536 3.0574329311 2.718901062 2.7598010554 2.8058000847 2.8576792927 2.91630358 
2.9825888767 3.0574329311 3.1415926536 2.718901062 2.7598010554 2.8307207459 2.8058000847 2.8800620952 2.95115522 
2.8576792927 2.9351694502 3.00855263 3.0774230472 2.91630358 2.9967168029 3.0719036933 3.1415926536 3.0774230472 
2.9825888767 3.0653475414 3.1415926536 3.0719036933 3.00855263 2.95115522 3.0574329311 3.1415926536 3.0653475414 