# vtk DataFile Version 5.1
vtk output
ASCII
DATASET POLYDATA
POINTS 100 float
-106.862 -82.2151 98.074 -106.866 -82.2412 98.0725 -106.878 -82.3159 98.0661 
-106.901 -82.4341 98.0551 -106.937 -82.5884 98.0394 -106.989 -82.769 98.0189 
-107.06 -82.9655 97.9933 -107.154 -83.1674 97.962 -107.274 -83.3653 97.924 
-107.42 -83.5515 97.878 -107.596 -83.7209 97.8224 -107.8 -83.871 97.7553 
-108.032 -84.002 97.6749 -108.29 -84.1162 97.5794 -108.57 -84.2175 97.4675 
-108.87 -84.3107 97.3382 -109.187 -84.4006 97.1912 -109.516 -84.4916 97.0267 
-109.856 -84.5868 96.8458 -110.203 -84.688 96.6499 -110.555 -84.7954 96.4408 
-110.912 -84.9081 96.2205 -111.274 -85.0247 95.9907 -111.639 -85.1431 95.753 
-112.009 -85.2622 95.5086 -112.385 -85.3814 95.258 -112.765 -85.5019 95.0013 
-113.151 -85.6264 94.738 -113.542 -85.759 94.4675 -113.935 -85.9054 94.1888 
-114.331 -86.072 93.9014 -114.726 -86.2654 93.605 -115.118 -86.4917 93.2998 
-115.506 -86.7559 92.9868 -115.886 -87.0616 92.6676 -116.257 -87.4101 92.3443 
-116.618 -87.8011 92.0196 -116.969 -88.2322 91.696 -117.309 -88.6996 91.376 
-117.641 -89.1988 91.0615 -117.965 -89.7249 90.7537 -118.283 -90.2736 90.4529 
-118.597 -90.8416 90.1581 -118.909 -91.4267 89.8676 -119.22 -92.0289 89.5787 
-119.53 -92.6491 89.2882 -119.838 -93.29 88.9928 -120.144 -93.9548 88.6892 
-120.445 -94.647 88.375 -120.737 -95.3696 88.0483 -121.017 -96.1246 87.7086 
-121.281 -96.9124 87.3565 -121.524 -97.7313 86.9938 -121.742 -98.578 86.6234 
-121.932 -99.4467 86.2487 -122.091 -100.33 85.8737 -122.217 -101.22 85.5022 
-122.31 -102.107 85.1377 -122.369 -102.982 84.783 -122.397 -103.836 84.4399 
-122.394 -104.66 84.1094 -122.365 -105.447 83.7912 -122.312 -106.192 83.4844 
-122.239 -106.891 83.1874 -122.151 -107.541 82.8982 -122.05 -108.139 82.615 
-121.942 -108.686 82.3359 -121.828 -109.183 82.0597 -121.713 -109.632 81.7856 
-121.599 -110.035 81.5135 -121.487 -110.395 81.2437 -121.381 -110.719 80.977 
-121.282 -111.011 80.7142 -121.191 -111.277 80.4563 -121.11 -111.525 80.2039 
-121.038 -111.761 79.9574 -120.977 -111.993 79.7167 -120.927 -112.227 79.4814 
-120.888 -112.468 79.251 -120.859 -112.719 79.0247 -120.839 -112.982 78.802 
-120.826 -113.256 78.5827 -120.821 -113.536 78.3672 -120.819 -113.818 78.1563 
-120.821 -114.093 77.9517 -120.823 -114.353 77.7555 -120.824 -114.588 77.5701 
-120.822 -114.789 77.3983 -120.816 -114.949 77.2425 -120.806 -115.064 77.1048 
-120.792 -115.131 76.9865 -120.772 -115.154 76.888 -120.75 -115.136 76.809 
-120.725 -115.086 76.748 -120.7 -115.014 76.7029 -120.675 -114.933 76.6711 
-120.654 -114.854 76.6498 -120.637 -114.789 76.6363 -120.626 -114.745 76.6284 
-120.622 -114.729 76.6247 
LINES 2 100
OFFSETS vtktypeint64
0 100 
CONNECTIVITY vtktypeint64
0 1 2 3 4 5 6 7 8 
9 10 11 12 13 14 15 16 17 
18 19 20 21 22 23 24 25 26 
27 28 29 30 31 32 33 34 35 
36 37 38 39 40 41 42 43 44 
45 46 47 48 49 50 51 52 53 
54 55 56 57 58 59 60 61 62 
63 64 65 66 67 68 69 70 71 
72 73 74 75 76 77 78 79 80 
81 82 83 84 85 86 87 88 89 
90 91 92 93 94 95 96 97 98 
99 
POINT_DATA 100
FIELD FieldData 3
_theta 1 100 double
0 0.031733259127 0.063466518254 0.095199777382 0.12693303651 0.15866629564 0.19039955476 0.22213281389 0.25386607302 
0.28559933214 0.31733259127 0.3490658504 0.38079910953 0.41253236865 0.44426562778 0.47599888691 0.50773214603 0.53946540516 
0.57119866429 0.60293192342 0.63466518254 0.66639844167 0.6981317008 0.72986495992 0.76159821905 0.79333147818 0.82506473731 
0.85679799643 0.88853125556 0.92026451469 0.95199777382 0.98373103294 1.0154642921 1.0471975512 1.0789308103 1.1106640695 
1.1423973286 1.1741305877 1.2058638468 1.237597106 1.2693303651 1.3010636242 1.3327968833 1.3645301425 1.3962634016 
1.4279966607 1.4597299198 1.491463179 1.5231964381 1.5549296972 1.5866629564 1.6183962155 1.6501294746 1.6818627337 
1.7135959929 1.745329252 1.7770625111 1.8087957702 1.8405290294 1.8722622885 1.9039955476 1.9357288068 1.9674620659 
1.999195325 2.0309285841 2.0626618433 2.0943951024 2.1261283615 2.1578616206 2.1895948798 2.2213281389 2.253061398 
2.2847946572 2.3165279163 2.3482611754 2.3799944345 2.4117276937 2.4434609528 2.4751942119 2.506927471 2.5386607302 
2.5703939893 2.6021272484 2.6338605076 2.6655937667 2.6973270258 2.7290602849 2.7607935441 2.7925268032 2.8242600623 
2.8559933214 2.8877265806 2.9194598397 2.9511930988 2.982926358 3.0146596171 3.0463928762 3.0781261353 3.1098593945 
3.1415926536 
_radius 1 100 double
1.406802843e-13 0.42127681753 0.83880030432 1.2492219241 1.6496927893 2.0378107838 2.4113778292 2.7680884112 3.1053099584 
3.4200772502 3.7093328698 3.9703532141 4.2012396837 4.4013370148 4.5714599879 4.713856502 4.8318981544 4.9295547424 
5.0107592454 5.0787895969 5.1357785558 5.1824256966 5.2179483825 5.2402857336 5.2465556858 5.2337434026 5.1995583714 
5.1433418821 5.0668531192 4.9747281055 4.8743979046 4.7752737727 4.6871037429 4.6177432225 4.571245667 4.5474151584 
4.5428776547 4.5526405468 4.5713447441 4.5939689271 4.6159924953 4.6332162326 4.6415991527 4.6374465696 4.6180322604 
4.5824012284 4.5319259274 4.4703076305 4.4030232781 4.3364746882 4.2771457981 4.230973331 4.2030345741 4.1975913742 
4.2184035916 4.2690165603 4.3526585369 4.471553042 4.6255942895 4.8106316628 5.0174895714 5.232983404 5.4425177163 
5.6328174123 5.7939892164 5.9206819438 6.012256807 6.0720496498 6.105979119 6.1208424932 6.1226641753 6.1154275971 
6.1004135008 6.0762003531 6.0392166633 5.9846370638 5.9074047315 5.8032076765 5.6692863664 5.5049822906 5.3119595217 
5.0940612164 4.8568081609 4.6066034404 4.3497673649 4.0915783567 3.8355193841 3.5828986766 3.3329143764 3.083096722 
2.829958256 2.5696657702 2.2986102152 2.0138399023 1.713384557 1.3965077875 1.0638911924 0.71770791646 0.36152509423 
3.3418177783e-13 
_area 1 100 double
0 0.30379059219 1.2310161538 2.8228886036 5.1298977087 8.1922026571 12.021625131 16.58821479 21.813319856 
27.570447875 33.693983345 39.994328796 46.276946359 52.362251461 58.103021579 63.395741272 68.182574337 72.442521066 
76.174120483 79.375438522 82.027104653 84.082120326 85.465304548 86.084946067 85.856208796 84.729758147 82.716237298 
79.902257183 76.453221461 72.598150864 68.624695037 64.902076682 61.873188009 59.931567458 59.229433025 59.635155262 
60.873967568 62.672732357 64.799130896 67.02965256 69.127156255 70.854883741 72.012705322 72.483519614 72.259178559 
71.418445816 70.081030193 68.346632744 66.387287145 64.401958093 62.580764988 61.082698341 60.010868958 59.409034069 
59.31809962 59.90475301 61.568603161 64.817426071 69.930261188 76.526085446 83.874489009 91.32920443 98.372136809 
104.62580861 109.86342208 113.99707251 117.05764548 119.18788451 120.61087197 121.55247295 122.16631617 122.49482556 
122.46242154 121.89493761 120.56133581 118.22902137 114.71997072 109.95543586 103.98122247 96.970049241 89.200324956 
81.013103018 72.755166295 64.726438525 57.148042774 50.150304112 43.774641185 37.98771473 32.706584005 27.83227259 
23.285063262 19.028161639 15.06976699 11.448334046 8.2148226959 5.4240001568 3.1372533825 1.4256957448 0.36158622334 
0 
