# vtk DataFile Version 5.1
vtk output
ASCII
DATASET POLYDATA
POINTS 100 float
-121.056 -78.4066 105.641 -121.059 -78.4362 105.636 -121.067 -78.5197 105.615 
-121.08 -78.6502 105.577 -121.098 -78.8169 105.52 -121.122 -79.0063 105.441 
-121.152 -79.2038 105.337 -121.187 -79.3951 105.204 -121.227 -79.5675 105.042 
-121.273 -79.7116 104.85 -121.324 -79.8217 104.627 -121.379 -79.8964 104.377 
-121.439 -79.9383 104.101 -121.503 -79.9537 103.805 -121.571 -79.9513 103.492 
-121.643 -79.9415 103.168 -121.721 -79.9344 102.838 -121.805 -79.9397 102.504 
-121.896 -79.9647 102.17 -121.996 -80.0144 101.837 -122.106 -80.0912 101.507 
-122.227 -80.1946 101.177 -122.359 -80.3225 100.846 -122.503 -80.4711 100.51 
-122.658 -80.6366 100.168 -122.823 -80.8152 99.8161 -122.995 -81.0047 99.4515 
-123.173 -81.2041 99.073 -123.353 -81.4143 98.6798 -123.533 -81.638 98.2724 
-123.71 -81.8786 97.8525 -123.88 -82.1404 97.4223 -124.043 -82.4273 96.9848 
-124.198 -82.7422 96.543 -124.344 -83.0865 96.0999 -124.482 -83.4597 95.658 
-124.614 -83.8595 95.2189 -124.741 -84.2818 94.7836 -124.868 -84.7216 94.352 
-124.995 -85.1735 93.9232 -125.126 -85.6329 93.4958 -125.26 -86.0965 93.0679 
-125.4 -86.5631 92.6378 -125.545 -87.0343 92.2041 -125.692 -87.5141 91.7659 
-125.84 -88.0092 91.3235 -125.984 -88.5278 90.8778 -126.122 -89.0791 90.4309 
-126.247 -89.672 89.9856 -126.357 -90.3138 89.5455 -126.447 -91.0093 89.1144 
-126.513 -91.7598 88.696 -126.555 -92.5627 88.2936 -126.569 -93.4114 87.9099 
-126.556 -94.2952 87.5465 -126.518 -95.2008 87.2041 -126.455 -96.1123 86.8818 
-126.371 -97.0135 86.5783 -126.267 -97.8884 86.2908 -126.148 -98.7232 86.0163 
-126.017 -99.5067 85.7514 -125.877 -100.232 85.4926 -125.729 -100.894 85.2368 
-125.578 -101.496 84.9815 -125.424 -102.04 84.7249 -125.269 -102.535 84.4662 
-125.114 -102.988 84.205 -124.959 -103.412 83.9419 -124.807 -103.814 83.6779 
-124.657 -104.205 83.4145 -124.51 -104.592 83.1529 -124.367 -104.978 82.8945 
-124.228 -105.367 82.6401 -124.095 -105.76 82.3902 -123.969 -106.154 82.1447 
-123.85 -106.546 81.9032 -123.739 -106.933 81.6648 -123.637 -107.312 81.4282 
-123.544 -107.678 81.1924 -123.46 -108.03 80.9563 -123.386 -108.366 80.7193 
-123.321 -108.686 80.4811 -123.266 -108.99 80.2422 -123.218 -109.281 80.0035 
-123.18 -109.559 79.7667 -123.149 -109.828 79.5337 -123.125 -110.089 79.3069 
-123.108 -110.342 79.089 -123.098 -110.589 78.8824 -123.093 -110.828 78.6896 
-123.093 -111.059 78.5126 -123.097 -111.279 78.353 -123.104 -111.484 78.2119 
-123.113 -111.672 78.0898 -123.123 -111.838 77.987 -123.132 -111.98 77.9033 
-123.141 -112.094 77.8383 -123.148 -112.177 77.7916 -123.152 -112.227 77.7626 
-123.152 -112.243 77.7513 
LINES 2 100
OFFSETS vtktypeint64
0 100 
CONNECTIVITY vtktypeint64
0 1 2 3 4 5 6 7 8 
9 10 11 12 13 14 15 16 17 
18 19 20 21 22 23 24 25 26 
27 28 29 30 31 32 33 34 35 
36 37 38 39 40 41 42 43 44 
45 46 47 48 49 50 51 52 53 
54 55 56 57 58 59 60 61 62 
63 64 65 66 67 68 69 70 71 
72 73 74 75 76 77 78 79 80 
81 82 83 84 85 86 87 88 89 
90 91 92 93 94 95 96 97 98 
99 
POINT_DATA 100
FIELD FieldData 3
_theta 1 100 double
0 0.031733259127 0.063466518254 0.095199777382 0.12693303651 0.15866629564 0.19039955476 0.22213281389 0.25386607302 
0.28559933214 0.31733259127 0.3490658504 0.38079910953 0.41253236865 0.44426562778 0.47599888691 0.50773214603 0.53946540516 
0.57119866429 0.60293192342 0.63466518254 0.66639844167 0.6981317008 0.72986495992 0.76159821905 0.79333147818 0.82506473731 
0.85679799643 0.88853125556 0.92026451469 0.95199777382 0.98373103294 1.0154642921 1.0471975512 1.0789308103 1.1106640695 
1.1423973286 1.1741305877 1.2058638468 1.237597106 1.2693303651 1.3010636242 1.3327968833 1.3645301425 1.3962634016 
1.4279966607 1.4597299198 1.491463179 1.5231964381 1.5549296972 1.5866629564 1.6183962155 1.6501294746 1.6818627337 
1.7135959929 1.745329252 1.7770625111 1.8087957702 1.8405290294 1.8722622885 1.9039955476 1.9357288068 1.9674620659 
1.999195325 2.0309285841 2.0626618433 2.0943951024 2.1261283615 2.1578616206 2.1895948798 2.2213281389 2.253061398 
2.2847946572 2.3165279163 2.3482611754 2.3799944345 2.4117276937 2.4434609528 2.4751942119 2.506927471 2.5386607302 
2.5703939893 2.6021272484 2.6338605076 2.6655937667 2.6973270258 2.7290602849 2.7607935441 2.7925268032 2.8242600623 
2.8559933214 2.8877265806 2.9194598397 2.9511930988 2.982926358 3.0146596171 3.0463928762 3.0781261353 3.1098593945 
3.1415926536 
_radius 1 100 double
1.9012827807e-13 0.35857722928 0.71242949411 1.0571162973 1.388957358 1.7052570189 2.0043754287 2.285635906 2.5490862639 
2.7951716755 3.0244145925 3.2372041708 3.4337565429 3.6142353497 3.778958517 3.9285909711 4.0642340995 4.1873558709 
4.2995514156 4.4021802173 4.4959817149 4.5808030844 4.6555616538 4.7185051079 4.7677367234 4.8018721594 4.8206351472 
4.8252108258 4.8182488799 4.8035141537 4.785288191 4.7676961087 4.7541356903 4.7469168501 4.7471237857 4.7546467665 
4.7683195588 4.786122461 4.8054359742 4.8233418875 4.8369721908 4.8438993822 4.8425315054 4.8324269967 4.8144199918 
4.7905042053 4.7635608226 4.7371055431 4.7151473554 4.7020774739 4.7024294389 4.7204337785 4.7594599199 4.8215778671 
4.9074688604 5.0167248254 5.148323634 5.3009317134 5.4726324345 5.6596986308 5.8547739664 6.0462963192 6.2204552355 
6.3642648426 6.4678091991 6.5252549963 6.5350343391 6.4995304683 6.4244054094 6.3176314154 6.1883061458 6.0453921255 
5.8965723973 5.7474088059 5.6009084188 5.4574938503 5.315351213 5.1712324867 5.0217204182 4.8645115394 4.6990594867 
4.5263647834 4.3481926269 4.166132143 3.9808329596 3.7916382204 3.5967018258 3.3935041539 3.1795161693 2.9527344636 
2.7119399945 2.4566985069 2.1872148578 1.904162755 1.6085682856 1.3017665716 0.98540480263 0.66144771249 0.33215207718 
2.1410811504e-13 
_area 1 100 double
0 0.35207111235 1.3972817125 3.1049875321 5.4304922072 8.3201697146 11.712374564 15.532789103 19.686577142 
24.052661655 28.485748682 32.828842662 36.934280585 40.68753023 44.02747657 46.958992554 49.554337822 51.937475864 
54.246854724 56.585826075 58.983340398 61.380298985 63.641114955 65.587480164 67.050642096 67.929469048 68.227417419 
68.066499745 67.637020386 67.057447217 66.504119914 66.15570918 66.037560983 66.140305956 66.44234917 66.894311163 
67.420145355 67.944173694 68.392661537 68.694130577 68.851955972 68.953007638 69.10207371 69.355819462 69.714088789 
70.163174676 70.718509685 71.414271237 72.27842629 73.377017241 74.818828442 76.68183848 78.960646883 81.616436652 
84.660257654 88.198550308 92.421179586 97.511360066 103.49637278 110.14355674 117.06543936 123.82027544 129.91996885 
134.86059674 138.20820481 139.69423706 139.26551024 137.0759389 133.43848579 128.76119768 123.48549131 118.03216523 
112.7357329 107.76603945 103.12769448 98.711551609 94.31761524 89.705236075 84.693923487 79.235493092 73.412005421 
67.392992379 61.385053531 55.585419718 50.143928984 45.136925991 40.554139232 36.295984336 32.193131932 28.083288867 
23.904241331 19.709657631 15.623813062 11.793124307 8.3549280889 5.4220055722 3.0773064793 1.3748264303 0.34459161051 
0 
