# vtk DataFile Version 5.1
vtk output
ASCII
DATASET POLYDATA
POINTS 1002 float
-10.9131 -0.372903 -3.45899 11.4381 1.21906 -3.55106 -12.0296 0.360584 4.41265 
12.3898 0.522711 1.54624 -0.601126 6.59325 -1.89026 0.256549 7.12403 2.11451 
-1.19142 -2.20215 -1.48321 -0.660014 -1.78941 0.778274 18.4356 2.12449 -0.362454 
-18.215 2.94404 0.641761 18.3158 -9.74922 1.40438 -18.3781 -9.21607 1.30395 
-9.51337 0.124178 -3.20272 -7.84315 0.648317 -3.12977 -5.91736 1.11093 -3.24525 
-3.77959 1.44819 -3.20623 -1.47324 1.70237 -2.7773 1.01103 1.93737 -2.33328 
3.70477 2.08276 -2.37569 6.50951 2.0036 -2.83088 9.16628 1.68167 -3.29056 
-10.2852 0.423764 -3.43884 -9.41493 1.27283 -3.46088 -8.41272 2.16536 -3.5152 
-7.33601 3.10974 -3.69695 -6.16333 4.06166 -3.96719 -4.97517 4.90721 -3.98623 
-3.90791 5.55978 -3.54248 -2.90733 6.01853 -2.87011 -1.81207 6.33768 -2.29122 
-10.5288 -0.843157 -3.34254 -9.95345 -1.29689 -3.28687 -9.2673 -1.71826 -3.27394 
-8.56532 -2.06057 -3.12833 -7.75386 -2.2618 -2.79087 -6.67075 -2.33588 -2.4631 
-5.38131 -2.36217 -2.26142 -4.05244 -2.36081 -2.04934 -2.68174 -2.29962 -1.74952 
-11.8998 -0.331835 -3.65459 -12.9044 -0.218833 -3.69736 -13.8908 -0.0430918 -3.58455 
-14.8359 0.203508 -3.37266 -15.7221 0.568424 -3.06257 -16.5275 1.08223 -2.59313 
-17.2328 1.6801 -1.92548 -17.797 2.23294 -1.0881 -18.1432 2.65473 -0.186634 
-11.9524 -1.17128 -3.71545 -12.9478 -2.00875 -3.88404 -14.0194 -2.84644 -3.70858 
-15.1379 -3.72725 -3.20906 -16.0994 -4.70689 -2.67921 -16.8673 -5.72991 -2.25736 
-17.5758 -6.70767 -1.75591 -18.1593 -7.64289 -0.965487 -18.4267 -8.52357 0.113617 
10.5605 1.83927 -3.52478 9.45867 2.46046 -3.43013 8.08935 3.11372 -3.22711 
6.56421 3.80963 -2.90947 5.11197 4.46851 -2.53929 3.8388 5.02733 -2.23727 
2.65898 5.52647 -2.08031 1.49322 5.98352 -2.01925 0.381027 6.34344 -1.96269 
10.9042 0.914531 -3.44119 10.228 0.641995 -3.31587 9.33624 0.409416 -3.17269 
8.1293 0.189383 -3.01326 6.62819 -0.0742715 -2.85998 5.00927 -0.430044 -2.6765 
3.40951 -0.875464 -2.37032 1.82587 -1.34975 -1.96734 0.259407 -1.79251 -1.63365 
12.9595 1.11638 -3.67133 14.3392 1.0279 -3.69539 15.5302 0.949313 -3.62438 
16.6259 0.949501 -3.43317 17.6933 1.12031 -3.04145 18.5505 1.37863 -2.44973 
18.9481 1.54019 -1.83337 18.9167 1.61836 -1.33121 18.6949 1.7893 -0.877348 
13.1947 0.435797 -3.62077 14.9305 -0.500331 -3.65657 16.5411 -1.51998 -3.65774 
17.7907 -2.61159 -3.41115 18.4884 -3.78082 -2.62015 18.7609 -4.95637 -1.36188 
18.8764 -6.10902 -0.149943 18.8838 -7.33442 0.629689 18.6914 -8.62595 1.05485 
-10.3958 0.809828 4.43505 -8.21448 1.28577 3.91325 -5.67632 1.72877 3.17161 
-3.03166 2.08155 2.7045 -0.298423 2.31599 2.48302 2.61469 2.38762 2.04833 
5.56072 2.22415 1.37584 8.24347 1.80907 0.95535 10.5165 1.21145 1.06931 
-11.4964 0.976192 4.636 -10.7758 1.70129 4.67234 -9.86099 2.555 4.52034 
-8.73211 3.43934 4.2689 -7.39415 4.23387 3.99614 -5.92547 4.93113 3.69927 
-4.4066 5.57318 3.34051 -2.84872 6.15091 2.91718 -1.26648 6.65617 2.48328 
-11.5973 -0.0183708 4.32906 -11.0629 -0.508594 4.26846 -10.332 -0.987416 4.10059 
-9.33121 -1.29354 3.75918 -8.1264 -1.45924 3.33099 -6.82568 -1.63306 2.88349 
-5.40094 -1.79966 2.35556 -3.80679 -1.85102 1.74224 -2.16422 -1.81083 1.17787 
-13.0938 0.281451 4.28239 -14.1337 0.226088 4.17748 -15.165 0.31969 4.12478 
-16.1342 0.600302 3.94571 -16.9226 0.934794 3.48706 -17.4875 1.22666 2.8889 
-17.9304 1.56395 2.3791 -18.298 2.02214 1.93191 -18.4452 2.52172 1.36867 
-13.0245 -0.295594 3.81477 -13.7896 -1.05074 2.89669 -14.5469 -1.96277 2.17588 
-15.6223 -3.02754 2.114 -16.9719 -4.19534 2.59991 -18.0824 -5.48872 3.07529 
-18.5754 -6.89929 3.12647 -18.6019 -8.1778 2.72732 -18.4963 -8.98693 2.05836 
11.6374 1.21857 1.42695 10.6767 1.91754 1.33465 9.44435 2.65626 1.33491 
7.93501 3.48884 1.52363 6.30246 4.41237 1.86931 4.7874 5.32283 2.14371 
3.50054 6.07752 2.18672 2.37738 6.60594 2.10238 1.31527 6.93419 2.06532 
12 0.254243 1.25316 11.5095 -0.000800725 0.915963 10.7536 -0.141974 0.649787 
9.62262 -0.125575 0.447041 8.12461 -0.108818 0.370801 6.30122 -0.312812 0.600519 
4.28435 -0.723687 1.01882 2.35886 -1.14187 1.21311 0.727578 -1.47387 1.04596 
13.7165 0.219337 1.94145 15.0585 -0.0991869 2.03167 16.1597 -0.323978 1.88588 
16.8719 -0.279557 1.91784 17.3669 0.125963 2.3379 17.8105 0.743498 2.72782 
18.1209 1.29761 2.51236 18.2657 1.65856 1.64767 18.3619 1.89693 0.55921 
13.7958 -0.460063 2.0746 15.0352 -1.66485 2.75234 16.0532 -3.04214 3.45367 
16.8792 -4.5837 4.09781 17.5448 -6.3845 4.54806 18.0021 -8.39633 4.50782 
18.2152 -10.1375 3.84526 18.2742 -10.9794 2.87367 18.3017 -10.7337 2.01452 
-0.339838 6.87888 -1.6233 0.0296236 7.24124 -1.3542 0.447606 7.77437 -1.11996 
0.808181 8.38972 -0.840436 1.02152 8.79418 -0.336174 1.06025 8.77829 0.421369 
0.953482 8.42807 1.1837 0.753091 7.96363 1.69691 0.507535 7.519 1.95698 
1.33451 6.78589 -1.67493 3.45375 7.07542 -1.60104 5.62935 7.24467 -1.73675 
7.81534 7.02971 -2.13069 10.0289 6.37941 -2.48767 12.3443 5.49667 -2.38282 
14.7099 4.59802 -1.89775 16.7241 3.7489 -1.41066 17.9578 2.92718 -0.96329 
-2.29757 6.71457 -2.11434 -4.01728 6.98323 -2.51732 -5.78599 7.29415 -2.91609 
-7.69835 7.34969 -2.91325 -9.73895 6.90882 -2.34732 -11.7772 6.09825 -1.59424 
-13.7576 5.25374 -1.01691 -15.6291 4.50316 -0.515653 -17.1826 3.75185 0.0709871 
2.37584 7.49946 1.81435 4.35541 7.72324 1.71913 6.12703 7.52148 1.68467 
7.91422 6.84851 1.32385 10.0109 6.05467 0.624595 12.4198 5.43822 0.0953745 
14.7887 4.84899 -0.0327578 16.667 4.04232 -0.0607961 17.8387 3.0681 -0.204026 
-1.92067 6.94961 2.41062 -4.45659 6.78067 2.65778 -7.17411 6.63078 2.7976 
-9.80676 6.38258 2.92796 -12.0665 5.94982 3.04154 -13.8458 5.42548 2.88484 
-15.2929 4.91282 2.34815 -16.5403 4.35816 1.67463 -17.5354 3.68725 1.10571 
-0.98014 -2.41895 -1.40394 -0.615988 -2.73452 -1.45681 -0.320004 -3.18082 -1.4024 
-0.407042 -3.6128 -0.925646 -0.848283 -3.75308 -0.117586 -1.1851 -3.47167 0.483845 
-1.11556 -2.93711 0.58336 -0.837227 -2.41795 0.46775 -0.663757 -2.04371 0.515036 
1.45594 -1.92081 -1.43282 4.52289 -1.84858 -1.78368 7.62702 -2.17607 -2.59336 
10.2633 -3.00409 -3.31898 12.255 -4.11395 -3.12095 13.8826 -5.15194 -1.87628 
15.4022 -6.11122 -0.402763 16.7352 -7.25344 0.558817 17.712 -8.57991 1.0253 
-3.50647 -2.77896 -1.59709 -5.63835 -3.68255 -1.752 -7.29996 -4.9272 -1.98213 
-8.62243 -6.17321 -2.33046 -10.3033 -6.98919 -2.40206 -12.7237 -7.48409 -1.65932 
-15.2382 -8.13399 -0.348398 -16.9967 -8.94011 0.718311 -17.9047 -9.40516 1.18882 
1.65415 -1.69036 0.660878 4.33538 -1.76188 0.381062 7.54943 -1.98446 -0.286521 
10.8988 -2.55747 -0.742021 13.4624 -3.85139 -0.0812723 14.828 -5.85396 1.37313 
15.5918 -7.91307 2.29596 16.4518 -9.31892 2.18772 17.4593 -9.86362 1.68271 
-3.03657 -2.28452 0.956862 -5.81895 -3.16397 1.62502 -8.69719 -4.31582 2.3523 
-11.1149 -5.44109 2.37207 -12.9227 -6.4722 1.88735 -14.4658 -7.6594 1.98379 
-15.9092 -8.95694 2.74539 -17.0785 -9.82209 3.07745 -17.8751 -9.86009 2.43458 
18.7024 0.998856 0.157274 19.0256 -0.341119 0.9388 19.7844 -1.85126 1.67312 
20.7008 -3.35482 2.07543 20.9564 -4.78587 2.37392 20.3622 -6.33431 2.81945 
19.6281 -7.99522 3.00209 19.2179 -9.31064 2.54655 18.8868 -9.87954 1.83014 
-18.8999 1.91925 0.585031 -19.3721 0.882991 0.177837 -19.7206 -0.136526 -0.56727 
-20.0266 -1.3207 -1.02458 -20.2543 -2.7121 -0.61102 -20.2593 -4.05313 0.190029 
-19.9437 -5.28898 0.513643 -19.4114 -6.65438 0.467783 -18.8656 -8.09741 0.697827 
-8.64684 0.920402 -3.3779 -7.60236 1.75173 -3.60672 -6.80685 1.40257 -3.47186 
-6.56243 2.6227 -3.76282 -5.72654 2.18703 -3.70124 -4.81301 1.80195 -3.47613 
-5.52933 3.50179 -3.83001 -4.69666 2.99248 -3.66193 -3.70797 2.53241 -3.40345 
-2.62738 2.09206 -3.06592 -4.39113 4.29349 -3.72508 -3.57501 3.73324 -3.41498 
-2.52875 3.25133 -3.10148 -1.38855 2.77005 -2.74958 -0.21575 2.30749 -2.45031 
-3.19195 4.93947 -3.3187 -2.28935 4.34376 -3.02058 -1.18643 3.86594 -2.76653 
-0.00305765 3.40784 -2.53692 1.18685 2.90228 -2.32359 2.4188 2.4481 -2.25165 
-2.02389 5.47417 -2.74373 -0.983212 4.88821 -2.55822 0.184294 4.3968 -2.44347 
1.40008 3.96538 -2.44164 2.63778 3.45571 -2.46662 3.92402 2.90942 -2.50629 
5.23791 2.43588 -2.63122 -0.844521 5.93911 -2.26852 0.26686 5.44366 -2.20452 
1.45326 4.94735 -2.18748 2.66543 4.49329 -2.32346 3.94808 3.97691 -2.57697 
5.34415 3.36227 -2.82429 6.75993 2.76126 -3.0178 8.05199 2.21957 -3.17238 
-11.3129 0.546488 -3.50218 -12.4163 0.716381 -3.37078 -10.5118 1.48112 -3.29505 
-13.4826 0.912692 -3.10634 -11.7283 1.70903 -2.95868 -9.48543 2.47544 -3.23185 
-14.3568 1.18761 -2.83346 -12.8335 1.96507 -2.6033 -10.6283 2.80015 -2.86934 
-8.17532 3.55217 -3.555 -15.017 1.64673 -2.5694 -13.596 2.36474 -2.35508 
-11.6054 3.18775 -2.53205 -9.02745 4.01316 -3.32887 -6.71092 4.63812 -4.02338 
-15.6172 2.28562 -2.20125 -14.0805 2.98346 -2.16895 -12.2696 3.7504 -2.2602 
-9.83324 4.54285 -2.98121 -7.34643 5.21487 -3.85104 -5.44078 5.55992 -4.04196 
-16.2587 2.93758 -1.61422 -14.5548 3.67437 -1.87034 -12.7373 4.43386 -2.00816 
-10.5413 5.18783 -2.5671 -8.13132 5.82491 -3.42597 -6.07769 6.17447 -3.8092 
-4.45864 6.18931 -3.4768 -16.8373 3.4385 -0.813705 -15.1166 4.20669 -1.31439 
-13.2162 4.98594 -1.63636 -11.1646 5.78544 -2.13807 -8.96106 6.45676 -2.90735 
-6.87752 6.78561 -3.38862 -5.10638 6.74853 -3.22692 -3.48083 6.53412 -2.72531 
-16.3123 4.4737 0.58293 -15.1793 5.06115 1.21962 -14.5863 5.19199 -0.00759056 
-13.9165 5.59774 1.84386 -13.4308 5.79615 0.535298 -12.6113 6.02722 -0.703534 
-12.4597 6.17191 2.25012 -12.2235 6.41234 1.02005 -11.4573 6.75523 -0.388194 
-10.5494 7.00626 -1.56645 -10.4669 6.65994 2.41835 -10.6039 6.92812 1.43101 
-10.0732 7.31315 0.0476485 -9.20392 7.68075 -1.3233 -8.38681 7.7119 -2.30881 
-7.79468 6.91664 2.47193 -8.14379 7.17126 1.75401 -7.94057 7.51478 0.586061 
-7.3081 7.89582 -0.75331 -6.65822 8.02409 -1.83513 -6.1824 7.76504 -2.49993 
-4.7772 7.06105 2.41968 -5.02315 7.30545 1.89603 -4.99231 7.57902 0.983553 
-4.66024 7.86388 -0.148145 -4.29074 7.96433 -1.14548 -4.11827 7.75817 -1.80049 
[...]
POINT_DATA 1002
FIELD FieldData 4
_paraPhi 1 1002 double
6.2831853072 3.1415926536 6.2831853072 3.1415926536 4.7123889804 4.7123889804 1.5707963268 1.5707963268 3.6951670125 
5.7296109483 2.5880182947 0.5535743589 6.2831853072 6.2831853072 6.2831853072 6.2831853072 3.1415926536 3.1415926536 
3.1415926536 3.1415926536 3.1415926536 6.1053039672 5.898798347 5.6768734901 5.4599499503 5.2659633393 5.1032165617 
4.9713148346 4.8656852733 4.7809517865 0.17788134 0.38438696014 0.60631181711 0.82323535693 1.0172219679 1.1799687454 
1.3118704726 1.4175000338 1.5022335207 6.1892828907 6.1070320098 6.035312792 5.9728339911 5.9183214791 5.8706119594 
5.8286879411 5.7916808611 5.7588591896 0.093902416448 0.17615329733 0.2478725152 0.31035131605 0.36486382811 0.41257334776 
0.45449736604 0.4915044461 0.52432611754 3.3194739936 3.5259796137 3.7479044707 3.9648280105 4.1588146215 4.321561399 
4.4534631262 4.5590926874 4.6438261743 2.9637113136 2.7572056934 2.5352808365 2.3183572967 2.1243706857 1.9616239082 
1.829722181 1.7240926197 1.6393591329 3.23549507 3.3177459509 3.3894651688 3.4519439696 3.5064564817 3.5541660013 
3.5960900196 3.6330970997 3.6659187711 3.0476902371 2.9654393563 2.8937201384 2.8312413375 2.7767288255 2.7290193058 
2.6870952876 2.6500882075 2.617266536 6.2831853072 6.2831853072 6.2831853072 6.2831853072 3.1415926536 3.1415926536 
3.1415926536 3.1415926536 3.1415926536 6.1053039672 5.898798347 5.6768734901 5.4599499503 5.2659633393 5.1032165617 
4.9713148346 4.8656852733 4.7809517865 0.17788134 0.38438696014 0.60631181711 0.82323535693 1.0172219679 1.1799687454 
1.3118704726 1.4175000338 1.5022335207 6.1892828907 6.1070320098 6.035312792 5.9728339911 5.9183214791 5.8706119594 
5.8286879411 5.7916808611 5.7588591896 0.093902416448 0.17615329733 0.2478725152 0.31035131605 0.36486382811 0.41257334776 
0.45449736604 0.4915044461 0.52432611754 3.3194739936 3.5259796137 3.7479044707 3.9648280105 4.1588146215 4.321561399 
4.4534631262 4.5590926874 4.6438261743 2.9637113136 2.7572056934 2.5352808365 2.3183572967 2.1243706857 1.9616239082 
1.829722181 1.7240926197 1.6393591329 3.23549507 3.3177459509 3.3894651688 3.4519439696 3.5064564817 3.5541660013 
3.5960900196 3.6330970997 3.6659187711 3.0476902371 2.9654393563 2.8937201384 2.8312413375 2.7767288255 2.7290193058 
2.6870952876 2.6500882075 2.617266536 4.7123889804 4.7123889804 4.7123889804 4.7123889804 4.7123889804 4.7123889804 
4.7123889804 4.7123889804 4.7123889804 4.6087898617 4.4991390697 4.3857031936 4.2712800401 4.1588146215 4.0509635631 
3.94975894 3.8564636551 3.7716124825 4.8159880991 4.9256388911 5.0390747672 5.1534979207 5.2659633393 5.3738143976 
5.4750190208 5.5683143056 5.6531654782 4.6087898617 4.4991390697 4.3857031936 4.2712800401 4.1588146215 4.0509635631 
3.94975894 3.8564636551 3.7716124825 4.8159880991 4.9256388911 5.0390747672 5.1534979207 5.2659633393 5.3738143976 
5.4750190208 5.5683143056 5.6531654782 1.5707963268 1.5707963268 1.5707963268 1.5707963268 1.5707963268 1.5707963268 
1.5707963268 1.5707963268 1.5707963268 1.6743954455 1.7840462375 1.8974821136 2.0119052671 2.1243706857 2.232221744 
2.3334263672 2.426721652 2.5115728246 1.4671972081 1.3575464161 1.24411054 1.1296873865 1.0172219679 0.90937090954 
0.80816628637 0.71487100155 0.63001982895 1.6743954455 1.7840462375 1.8974821136 2.0119052671 2.1243706857 2.232221744 
2.3334263672 2.426721652 2.5115728246 1.4671972081 1.3575464161 1.24411054 1.1296873865 1.0172219679 0.90937090954 
0.80816628637 0.71487100155 0.63001982895 3.6007720849 3.4966939854 3.3839471039 3.2645756454 3.1415926536 3.0186096618 
2.8992382033 2.7864913217 2.6824132222 5.8240058758 5.9280839753 6.0408308569 6.1602023154 6.2831853072 0.12298299178 
0.2423544503 0.35510133185 0.45917943135 6.0560271438 5.7885595667 5.9702140275 5.5125918794 5.6029703303 5.7885595667 
5.2659633393 5.2659633393 5.2659633393 5.2659633393 5.0674903122 5.0120975802 4.9155579264 4.7123889804 4.1588146215 
4.9155579264 4.8353719722 4.7123889804 4.5092200343 4.1588146215 3.6362183941 4.8004512023 4.7123889804 4.5894059886 
4.4126803806 4.1588146215 3.8218076305 3.4545639333 4.7123889804 4.6243267584 4.5092200343 4.3572876485 4.1588146215 
3.9121860814 3.6362183941 3.368750817 6.0174235957 5.9434319871 5.8263323547 5.8809213739 5.7674481418 5.6279784266 
5.8278025282 5.718968232 5.5891129425 5.4372443565 5.7823484065 5.678536687 5.5575666702 5.4192596322 5.2659633393 
5.743164462 5.6444075337 5.5314983644 5.4046708639 5.2659633393 5.1195510325 5.7091357773 5.6152775188 5.5096229709 
5.3926039573 5.2659633393 5.1329233157 4.9978930058 5.6793730533 5.5901633916 5.4910209005 5.3824597928 5.2659633393 
5.1440684722 5.0201624502 4.8979782167 5.5683143056 5.4750190208 5.4750190208 5.3738143976 5.3738143976 5.3738143976 
5.2659633393 5.2659633393 5.2659633393 5.2659633393 5.1534979207 5.1534979207 5.1534979207 5.1534979207 5.1534979207 
5.0390747672 5.0390747672 5.0390747672 5.0390747672 5.0390747672 5.0390747672 4.9256388911 4.9256388911 4.9256388911 
4.9256388911 4.9256388911 4.9256388911 4.9256388911 4.8159880991 4.8159880991 4.8159880991 4.8159880991 4.8159880991 
4.8159880991 4.8159880991 4.8159880991 4.6087898617 4.6087898617 4.4991390697 4.6087898617 4.4991390697 4.3857031936 
4.6087898617 4.4991390697 4.3857031936 4.2712800401 4.6087898617 4.4991390697 4.3857031936 4.2712800401 4.1588146215 
4.6087898617 4.4991390697 4.3857031936 4.2712800401 4.1588146215 4.0509635631 4.6087898617 4.4991390697 4.3857031936 
4.2712800401 4.1588146215 4.0509635631 3.94975894 4.6087898617 4.4991390697 4.3857031936 4.2712800401 4.1588146215 
4.0509635631 3.94975894 3.8564636551 4.526799744 4.4046155105 4.426884955 4.2807094886 4.2918546451 4.3052269283 
4.1588146215 4.1588146215 4.1588146215 4.1588146215 4.042318168 4.0321740035 4.0201070968 4.0055183285 3.9875336042 
3.9337570603 3.9151549899 3.8932795963 3.8672112905 3.8356650183 3.7967995342 3.8346145692 3.809500442 3.7803704271 
3.7462412737 3.7058097288 3.657329819 3.5984456061 3.7454049075 3.7156421835 3.6816134988 3.6424295543 3.5969754326 
3.5438565869 3.4813459737 3.4073543651 3.5642842451 3.4524645613 3.5233842518 3.3320300872 3.403123212 3.4773852225 
3.20576226 3.2746326772 3.348015857 3.4255060145 3.0774230472 3.1415926536 3.2112816139 3.2864685043 3.3668817272 
2.95115522 3.00855263 3.0719036933 3.1415926536 3.2178377658 3.3005964304 2.8307207459 2.8800620952 2.9351694502 
2.9967168029 3.0653475414 3.1415926536 3.225752376 2.718901062 2.7598010554 2.8058000847 2.8576792927 2.91630358 
2.9825888767 3.0574329311 3.1415926536 3.5642842451 3.5233842518 3.4524645613 3.4773852225 3.403123212 3.3320300872 
3.4255060145 3.348015857 3.2746326772 3.20576226 3.3668817272 3.2864685043 3.2112816139 3.1415926536 3.0774230472 
3.3005964304 3.2178377658 3.1415926536 3.0719036933 3.00855263 2.95115522 3.225752376 3.1415926536 3.0653475414 
2.9967168029 2.9351694502 2.8800620952 2.8307207459 3.1415926536 3.0574329311 2.9825888767 2.91630358 2.8576792927 
2.8058000847 2.7598010554 2.718901062 4.526799744 4.426884955 4.4046155105 4.3052269283 4.2918546451 4.2807094886 
4.1588146215 4.1588146215 4.1588146215 4.1588146215 3.9875336042 4.0055183285 4.0201070968 4.0321740035 4.042318168 
3.7967995342 3.8356650183 3.8672112905 3.8932795963 3.9151549899 3.9337570603 3.5984456061 3.657329819 3.7058097288 
3.7462412737 3.7803704271 3.809500442 3.8346145692 3.4073543651 3.4813459737 3.5438565869 3.5969754326 3.6424295543 
3.6816134988 3.7156421835 3.7454049075 4.7123889804 4.8004512023 4.6243267584 4.9155579264 4.7123889804 4.5092200343 
5.0674903122 4.8353719722 4.5894059886 4.3572876485 5.2659633393 5.0120975802 4.7123889804 4.4126803806 4.1588146215 
5.5125918794 5.2659633393 4.9155579264 4.5092200343 4.1588146215 3.9121860814 5.7885595667 5.6029703303 5.2659633393 
4.7123889804 4.1588146215 3.8218076305 3.6362183941 6.0560271438 5.9702140275 5.7885595667 5.2659633393 4.1588146215 
3.6362183941 3.4545639333 3.368750817 0.22715816343 0.49462574053 0.3129712797 0.77059342779 0.68021497688 0.49462574053 
1.0172219679 1.0172219679 1.0172219679 1.0172219679 1.2156949949 1.271087727 1.3676273807 1.5707963268 2.1243706857 
1.3676273807 1.447813335 1.5707963268 1.7739652728 2.1243706857 2.6469669131 1.4827341049 1.5707963268 1.6937793186 
1.8705049266 2.1243706857 2.4613776767 2.8286213739 1.5707963268 1.6588585487 1.7739652728 1.9258976586 2.1243706857 
2.3709992258 2.6469669131 2.9144344902 1.7563855631 1.8785697967 1.8563003522 2.0024758186 1.9913306621 1.9779583789 
2.1243706857 2.1243706857 2.1243706857 2.1243706857 2.2408671392 2.2510113037 2.2630782103 2.2776669786 2.295651703 
2.3494282469 2.3680303173 2.3899057108 2.4159740166 2.4475202889 2.486385773 2.448570738 2.4736848652 2.5028148801 
2.5369440334 2.5773755784 2.6258554882 2.6847397011 2.5377803997 2.5675431237 2.6015718084 2.6407557529 2.6862098746 
2.7393287203 2.8018393335 2.8758309421 1.6743954455 1.6743954455 1.7840462375 1.6743954455 1.7840462375 1.8974821136 
1.6743954455 1.7840462375 1.8974821136 2.0119052671 1.6743954455 1.7840462375 1.8974821136 2.0119052671 2.1243706857 
1.6743954455 1.7840462375 1.8974821136 2.0119052671 2.1243706857 2.232221744 1.6743954455 1.7840462375 1.8974821136 
2.0119052671 2.1243706857 2.232221744 2.3334263672 1.6743954455 1.7840462375 1.8974821136 2.0119052671 2.1243706857 
2.232221744 2.3334263672 2.426721652 1.4671972081 1.3575464161 1.4671972081 1.24411054 1.3575464161 1.4671972081 
1.1296873865 1.24411054 1.3575464161 1.4671972081 1.0172219679 1.1296873865 1.24411054 1.3575464161 1.4671972081 
0.90937090954 1.0172219679 1.1296873865 1.24411054 1.3575464161 1.4671972081 0.80816628637 0.90937090954 1.0172219679 
1.1296873865 1.24411054 1.3575464161 1.4671972081 0.71487100155 0.80816628637 0.90937090954 1.0172219679 1.1296873865 
1.24411054 1.3575464161 1.4671972081 0.60381225391 0.57404952988 0.69302191562 0.54002084522 0.66790778838 0.79216440667 
0.50083690068 0.63877777351 0.77356233629 0.90072551443 0.45538277901 0.60464862014 0.75168694275 0.89058134991 1.0172219679 
0.40226393329 0.56421707518 0.72561863695 0.87851444325 1.0172219679 1.139116835 0.33975332011 0.51573716537 0.69407236469 
0.86392567495 1.0172219679 1.1502619915 1.2630228569 0.26576171152 0.45685295248 0.6552068806 0.84594095064 1.0172219679 
1.1636342747 1.2852923014 1.3852070904 0.22715816343 0.3129712797 0.49462574053 0.49462574053 0.68021497688 0.77059342779 
1.0172219679 1.0172219679 1.0172219679 1.0172219679 2.1243706857 1.5707963268 1.3676273807 1.271087727 1.2156949949 
2.6469669131 2.1243706857 1.7739652728 1.5707963268 1.447813335 1.3676273807 2.8286213739 2.4613776767 2.1243706857 
1.8705049266 1.6937793186 1.5707963268 1.4827341049 2.9144344902 2.6469669131 2.3709992258 2.1243706857 1.9258976586 
1.7739652728 1.6588585487 1.5707963268 1.7563855631 1.8563003522 1.8785697967 1.9779583789 1.9913306621 2.0024758186 
2.1243706857 2.1243706857 2.1243706857 2.1243706857 2.295651703 2.2776669786 2.2630782103 2.2510113037 2.2408671392 
2.486385773 2.4475202889 2.4159740166 2.3899057108 2.3680303173 2.3494282469 2.6847397011 2.6258554882 2.5773755784 
2.5369440334 2.5028148801 2.4736848652 2.448570738 2.8758309421 2.8018393335 2.7393287203 2.6862098746 2.6407557529 
2.6015718084 2.5675431237 2.5377803997 5.8604937156 5.901393709 5.9723133995 5.9473927383 6.0216547488 6.0927478736 
5.9992719463 6.0767621038 6.1501452836 6.2190157008 6.0578962336 6.1383094565 6.2134963469 0 0.064169606361 
6.1241815303 6.206940195 6.2831853072 0.069688960264 0.13304002361 0.19043743361 6.1990255847 0 0.07624511221 
0.14487585072 0.20642320337 0.26153055843 0.3108719077 0 0.084159722458 0.15900377685 0.22528907359 0.28391336087 
0.3357925689 0.38179159818 0.42269159155 5.8604937156 5.9723133995 5.901393709 6.0927478736 6.0216547488 5.9473927383 
6.2190157008 6.1501452836 6.0767621038 5.9992719463 0.064169606361 0 6.2134963469 6.1383094565 6.0578962336 
0.19043743361 0.13304002361 0.069688960264 6.2831853072 6.206940195 6.1241815303 0.3108719077 0.26153055843 0.20642320337 
0.14487585072 0.07624511221 6.2831853072 6.1990255847 0.42269159155 0.38179159818 0.3357925689 0.28391336087 0.22528907359 
0.15900377685 0.084159722458 0 5.6793730533 5.7091357773 5.5901633916 5.743164462 5.6152775188 5.4910209005 
5.7823484065 5.6444075337 5.5096229709 5.3824597928 5.8278025282 5.678536687 5.5314983644 5.3926039573 5.2659633393 
5.8809213739 5.718968232 5.5575666702 5.4046708639 5.2659633393 5.1440684722 5.9434319871 5.7674481418 5.5891129425 
5.4192596322 5.2659633393 5.1329233157 5.0201624502 6.0174235957 5.8263323547 5.6279784266 5.4372443565 5.2659633393 
5.1195510325 4.9978930058 4.8979782167 1.3852070904 1.2852923014 1.2630228569 1.1636342747 1.1502619915 1.139116835 
1.0172219679 1.0172219679 1.0172219679 1.0172219679 0.84594095064 0.86392567495 0.87851444325 0.89058134991 0.90072551443 
0.6552068806 0.69407236469 0.72561863695 0.75168694275 0.77356233629 0.79216440667 0.45685295248 0.51573716537 0.56421707518 
0.60464862014 0.63877777351 0.66790778838 0.69302191562 0.26576171152 0.33975332011 0.40226393329 0.45538277901 0.50083690068 
0.54002084522 0.57404952988 0.60381225391 
_paraPhiHalf 1 1002 double
0 3.1415926536 0 3.1415926536 1.5707963268 1.5707963268 1.5707963268 1.5707963268 2.5880182947 
0.5535743589 2.5880182947 0.5535743589 0 0 0 0 3.1415926536 3.1415926536 
3.1415926536 3.1415926536 3.1415926536 0.17788134 0.38438696014 0.60631181711 0.82323535693 1.0172219679 1.1799687454 
1.3118704726 1.4175000338 1.5022335207 0.17788134 0.38438696014 0.60631181711 0.82323535693 1.0172219679 1.1799687454 
1.3118704726 1.4175000338 1.5022335207 0.093902416448 0.17615329733 0.2478725152 0.31035131605 0.36486382811 0.41257334776 
0.45449736604 0.4915044461 0.52432611754 0.093902416448 0.17615329733 0.2478725152 0.31035131605 0.36486382811 0.41257334776 
0.45449736604 0.4915044461 0.52432611754 2.9637113136 2.7572056934 2.5352808365 2.3183572967 2.1243706857 1.9616239082 
1.829722181 1.7240926197 1.6393591329 2.9637113136 2.7572056934 2.5352808365 2.3183572967 2.1243706857 1.9616239082 
1.829722181 1.7240926197 1.6393591329 3.0476902371 2.9654393563 2.8937201384 2.8312413375 2.7767288255 2.7290193058 
2.6870952876 2.6500882075 2.617266536 3.0476902371 2.9654393563 2.8937201384 2.8312413375 2.7767288255 2.7290193058 
2.6870952876 2.6500882075 2.617266536 0 0 0 0 3.1415926536 3.1415926536 
3.1415926536 3.1415926536 3.1415926536 0.17788134 0.38438696014 0.60631181711 0.82323535693 1.0172219679 1.1799687454 
1.3118704726 1.4175000338 1.5022335207 0.17788134 0.38438696014 0.60631181711 0.82323535693 1.0172219679 1.1799687454 
1.3118704726 1.4175000338 1.5022335207 0.093902416448 0.17615329733 0.2478725152 0.31035131605 0.36486382811 0.41257334776 
0.45449736604 0.4915044461 0.52432611754 0.093902416448 0.17615329733 0.2478725152 0.31035131605 0.36486382811 0.41257334776 
0.45449736604 0.4915044461 0.52432611754 2.9637113136 2.7572056934 2.5352808365 2.3183572967 2.1243706857 1.9616239082 
1.829722181 1.7240926197 1.6393591329 2.9637113136 2.7572056934 2.5352808365 2.3183572967 2.1243706857 1.9616239082 
1.829722181 1.7240926197 1.6393591329 3.0476902371 2.9654393563 2.8937201384 2.8312413375 2.7767288255 2.7290193058 
2.6870952876 2.6500882075 2.617266536 3.0476902371 2.9654393563 2.8937201384 2.8312413375 2.7767288255 2.7290193058 
2.6870952876 2.6500882075 2.617266536 1.5707963268 1.5707963268 1.5707963268 1.5707963268 1.5707963268 1.5707963268 
1.5707963268 1.5707963268 1.5707963268 1.6743954455 1.7840462375 1.8974821136 2.0119052671 2.1243706857 2.232221744 
2.3334263672 2.426721652 2.5115728246 1.4671972081 1.3575464161 1.24411054 1.1296873865 1.0172219679 0.90937090954 
0.80816628637 0.71487100155 0.63001982895 1.6743954455 1.7840462375 1.8974821136 2.0119052671 2.1243706857 2.232221744 
2.3334263672 2.426721652 2.5115728246 1.4671972081 1.3575464161 1.24411054 1.1296873865 1.0172219679 0.90937090954 
0.80816628637 0.71487100155 0.63001982895 1.5707963268 1.5707963268 1.5707963268 1.5707963268 1.5707963268 1.5707963268 
1.5707963268 1.5707963268 1.5707963268 1.6743954455 1.7840462375 1.8974821136 2.0119052671 2.1243706857 2.232221744 
2.3334263672 2.426721652 2.5115728246 1.4671972081 1.3575464161 1.24411054 1.1296873865 1.0172219679 0.90937090954 
0.80816628637 0.71487100155 0.63001982895 1.6743954455 1.7840462375 1.8974821136 2.0119052671 2.1243706857 2.232221744 
2.3334263672 2.426721652 2.5115728246 1.4671972081 1.3575464161 1.24411054 1.1296873865 1.0172219679 0.90937090954 
0.80816628637 0.71487100155 0.63001982895 2.6824132222 2.7864913217 2.8992382033 3.0186096618 3.1415926536 3.0186096618 
2.8992382033 2.7864913217 2.6824132222 0.45917943135 0.35510133185 0.2423544503 0.12298299178 0 0.12298299178 
0.2423544503 0.35510133185 0.45917943135 0.22715816343 0.49462574053 0.3129712797 0.77059342779 0.68021497688 0.49462574053 
1.0172219679 1.0172219679 1.0172219679 1.0172219679 1.2156949949 1.271087727 1.3676273807 1.5707963268 2.1243706857 
1.3676273807 1.447813335 1.5707963268 1.7739652728 2.1243706857 2.6469669131 1.4827341049 1.5707963268 1.6937793186 
1.8705049266 2.1243706857 2.4613776767 2.8286213739 1.5707963268 1.6588585487 1.7739652728 1.9258976586 2.1243706857 
2.3709992258 2.6469669131 2.9144344902 0.26576171152 0.33975332011 0.45685295248 0.40226393329 0.51573716537 0.6552068806 
0.45538277901 0.56421707518 0.69407236469 0.84594095064 0.50083690068 0.60464862014 0.72561863695 0.86392567495 1.0172219679 
0.54002084522 0.63877777351 0.75168694275 0.87851444325 1.0172219679 1.1636342747 0.57404952988 0.66790778838 0.77356233629 
0.89058134991 1.0172219679 1.1502619915 1.2852923014 0.60381225391 0.69302191562 0.79216440667 0.90072551443 1.0172219679 
1.139116835 1.2630228569 1.3852070904 0.71487100155 0.80816628637 0.80816628637 0.90937090954 0.90937090954 0.90937090954 
1.0172219679 1.0172219679 1.0172219679 1.0172219679 1.1296873865 1.1296873865 1.1296873865 1.1296873865 1.1296873865 
1.24411054 1.24411054 1.24411054 1.24411054 1.24411054 1.24411054 1.3575464161 1.3575464161 1.3575464161 
1.3575464161 1.3575464161 1.3575464161 1.3575464161 1.4671972081 1.4671972081 1.4671972081 1.4671972081 1.4671972081 
1.4671972081 1.4671972081 1.4671972081 1.6743954455 1.6743954455 1.7840462375 1.6743954455 1.7840462375 1.8974821136 
1.6743954455 1.7840462375 1.8974821136 2.0119052671 1.6743954455 1.7840462375 1.8974821136 2.0119052671 2.1243706857 
1.6743954455 1.7840462375 1.8974821136 2.0119052671 2.1243706857 2.232221744 1.6743954455 1.7840462375 1.8974821136 
2.0119052671 2.1243706857 2.232221744 2.3334263672 1.6743954455 1.7840462375 1.8974821136 2.0119052671 2.1243706857 
2.232221744 2.3334263672 2.426721652 1.7563855631 1.8785697967 1.8563003522 2.0024758186 1.9913306621 1.9779583789 
2.1243706857 2.1243706857 2.1243706857 2.1243706857 2.2408671392 2.2510113037 2.2630782103 2.2776669786 2.295651703 
2.3494282469 2.3680303173 2.3899057108 2.4159740166 2.4475202889 2.486385773 2.448570738 2.4736848652 2.5028148801 
2.5369440334 2.5773755784 2.6258554882 2.6847397011 2.5377803997 2.5675431237 2.6015718084 2.6407557529 2.6862098746 
2.7393287203 2.8018393335 2.8758309421 2.718901062 2.8307207459 2.7598010554 2.95115522 2.8800620952 2.8058000847 
3.0774230472 3.00855263 2.9351694502 2.8576792927 3.0774230472 3.1415926536 3.0719036933 2.9967168029 2.91630358 
2.95115522 3.00855263 3.0719036933 3.1415926536 3.0653475414 2.9825888767 2.8307207459 2.8800620952 2.9351694502 
2.9967168029 3.0653475414 3.1415926536 3.0574329311 2.718901062 2.7598010554 2.8058000847 2.8576792927 2.91630358 
2.9825888767 3.0574329311 3.1415926536 2.718901062 2.7598010554 2.8307207459 2.8058000847 2.8800620952 2.95115522 
2.8576792927 2.9351694502 3.00855263 3.0774230472 2.91630358 2.9967168029 3.0719036933 3.1415926536 3.0774230472 
2.9825888767 3.0653475414 3.1415926536 3.0719036933 3.00855263 2.95115522 3.0574329311 3.1415926536 3.0653475414 