# vtk DataFile Version 5.1
vtk output
ASCII
DATASET POLYDATA
POINTS 1002 float
-11.3665 -0.941246 -2.66668 10.8391 1.48369 -2.72841 -12.4291 0.616551 3.41955 
12.2249 -0.492934 1.914 0.255011 7.53077 -2.7966 0.62265 8.01166 1.43284 
0.77858 -1.54066 -2.98187 0.910843 -0.493597 -0.453321 17.8614 1.36625 0.42285 
-18.5995 2.70641 0.248062 18.6266 -7.30479 0.686693 -16.2444 -8.23042 0.605897 
-10.3462 -0.457458 -2.43296 -8.59536 0.274753 -2.59072 -6.07205 1.19294 -3.15013 
-3.22305 2.03355 -3.64217 -0.516481 2.5512 -3.64522 1.99987 2.71031 -3.31231 
4.41907 2.58095 -3.00136 6.69989 2.2461 -2.80846 8.82559 1.83928 -2.71187 
-10.9467 -0.0497302 -2.61009 -10.2058 0.919972 -2.65174 -9.14353 1.9479 -2.79848 
-7.90764 3.00245 -2.92456 -6.64133 4.03263 -2.92054 -5.32882 4.9807 -2.84419 
-3.91226 5.81158 -2.80437 -2.44879 6.51459 -2.80864 -1.04174 7.08708 -2.81264 
-11.116 -1.55023 -2.54158 -10.6675 -2.10846 -2.46266 -9.92904 -2.54668 -2.52496 
-8.94394 -2.8151 -2.75138 -7.85492 -2.81623 -2.97556 -6.58842 -2.43058 -2.99937 
-4.88785 -1.78063 -2.86804 -2.81083 -1.27333 -2.79429 -0.799322 -1.20936 -2.8648 
-11.9399 -0.749551 -2.96889 -12.5891 -0.525349 -3.19936 -13.3941 -0.341601 -3.25108 
-14.2028 -0.0767136 -3.17927 -14.8427 0.500122 -3.05491 -15.4593 1.34716 -2.77349 
-16.2936 2.10226 -2.21007 -17.2667 2.51455 -1.42613 -18.094 2.65376 -0.573002 
-11.9507 -1.73387 -2.92503 -12.5824 -2.61586 -2.99077 -13.4939 -3.66097 -2.69573 
-14.5392 -4.93005 -2.29286 -15.2787 -6.31983 -2.16099 -15.5504 -7.49328 -2.17351 
-15.6135 -8.14493 -1.86699 -15.7265 -8.31412 -1.12946 -15.9471 -8.27695 -0.228716 
9.99792 2.11326 -2.70852 9.08665 2.77266 -2.74448 8.15499 3.4319 -2.89676 
7.12876 4.12768 -3.09562 5.89075 4.8677 -3.1727 4.51399 5.55337 -3.09844 
3.22934 6.11675 -3.01428 2.14561 6.61546 -2.98871 1.1873 7.10132 -2.94325 
10.3033 1.08058 -2.68451 9.60296 0.719066 -2.64967 8.84175 0.431767 -2.72001 
7.9947 0.147515 -2.87666 6.89768 -0.219936 -2.94258 5.57531 -0.610252 -2.85161 
4.29448 -0.895417 -2.78874 3.16539 -1.08122 -2.88346 2.03601 -1.27645 -3.00929 
12.3373 1.54771 -2.79357 13.8172 1.59755 -2.8333 15.1795 1.58046 -2.75241 
16.3151 1.48442 -2.44457 17.1239 1.34156 -1.90423 17.6008 1.19659 -1.2747 
17.8539 1.10495 -0.71667 17.9877 1.11643 -0.279635 18.0101 1.22376 0.0785723 
12.6452 0.912834 -2.81479 14.4768 0.282225 -2.83328 15.8886 -0.562837 -2.53748 
16.7054 -1.73647 -1.88107 17.3966 -3.06833 -1.21328 18.4283 -4.25531 -0.867618 
19.4537 -5.23312 -0.706707 19.8119 -6.09878 -0.404213 19.4065 -6.82571 0.107772 
-10.0349 1.44179 2.79748 -7.12189 2.26848 2.01349 -4.35942 2.77887 1.61229 
-1.97983 2.85377 1.72686 0.610874 2.70831 1.74283 3.81146 2.52918 1.20063 
7.0222 2.19757 0.560458 9.4794 1.539 0.495637 11.1018 0.583905 1.06907 
-11.6135 1.42803 3.29045 -10.6792 2.26867 3.16101 -9.63493 3.11096 3.05071 
-8.49896 3.93861 2.99369 -7.27113 4.74707 2.97713 -5.89758 5.52252 2.88381 
-4.33273 6.24022 2.5977 -2.63796 6.89243 2.16676 -0.948368 7.48667 1.7483 
-11.898 0.291407 3.27508 -11.2254 -0.00572061 3.08582 -10.3875 -0.24723 2.8703 
-9.32757 -0.396049 2.6345 -7.90796 -0.401259 2.25276 -6.05957 -0.250205 1.58171 
-4.00122 -0.0511755 0.75772 -2.08746 0.0126012 0.101579 -0.47176 -0.153274 -0.262705 
-13.7857 0.4386 3.61212 -14.8047 0.439226 3.53048 -15.6644 0.572757 3.32446 
-16.5907 0.749098 3.13897 -17.5042 0.972515 2.89328 -18.1815 1.27915 2.47098 
-18.6422 1.60274 1.96723 -18.9639 1.89641 1.48232 -19.0032 2.24122 0.937115 
-13.9704 -0.352845 3.62296 -15.1247 -1.333 3.54686 -16.0681 -2.33572 3.40473 
-17.1801 -3.46419 3.52905 -18.3706 -4.74814 3.81861 -18.9386 -5.97639 3.71894 
-18.5072 -6.86723 3.00214 -17.5489 -7.39967 2.04377 -16.722 -7.79599 1.23107 
11.6191 0.396925 1.60452 10.8252 1.39038 1.27846 9.80455 2.49293 1.03376 
8.48021 3.6252 0.997556 6.87069 4.64245 1.18445 5.23266 5.51202 1.40867 
3.85641 6.31841 1.47704 2.75002 7.06052 1.41524 1.71589 7.63893 1.37667 
12.1004 -0.646264 1.60741 11.8478 -0.728614 1.20337 11.3361 -0.710855 0.791663 
10.3995 -0.626262 0.488064 8.99594 -0.582944 0.331336 7.34421 -0.635647 0.241788 
5.72776 -0.698472 0.112649 4.19444 -0.669646 -0.0877511 2.61254 -0.566847 -0.305941 
12.9088 -1.05366 2.58517 13.6288 -1.55237 3.19884 14.2982 -1.85621 3.74085 
14.945 -1.83762 4.09681 15.8097 -1.45686 3.99315 16.9399 -0.827765 3.33179 
17.9285 -0.153126 2.40573 18.3669 0.430438 1.57142 18.2586 0.91778 0.933967 
13.1241 -1.77005 2.6564 13.989 -3.1545 3.34965 14.9297 -4.45927 3.78827 
16.145 -5.51929 3.81795 17.5921 -6.40539 3.47987 18.7704 -7.31649 3.01334 
19.2481 -8.1344 2.57095 19.1693 -8.44293 2.06442 18.913 -8.07658 1.40429 
0.461699 8.00857 -2.62807 0.747965 8.48839 -2.44465 1.1661 8.9503 -2.30763 
1.68496 9.36669 -2.15953 2.11251 9.65987 -1.76162 2.19918 9.71261 -0.959106 
1.88497 9.47413 0.0340319 1.37291 9.02598 0.829871 0.917693 8.50734 1.26062 
2.09022 7.58897 -2.83715 3.95088 7.43695 -2.72379 5.88565 7.08075 -2.43983 
7.95282 6.56213 -2.03761 10.0432 5.87747 -1.58642 11.9676 5.0124 -1.12088 
13.6972 4.0543 -0.679083 15.2922 3.12072 -0.30041 16.7121 2.23354 0.0427269 
-1.64365 7.56919 -2.5066 -3.89314 7.35943 -2.02307 -6.20783 6.95588 -1.50555 
-8.23191 6.55989 -1.24666 -9.99333 6.29816 -1.36766 -11.8901 6.02648 -1.57191 
-14.055 5.49467 -1.44034 -16.1155 4.64957 -0.916165 -17.6598 3.65698 -0.273628 
2.70573 8.19552 1.23776 4.57129 8.02881 1.26931 6.48214 7.48116 1.30256 
8.69042 6.6916 1.16748 10.8677 5.74907 1.06306 12.5283 4.65175 1.17926 
13.853 3.55023 1.25804 15.2818 2.66871 1.02813 16.7423 2.00141 0.648919 
-1.77099 7.88436 1.83495 -4.65549 7.62183 2.39021 -7.36982 7.3644 2.67914 
-9.42419 7.05918 2.42948 -11.2468 6.48912 1.99861 -13.5012 5.62807 1.8624 
-15.8932 4.71484 1.83699 -17.6025 3.94072 1.49106 -18.3834 3.30248 0.855847 
0.653001 -2.00126 -2.86745 0.309822 -2.34988 -2.53378 -0.0443769 -2.42022 -2.03858 
-0.126228 -2.1665 -1.60134 0.112807 -1.74824 -1.39409 0.400815 -1.38377 -1.32149 
0.516147 -1.13863 -1.17259 0.545396 -0.938598 -0.908723 0.667225 -0.722166 -0.642753 
2.81035 -2.00149 -3.07782 4.69854 -2.56641 -2.94915 6.83491 -2.89641 -2.64993 
9.33161 -3.17268 -2.33151 11.4654 -3.8494 -1.95719 12.6975 -4.79555 -1.39745 
13.6745 -5.46922 -0.767454 15.1786 -5.85661 -0.254902 17.032 -6.40529 0.185237 
-1.6235 -1.80357 -2.67857 -4.28406 -2.72655 -2.22907 -6.54983 -4.25551 -1.85007 
-8.14009 -5.96443 -1.58926 -9.74576 -7.49489 -1.13793 -12.0189 -8.73523 -0.349615 
-14.342 -9.48561 0.360082 -15.7081 -9.51812 0.609633 -16.1051 -8.96769 0.568089 
3.24748 -1.02457 -0.473258 5.56915 -1.61123 -0.461905 7.98357 -2.12169 -0.47958 
10.257 -2.85624 -0.30129 11.8268 -4.12557 0.251606 12.6081 -5.55986 0.914022 
13.3656 -6.4892 1.2605 14.7961 -6.84247 1.20336 16.7542 -7.03525 0.946692 
-2.07604 -0.45991 -0.219054 -5.84024 -1.22542 0.670315 -9.66481 -3.00092 2.16028 
-12.4865 -5.27898 3.56589 -14.03 -7.18338 4.14645 -15.0008 -8.29749 3.86752 
-15.8738 -8.76948 3.16461 -16.4136 -8.82595 2.30629 -16.4466 -8.60404 1.40051 
18.8482 0.248254 0.78591 19.5305 -1.23844 1.42404 20.277 -2.97289 1.98173 
21.315 -4.80266 2.13521 22.0875 -6.72777 2.06693 22.0645 -8.52946 2.05253 
21.6242 -9.51575 1.91316 21.1231 -9.28201 1.47958 20.2118 -8.29014 0.988118 
-19.0701 1.66518 0.243904 -19.6927 0.379064 0.346515 -20.4792 -1.06296 0.439529 
-21.1312 -2.49371 0.449077 -21.2864 -3.79407 0.563702 -20.6334 -4.90708 0.842098 
-19.1615 -5.834 0.934 -17.5211 -6.66445 0.688856 -16.5075 -7.4754 0.467464 
-9.54039 0.505167 -2.53965 -8.36787 1.54542 -2.80311 -7.31069 1.29942 -2.94075 
-6.97979 2.6317 -3.0996 -5.81101 2.3703 -3.32867 -4.52468 2.18232 -3.54186 
-5.58433 3.69953 -3.24099 -4.3392 3.423 -3.54302 -3.03833 3.14247 -3.73048 
-1.77296 2.84037 -3.75687 -4.23888 4.65742 -3.19433 -2.9913 4.35671 -3.5088 
-1.69947 4.00137 -3.66816 -0.459936 3.56592 -3.63237 0.765288 3.12614 -3.48992 
-2.86108 5.4587 -3.09039 -1.68338 5.10674 -3.34504 -0.41825 4.69631 -3.4954 
0.843537 4.18049 -3.46768 2.0758 3.63617 -3.31875 3.28623 3.118 -3.15546 
-1.43978 6.12319 -3.02294 -0.352341 5.70751 -3.18565 0.863939 5.24936 -3.32162 
2.17189 4.68982 -3.3718 3.46206 4.07714 -3.28094 4.66287 3.48947 -3.10975 
5.74628 2.89205 -2.94484 -0.0664042 6.67183 -2.98512 0.94724 6.2107 -3.07159 
2.0979 5.72232 -3.15869 3.41892 5.14501 -3.26408 4.77141 4.47712 -3.2752 
5.98538 3.81413 -3.13017 7.03455 3.17876 -2.93164 7.97331 2.51584 -2.78918 
-11.5501 0.211365 -2.89783 -12.1 0.544314 -3.18588 -10.8434 1.25778 -2.87776 
-12.6529 0.93494 -3.3476 -11.34 1.72295 -3.15175 -9.85699 2.34336 -2.8817 
-13.1894 1.51594 -3.35752 -11.8325 2.30304 -3.31155 -10.4674 2.87333 -2.98826 
-8.75079 3.41434 -2.7893 -13.7778 2.34752 -3.21413 -12.4411 3.02881 -3.2802 
-11.1491 3.4758 -2.97447 -9.56091 3.91169 -2.63518 -7.56666 4.44394 -2.60728 
-14.6112 3.1657 -2.84148 -13.2181 3.81497 -3.06455 -11.9199 4.12133 -2.81898 
-10.3763 4.41855 -2.41587 -8.44451 4.88691 -2.27498 -6.20767 5.41177 -2.48414 
-15.7119 3.63726 -2.17642 -14.1633 4.4146 -2.62489 -12.6535 4.75728 -2.56594 
-11.0405 4.94942 -2.18292 -9.18326 5.3094 -1.93864 -7.02567 5.82547 -2.08515 
-4.68777 6.27453 -2.46735 -16.8244 3.73343 -1.27213 -15.1924 4.66837 -1.89131 
-13.3445 5.25008 -2.13985 -11.481 5.52226 -1.9453 -9.66371 5.76938 -1.64541 
-7.70576 6.18329 -1.65607 -5.46658 6.66334 -2.02452 -3.13902 6.99485 -2.48686 
-17.1638 4.27561 0.342589 -15.8566 5.02187 0.869882 -15.1104 5.35416 -0.362668 
-13.7779 5.93721 1.14047 -13.4191 6.22203 0.115915 -12.6304 6.28412 -0.895578 
-11.6024 6.85878 1.39716 -11.5701 7.13589 0.585057 -11.0636 7.14582 -0.285437 
-10.4322 6.81673 -0.96128 -9.75825 7.5194 1.90132 -9.92153 7.86001 1.18992 
-9.70108 7.89249 0.400004 -9.16385 7.56597 -0.297485 -8.62455 7.04943 -0.828694 
-7.67566 7.86879 2.29656 -7.87385 8.31344 1.64549 -7.86376 8.46911 0.843471 
-7.56742 8.23506 0.100811 -7.08892 7.77493 -0.498912 -6.61249 7.32319 -1.02036 
-4.81371 8.11818 2.13758 -4.83254 8.63397 1.54722 -4.77098 8.95878 0.6864 
-4.68228 8.9074 -0.145739 -4.55668 8.54585 -0.737382 -4.37052 8.10899 -1.17307 
[...]
POINT_DATA 1002
FIELD FieldData 4
_paraPhi 1 1002 double
6.2831853072 3.1415926536 6.2831853072 3.1415926536 4.7123889804 4.7123889804 1.5707963268 1.5707963268 3.6951670125 
5.7296109483 2.5880182947 0.5535743589 6.2831853072 6.2831853072 6.2831853072 6.2831853072 3.1415926536 3.1415926536 
3.1415926536 3.1415926536 3.1415926536 6.1053039672 5.898798347 5.6768734901 5.4599499503 5.2659633393 5.1032165617 
4.9713148346 4.8656852733 4.7809517865 0.17788134 0.38438696014 0.60631181711 0.82323535693 1.0172219679 1.1799687454 
1.3118704726 1.4175000338 1.5022335207 6.1892828907 6.1070320098 6.035312792 5.9728339911 5.9183214791 5.8706119594 
5.8286879411 5.7916808611 5.7588591896 0.093902416448 0.17615329733 0.2478725152 0.31035131605 0.36486382811 0.41257334776 
0.45449736604 0.4915044461 0.52432611754 3.3194739936 3.5259796137 3.7479044707 3.9648280105 4.1588146215 4.321561399 
4.4534631262 4.5590926874 4.6438261743 2.9637113136 2.7572056934 2.5352808365 2.3183572967 2.1243706857 1.9616239082 
1.829722181 1.7240926197 1.6393591329 3.23549507 3.3177459509 3.3894651688 3.4519439696 3.5064564817 3.5541660013 
3.5960900196 3.6330970997 3.6659187711 3.0476902371 2.9654393563 2.8937201384 2.8312413375 2.7767288255 2.7290193058 
2.6870952876 2.6500882075 2.617266536 6.2831853072 6.2831853072 6.2831853072 6.2831853072 3.1415926536 3.1415926536 
3.1415926536 3.1415926536 3.1415926536 6.1053039672 5.898798347 5.6768734901 5.4599499503 5.2659633393 5.1032165617 
4.9713148346 4.8656852733 4.7809517865 0.17788134 0.38438696014 0.60631181711 0.82323535693 1.0172219679 1.1799687454 
1.3118704726 1.4175000338 1.5022335207 6.1892828907 6.1070320098 6.035312792 5.9728339911 5.9183214791 5.8706119594 
5.8286879411 5.7916808611 5.7588591896 0.093902416448 0.17615329733 0.2478725152 0.31035131605 0.36486382811 0.41257334776 
0.45449736604 0.4915044461 0.52432611754 3.3194739936 3.5259796137 3.7479044707 3.9648280105 4.1588146215 4.321561399 
4.4534631262 4.5590926874 4.6438261743 2.9637113136 2.7572056934 2.5352808365 2.3183572967 2.1243706857 1.9616239082 
1.829722181 1.7240926197 1.6393591329 3.23549507 3.3177459509 3.3894651688 3.4519439696 3.5064564817 3.5541660013 
3.5960900196 3.6330970997 3.6659187711 3.0476902371 2.9654393563 2.8937201384 2.8312413375 2.7767288255 2.7290193058 
2.6870952876 2.6500882075 2.617266536 4.7123889804 4.7123889804 4.7123889804 4.7123889804 4.7123889804 4.7123889804 
4.7123889804 4.7123889804 4.7123889804 4.6087898617 4.4991390697 4.3857031936 4.2712800401 4.1588146215 4.0509635631 
3.94975894 3.8564636551 3.7716124825 4.8159880991 4.9256388911 5.0390747672 5.1534979207 5.2659633393 5.3738143976 
5.4750190208 5.5683143056 5.6531654782 4.6087898617 4.4991390697 4.3857031936 4.2712800401 4.1588146215 4.0509635631 
3.94975894 3.8564636551 3.7716124825 4.8159880991 4.9256388911 5.0390747672 5.1534979207 5.2659633393 5.3738143976 
5.4750190208 5.5683143056 5.6531654782 1.5707963268 1.5707963268 1.5707963268 1.5707963268 1.5707963268 1.5707963268 
1.5707963268 1.5707963268 1.5707963268 1.6743954455 1.7840462375 1.8974821136 2.0119052671 2.1243706857 2.232221744 
2.3334263672 2.426721652 2.5115728246 1.4671972081 1.3575464161 1.24411054 1.1296873865 1.0172219679 0.90937090954 
0.80816628637 0.71487100155 0.63001982895 1.6743954455 1.7840462375 1.8974821136 2.0119052671 2.1243706857 2.232221744 
2.3334263672 2.426721652 2.5115728246 1.4671972081 1.3575464161 1.24411054 1.1296873865 1.0172219679 0.90937090954 
0.80816628637 0.71487100155 0.63001982895 3.6007720849 3.4966939854 3.3839471039 3.2645756454 3.1415926536 3.0186096618 
2.8992382033 2.7864913217 2.6824132222 5.8240058758 5.9280839753 6.0408308569 6.1602023154 6.2831853072 0.12298299178 
0.2423544503 0.35510133185 0.45917943135 6.0560271438 5.7885595667 5.9702140275 5.5125918794 5.6029703303 5.7885595667 
5.2659633393 5.2659633393 5.2659633393 5.2659633393 5.0674903122 5.0120975802 4.9155579264 4.7123889804 4.1588146215 
4.9155579264 4.8353719722 4.7123889804 4.5092200343 4.1588146215 3.6362183941 4.8004512023 4.7123889804 4.5894059886 
4.4126803806 4.1588146215 3.8218076305 3.4545639333 4.7123889804 4.6243267584 4.5092200343 4.3572876485 4.1588146215 
3.9121860814 3.6362183941 3.368750817 6.0174235957 5.9434319871 5.8263323547 5.8809213739 5.7674481418 5.6279784266 
5.8278025282 5.718968232 5.5891129425 5.4372443565 5.7823484065 5.678536687 5.5575666702 5.4192596322 5.2659633393 
5.743164462 5.6444075337 5.5314983644 5.4046708639 5.2659633393 5.1195510325 5.7091357773 5.6152775188 5.5096229709 
5.3926039573 5.2659633393 5.1329233157 4.9978930058 5.6793730533 5.5901633916 5.4910209005 5.3824597928 5.2659633393 
5.1440684722 5.0201624502 4.8979782167 5.5683143056 5.4750190208 5.4750190208 5.3738143976 5.3738143976 5.3738143976 
5.2659633393 5.2659633393 5.2659633393 5.2659633393 5.1534979207 5.1534979207 5.1534979207 5.1534979207 5.1534979207 
5.0390747672 5.0390747672 5.0390747672 5.0390747672 5.0390747672 5.0390747672 4.9256388911 4.9256388911 4.9256388911 
4.9256388911 4.9256388911 4.9256388911 4.9256388911 4.8159880991 4.8159880991 4.8159880991 4.8159880991 4.8159880991 
4.8159880991 4.8159880991 4.8159880991 4.6087898617 4.6087898617 4.4991390697 4.6087898617 4.4991390697 4.3857031936 
4.6087898617 4.4991390697 4.3857031936 4.2712800401 4.6087898617 4.4991390697 4.3857031936 4.2712800401 4.1588146215 
4.6087898617 4.4991390697 4.3857031936 4.2712800401 4.1588146215 4.0509635631 4.6087898617 4.4991390697 4.3857031936 
4.2712800401 4.1588146215 4.0509635631 3.94975894 4.6087898617 4.4991390697 4.3857031936 4.2712800401 4.1588146215 
4.0509635631 3.94975894 3.8564636551 4.526799744 4.4046155105 4.426884955 4.2807094886 4.2918546451 4.3052269283 
4.1588146215 4.1588146215 4.1588146215 4.1588146215 4.042318168 4.0321740035 4.0201070968 4.0055183285 3.9875336042 
3.9337570603 3.9151549899 3.8932795963 3.8672112905 3.8356650183 3.7967995342 3.8346145692 3.809500442 3.7803704271 
3.7462412737 3.7058097288 3.657329819 3.5984456061 3.7454049075 3.7156421835 3.6816134988 3.6424295543 3.5969754326 
3.5438565869 3.4813459737 3.4073543651 3.5642842451 3.4524645613 3.5233842518 3.3320300872 3.403123212 3.4773852225 
3.20576226 3.2746326772 3.348015857 3.4255060145 3.0774230472 3.1415926536 3.2112816139 3.2864685043 3.3668817272 
2.95115522 3.00855263 3.0719036933 3.1415926536 3.2178377658 3.3005964304 2.8307207459 2.8800620952 2.9351694502 
2.9967168029 3.0653475414 3.1415926536 3.225752376 2.718901062 2.7598010554 2.8058000847 2.8576792927 2.91630358 
2.9825888767 3.0574329311 3.1415926536 3.5642842451 3.5233842518 3.4524645613 3.4773852225 3.403123212 3.3320300872 
3.4255060145 3.348015857 3.2746326772 3.20576226 3.3668817272 3.2864685043 3.2112816139 3.1415926536 3.0774230472 
3.3005964304 3.2178377658 3.1415926536 3.0719036933 3.00855263 2.95115522 3.225752376 3.1415926536 3.0653475414 
2.9967168029 2.9351694502 2.8800620952 2.8307207459 3.1415926536 3.0574329311 2.9825888767 2.91630358 2.8576792927 
2.8058000847 2.7598010554 2.718901062 4.526799744 4.426884955 4.4046155105 4.3052269283 4.2918546451 4.2807094886 
4.1588146215 4.1588146215 4.1588146215 4.1588146215 3.9875336042 4.0055183285 4.0201070968 4.0321740035 4.042318168 
3.7967995342 3.8356650183 3.8672112905 3.8932795963 3.9151549899 3.9337570603 3.5984456061 3.657329819 3.7058097288 
3.7462412737 3.7803704271 3.809500442 3.8346145692 3.4073543651 3.4813459737 3.5438565869 3.5969754326 3.6424295543 
3.6816134988 3.7156421835 3.7454049075 4.7123889804 4.8004512023 4.6243267584 4.9155579264 4.7123889804 4.5092200343 
5.0674903122 4.8353719722 4.5894059886 4.3572876485 5.2659633393 5.0120975802 4.7123889804 4.4126803806 4.1588146215 
5.5125918794 5.2659633393 4.9155579264 4.5092200343 4.1588146215 3.9121860814 5.7885595667 5.6029703303 5.2659633393 
4.7123889804 4.1588146215 3.8218076305 3.6362183941 6.0560271438 5.9702140275 5.7885595667 5.2659633393 4.1588146215 
3.6362183941 3.4545639333 3.368750817 0.22715816343 0.49462574053 0.3129712797 0.77059342779 0.68021497688 0.49462574053 
1.0172219679 1.0172219679 1.0172219679 1.0172219679 1.2156949949 1.271087727 1.3676273807 1.5707963268 2.1243706857 
1.3676273807 1.447813335 1.5707963268 1.7739652728 2.1243706857 2.6469669131 1.4827341049 1.5707963268 1.6937793186 
1.8705049266 2.1243706857 2.4613776767 2.8286213739 1.5707963268 1.6588585487 1.7739652728 1.9258976586 2.1243706857 
2.3709992258 2.6469669131 2.9144344902 1.7563855631 1.8785697967 1.8563003522 2.0024758186 1.9913306621 1.9779583789 
2.1243706857 2.1243706857 2.1243706857 2.1243706857 2.2408671392 2.2510113037 2.2630782103 2.2776669786 2.295651703 
2.3494282469 2.3680303173 2.3899057108 2.4159740166 2.4475202889 2.486385773 2.448570738 2.4736848652 2.5028148801 
2.5369440334 2.5773755784 2.6258554882 2.6847397011 2.5377803997 2.5675431237 2.6015718084 2.6407557529 2.6862098746 
2.7393287203 2.8018393335 2.8758309421 1.6743954455 1.6743954455 1.7840462375 1.6743954455 1.7840462375 1.8974821136 
1.6743954455 1.7840462375 1.8974821136 2.0119052671 1.6743954455 1.7840462375 1.8974821136 2.0119052671 2.1243706857 
1.6743954455 1.7840462375 1.8974821136 2.0119052671 2.1243706857 2.232221744 1.6743954455 1.7840462375 1.8974821136 
2.0119052671 2.1243706857 2.232221744 2.3334263672 1.6743954455 1.7840462375 1.8974821136 2.0119052671 2.1243706857 
2.232221744 2.3334263672 2.426721652 1.4671972081 1.3575464161 1.4671972081 1.24411054 1.3575464161 1.4671972081 
1.1296873865 1.24411054 1.3575464161 1.4671972081 1.0172219679 1.1296873865 1.24411054 1.3575464161 1.4671972081 
0.90937090954 1.0172219679 1.1296873865 1.24411054 1.3575464161 1.4671972081 0.80816628637 0.90937090954 1.0172219679 
1.1296873865 1.24411054 1.3575464161 1.4671972081 0.71487100155 0.80816628637 0.90937090954 1.0172219679 1.1296873865 
1.24411054 1.3575464161 1.4671972081 0.60381225391 0.57404952988 0.69302191562 0.54002084522 0.66790778838 0.79216440667 
0.50083690068 0.63877777351 0.77356233629 0.90072551443 0.45538277901 0.60464862014 0.75168694275 0.89058134991 1.0172219679 
0.40226393329 0.56421707518 0.72561863695 0.87851444325 1.0172219679 1.139116835 0.33975332011 0.51573716537 0.69407236469 
0.86392567495 1.0172219679 1.1502619915 1.2630228569 0.26576171152 0.45685295248 0.6552068806 0.84594095064 1.0172219679 
1.1636342747 1.2852923014 1.3852070904 0.22715816343 0.3129712797 0.49462574053 0.49462574053 0.68021497688 0.77059342779 
1.0172219679 1.0172219679 1.0172219679 1.0172219679 2.1243706857 1.5707963268 1.3676273807 1.271087727 1.2156949949 
2.6469669131 2.1243706857 1.7739652728 1.5707963268 1.447813335 1.3676273807 2.8286213739 2.4613776767 2.1243706857 
1.8705049266 1.6937793186 1.5707963268 1.4827341049 2.9144344902 2.6469669131 2.3709992258 2.1243706857 1.9258976586 
1.7739652728 1.6588585487 1.5707963268 1.7563855631 1.8563003522 1.8785697967 1.9779583789 1.9913306621 2.0024758186 
2.1243706857 2.1243706857 2.1243706857 2.1243706857 2.295651703 2.2776669786 2.2630782103 2.2510113037 2.2408671392 
2.486385773 2.4475202889 2.4159740166 2.3899057108 2.3680303173 2.3494282469 2.6847397011 2.6258554882 2.5773755784 
2.5369440334 2.5028148801 2.4736848652 2.448570738 2.8758309421 2.8018393335 2.7393287203 2.6862098746 2.6407557529 
2.6015718084 2.5675431237 2.5377803997 5.8604937156 5.901393709 5.9723133995 5.9473927383 6.0216547488 6.0927478736 
5.9992719463 6.0767621038 6.1501452836 6.2190157008 6.0578962336 6.1383094565 6.2134963469 0 0.064169606361 
6.1241815303 6.206940195 6.2831853072 0.069688960264 0.13304002361 0.19043743361 6.1990255847 0 0.07624511221 
0.14487585072 0.20642320337 0.26153055843 0.3108719077 0 0.084159722458 0.15900377685 0.22528907359 0.28391336087 
0.3357925689 0.38179159818 0.42269159155 5.8604937156 5.9723133995 5.901393709 6.0927478736 6.0216547488 5.9473927383 
6.2190157008 6.1501452836 6.0767621038 5.9992719463 0.064169606361 0 6.2134963469 6.1383094565 6.0578962336 
0.19043743361 0.13304002361 0.069688960264 6.2831853072 6.206940195 6.1241815303 0.3108719077 0.26153055843 0.20642320337 
0.14487585072 0.07624511221 6.2831853072 6.1990255847 0.42269159155 0.38179159818 0.3357925689 0.28391336087 0.22528907359 
0.15900377685 0.084159722458 0 5.6793730533 5.7091357773 5.5901633916 5.743164462 5.6152775188 5.4910209005 
5.7823484065 5.6444075337 5.5096229709 5.3824597928 5.8278025282 5.678536687 5.5314983644 5.3926039573 5.2659633393 
5.8809213739 5.718968232 5.5575666702 5.4046708639 5.2659633393 5.1440684722 5.9434319871 5.7674481418 5.5891129425 
5.4192596322 5.2659633393 5.1329233157 5.0201624502 6.0174235957 5.8263323547 5.6279784266 5.4372443565 5.2659633393 
5.1195510325 4.9978930058 4.8979782167 1.3852070904 1.2852923014 1.2630228569 1.1636342747 1.1502619915 1.139116835 
1.0172219679 1.0172219679 1.0172219679 1.0172219679 0.84594095064 0.86392567495 0.87851444325 0.89058134991 0.90072551443 
0.6552068806 0.69407236469 0.72561863695 0.75168694275 0.77356233629 0.79216440667 0.45685295248 0.51573716537 0.56421707518 
0.60464862014 0.63877777351 0.66790778838 0.69302191562 0.26576171152 0.33975332011 0.40226393329 0.45538277901 0.50083690068 
0.54002084522 0.57404952988 0.60381225391 
_paraPhiHalf 1 1002 double
0 3.1415926536 0 3.1415926536 1.5707963268 1.5707963268 1.5707963268 1.5707963268 2.5880182947 
0.5535743589 2.5880182947 0.5535743589 0 0 0 0 3.1415926536 3.1415926536 
3.1415926536 3.1415926536 3.1415926536 0.17788134 0.38438696014 0.60631181711 0.82323535693 1.0172219679 1.1799687454 
1.3118704726 1.4175000338 1.5022335207 0.17788134 0.38438696014 0.60631181711 0.82323535693 1.0172219679 1.1799687454 
1.3118704726 1.4175000338 1.5022335207 0.093902416448 0.17615329733 0.2478725152 0.31035131605 0.36486382811 0.41257334776 
0.45449736604 0.4915044461 0.52432611754 0.093902416448 0.17615329733 0.2478725152 0.31035131605 0.36486382811 0.41257334776 
0.45449736604 0.4915044461 0.52432611754 2.9637113136 2.7572056934 2.5352808365 2.3183572967 2.1243706857 1.9616239082 
1.829722181 1.7240926197 1.6393591329 2.9637113136 2.7572056934 2.5352808365 2.3183572967 2.1243706857 1.9616239082 
1.829722181 1.7240926197 1.6393591329 3.0476902371 2.9654393563 2.8937201384 2.8312413375 2.7767288255 2.7290193058 
2.6870952876 2.6500882075 2.617266536 3.0476902371 2.9654393563 2.8937201384 2.8312413375 2.7767288255 2.7290193058 
2.6870952876 2.6500882075 2.617266536 0 0 0 0 3.1415926536 3.1415926536 
3.1415926536 3.1415926536 3.1415926536 0.17788134 0.38438696014 0.60631181711 0.82323535693 1.0172219679 1.1799687454 
1.3118704726 1.4175000338 1.5022335207 0.17788134 0.38438696014 0.60631181711 0.82323535693 1.0172219679 1.1799687454 
1.3118704726 1.4175000338 1.5022335207 0.093902416448 0.17615329733 0.2478725152 0.31035131605 0.36486382811 0.41257334776 
0.45449736604 0.4915044461 0.52432611754 0.093902416448 0.17615329733 0.2478725152 0.31035131605 0.36486382811 0.41257334776 
0.45449736604 0.4915044461 0.52432611754 2.9637113136 2.7572056934 2.5352808365 2.3183572967 2.1243706857 1.9616239082 
1.829722181 1.7240926197 1.6393591329 2.9637113136 2.7572056934 2.5352808365 2.3183572967 2.1243706857 1.9616239082 
1.829722181 1.7240926197 1.6393591329 3.0476902371 2.9654393563 2.8937201384 2.8312413375 2.7767288255 2.7290193058 
2.6870952876 2.6500882075 2.617266536 3.0476902371 2.9654393563 2.8937201384 2.8312413375 2.7767288255 2.7290193058 
2.6870952876 2.6500882075 2.617266536 1.5707963268 1.5707963268 1.5707963268 1.5707963268 1.5707963268 1.5707963268 
1.5707963268 1.5707963268 1.5707963268 1.6743954455 1.7840462375 1.8974821136 2.0119052671 2.1243706857 2.232221744 
2.3334263672 2.426721652 2.5115728246 1.4671972081 1.3575464161 1.24411054 1.1296873865 1.0172219679 0.90937090954 
0.80816628637 0.71487100155 0.63001982895 1.6743954455 1.7840462375 1.8974821136 2.0119052671 2.1243706857 2.232221744 
2.3334263672 2.426721652 2.5115728246 1.4671972081 1.3575464161 1.24411054 1.1296873865 1.0172219679 0.90937090954 
0.80816628637 0.71487100155 0.63001982895 1.5707963268 1.5707963268 1.5707963268 1.5707963268 1.5707963268 1.5707963268 
1.5707963268 1.5707963268 1.5707963268 1.6743954455 1.7840462375 1.8974821136 2.0119052671 2.1243706857 2.232221744 
2.3334263672 2.426721652 2.5115728246 1.4671972081 1.3575464161 1.24411054 1.1296873865 1.0172219679 0.90937090954 
0.80816628637 0.71487100155 0.63001982895 1.6743954455 1.7840462375 1.8974821136 2.0119052671 2.1243706857 2.232221744 
2.3334263672 2.426721652 2.5115728246 1.4671972081 1.3575464161 1.24411054 1.1296873865 1.0172219679 0.90937090954 
0.80816628637 0.71487100155 0.63001982895 2.6824132222 2.7864913217 2.8992382033 3.0186096618 3.1415926536 3.0186096618 
2.8992382033 2.7864913217 2.6824132222 0.45917943135 0.35510133185 0.2423544503 0.12298299178 0 0.12298299178 
0.2423544503 0.35510133185 0.45917943135 0.22715816343 0.49462574053 0.3129712797 0.77059342779 0.68021497688 0.49462574053 
1.0172219679 1.0172219679 1.0172219679 1.0172219679 1.2156949949 1.271087727 1.3676273807 1.5707963268 2.1243706857 
1.3676273807 1.447813335 1.5707963268 1.7739652728 2.1243706857 2.6469669131 1.4827341049 1.5707963268 1.6937793186 
1.8705049266 2.1243706857 2.4613776767 2.8286213739 1.5707963268 1.6588585487 1.7739652728 1.9258976586 2.1243706857 
2.3709992258 2.6469669131 2.9144344902 0.26576171152 0.33975332011 0.45685295248 0.40226393329 0.51573716537 0.6552068806 
0.45538277901 0.56421707518 0.69407236469 0.84594095064 0.50083690068 0.60464862014 0.72561863695 0.86392567495 1.0172219679 
0.54002084522 0.63877777351 0.75168694275 0.87851444325 1.0172219679 1.1636342747 0.57404952988 0.66790778838 0.77356233629 
0.89058134991 1.0172219679 1.1502619915 1.2852923014 0.60381225391 0.69302191562 0.79216440667 0.90072551443 1.0172219679 
1.139116835 1.2630228569 1.3852070904 0.71487100155 0.80816628637 0.80816628637 0.90937090954 0.90937090954 0.90937090954 
1.0172219679 1.0172219679 1.0172219679 1.0172219679 1.1296873865 1.1296873865 1.1296873865 1.1296873865 1.1296873865 
1.24411054 1.24411054 1.24411054 1.24411054 1.24411054 1.24411054 1.3575464161 1.3575464161 1.3575464161 
1.3575464161 1.3575464161 1.3575464161 1.3575464161 1.4671972081 1.4671972081 1.4671972081 1.4671972081 1.4671972081 
1.4671972081 1.4671972081 1.4671972081 1.6743954455 1.6743954455 1.7840462375 1.6743954455 1.7840462375 1.8974821136 
1.6743954455 1.7840462375 1.8974821136 2.0119052671 1.6743954455 1.7840462375 1.8974821136 2.0119052671 2.1243706857 
1.6743954455 1.7840462375 1.8974821136 2.0119052671 2.1243706857 2.232221744 1.6743954455 1.7840462375 1.8974821136 
2.0119052671 2.1243706857 2.232221744 2.3334263672 1.6743954455 1.7840462375 1.8974821136 2.0119052671 2.1243706857 
2.232221744 2.3334263672 2.426721652 1.7563855631 1.8785697967 1.8563003522 2.0024758186 1.9913306621 1.9779583789 
2.1243706857 2.1243706857 2.1243706857 2.1243706857 2.2408671392 2.2510113037 2.2630782103 2.2776669786 2.295651703 
2.3494282469 2.3680303173 2.3899057108 2.4159740166 2.4475202889 2.486385773 2.448570738 2.4736848652 2.5028148801 
2.5369440334 2.5773755784 2.6258554882 2.6847397011 2.5377803997 2.5675431237 2.6015718084 2.6407557529 2.6862098746 
2.7393287203 2.8018393335 2.8758309421 2.718901062 2.8307207459 2.7598010554 2.95115522 2.8800620952 2.8058000847 
3.0774230472 3.00855263 2.9351694502 2.8576792927 3.0774230472 3.1415926536 3.0719036933 2.9967168029 2.91630358 
2.95115522 3.00855263 3.0719036933 3.1415926536 3.0653475414 2.9825888767 2.8307207459 2.8800620952 2.9351694502 
2.9967168029 3.0653475414 3.1415926536 3.0574329311 2.718901062 2.7598010554 2.8058000847 2.8576792927 2.91630358 
2.9825888767 3.0574329311 3.1415926536 2.718901062 2.7598010554 2.8307207459 2.8058000847 2.8800620952 2.95115522 
2.8576792927 2.9351694502 3.00855263 3.0774230472 2.91630358 2.9967168029 3.0719036933 3.1415926536 3.0774230472 
2.9825888767 3.0653475414 3.1415926536 3.0719036933 3.00855263 2.95115522 3.0574329311 3.1415926536 3.0653475414 