# vtk DataFile Version 5.1
vtk output
ASCII
DATASET POLYDATA
POINTS 1002 float
-13.2735 -0.3205 -1.78071 13.2048 0.538666 -3.23259 -13.0705 1.19495 2.94977 
12.1526 -0.820069 2.70631 0.400315 7.59083 -1.87179 0.646887 7.30655 1.29206 
0.521444 0.229716 -0.696455 1.8703 -0.671973 1.37914 21.4286 2.15556 -1.42362 
-19.5968 1.88254 -1.03233 18.5439 -10.4266 -1.01009 -20.2818 -9.54601 0.166525 
-11.5766 0.384729 -1.6406 -9.76477 1.23666 -1.2413 -7.61015 2.17714 -0.744723 
-4.67992 2.95886 -0.665701 -1.029 3.34045 -1.1796 2.67699 3.28578 -1.83402 
5.96928 2.87029 -2.29358 8.84848 2.1734 -2.67873 11.3048 1.3355 -3.05029 
-12.6236 0.431926 -1.62779 -11.9033 1.28834 -1.31256 -11.0211 2.23496 -0.895009 
-9.84629 3.2509 -0.502957 -8.36994 4.3049 -0.26112 -6.676 5.32351 -0.291004 
-4.80746 6.19876 -0.657827 -2.86487 6.85888 -1.21418 -1.07556 7.30683 -1.67112 
-12.891 -0.59155 -1.71345 -12.4761 -0.792962 -1.42591 -11.8635 -0.90496 -1.05055 
-10.8349 -0.924226 -0.840702 -9.38415 -0.854546 -0.884263 -7.73613 -0.671781 -0.988637 
-6.00407 -0.343744 -0.952304 -4.06412 0.0545287 -0.796183 -1.83668 0.311087 -0.674308 
-14.5451 -0.5249 -1.77841 -15.6616 -0.712933 -1.98288 -16.3078 -0.884854 -2.69592 
-16.6179 -0.94809 -3.65461 -17.1792 -0.723449 -4.09163 -18.2347 -0.129308 -3.67105 
-19.3104 0.655411 -2.84558 -19.88 1.32438 -2.11485 -19.8952 1.71617 -1.54938 
-14.6691 -1.22727 -1.87403 -15.9105 -2.33839 -2.09392 -16.7147 -3.70362 -2.58625 
-17.0706 -5.23672 -3.25674 -17.4022 -6.75705 -3.67597 -18.1326 -8.12534 -3.41768 
-19.1313 -9.22364 -2.5195 -19.9203 -9.8765 -1.41944 -20.2655 -9.96217 -0.492722 
12.5417 1.32019 -3.23572 11.6724 2.17731 -3.21989 10.6386 3.0678 -3.2625 
9.51888 3.92439 -3.39801 8.33809 4.7032 -3.53102 7.00082 5.42452 -3.49169 
5.4107 6.11351 -3.20129 3.64829 6.73096 -2.74086 1.92694 7.22237 -2.26304 
12.7168 0.251156 -3.16743 12.0827 -0.0224968 -3.06329 11.2539 -0.240485 -2.90313 
10.1862 -0.351522 -2.62416 8.86126 -0.316834 -2.15595 7.3172 -0.139699 -1.588 
5.6512 0.101749 -1.15296 3.9476 0.285533 -0.943126 2.23012 0.331575 -0.833101 
14.416 0.289934 -3.20347 15.5912 0.110176 -3.08472 16.8105 0.0279261 -2.9979 
18.0079 0.0648569 -2.92251 18.9852 0.219637 -2.70622 19.7397 0.478457 -2.37295 
20.4899 0.844482 -2.13867 21.2292 1.30434 -2.03616 21.6268 1.77682 -1.85135 
14.4025 -0.378366 -3.06258 15.2611 -1.28061 -2.46214 15.9569 -2.21787 -1.6694 
16.911 -3.3252 -1.34425 18.2304 -4.62416 -1.80999 19.421 -5.99712 -2.51812 
19.9436 -7.36766 -2.73723 19.7689 -8.67771 -2.35897 19.2111 -9.75884 -1.70111 
-11.2195 1.93356 3.27479 -8.70112 2.67374 3.26556 -5.20728 3.17648 2.55683 
-1.22447 3.23749 1.65763 2.13079 2.85397 1.63664 4.45795 2.16836 2.54016 
6.4256 1.33099 3.25833 8.52608 0.48446 3.21263 10.5362 -0.248798 2.8597 
-12.3131 1.87865 3.03228 -11.3863 2.65704 3.18829 -10.2818 3.52617 3.36352 
-8.92945 4.41343 3.39249 -7.3082 5.19491 3.18691 -5.55716 5.8141 2.83043 
-3.83787 6.31392 2.41136 -2.19728 6.7314 1.95614 -0.671114 7.06031 1.54384 
-12.6122 0.98396 3.08126 -11.9174 0.794657 3.14281 -10.9527 0.654202 3.06287 
-9.75283 0.603551 2.87263 -8.2971 0.661805 2.65572 -6.44312 0.760898 2.38707 
-4.17198 0.748432 2.00618 -1.79064 0.498739 1.61985 0.290517 5.53324e-05 1.40413 
-14.3796 0.924916 2.71848 -15.8415 0.728083 2.67532 -17.406 0.623138 2.74153 
-18.7652 0.564162 2.56312 -19.4859 0.471121 1.87163 -19.4672 0.347724 0.835373 
-19.1786 0.353426 -0.100397 -19.1579 0.662587 -0.65138 -19.4213 1.24675 -0.88114 
-14.5603 0.342619 2.76163 -16.1412 -0.580916 2.68379 -17.6846 -1.61122 2.63105 
-18.9628 -2.76732 2.46905 -19.8885 -4.0386 2.19017 -20.5818 -5.42267 1.88829 
-21.0959 -6.86132 1.59634 -21.2735 -8.15627 1.25058 -20.975 -9.08056 0.775681 
11.5561 -0.0748863 2.81282 10.6938 0.783413 2.95862 9.56199 1.77311 3.09395 
8.25377 2.88003 3.14086 6.9127 4.00939 3.03803 5.66471 5.00968 2.73774 
4.53822 5.79285 2.24326 3.41143 6.39162 1.70403 2.12345 6.882 1.34894 
11.6893 -1.20672 2.64784 11.0183 -1.57018 2.67035 10.104 -1.87676 2.80039 
8.97379 -2.09852 2.97959 7.72542 -2.2274 3.09967 6.51828 -2.23728 3.04435 
5.476 -2.05791 2.72407 4.50845 -1.65848 2.19309 3.35605 -1.13705 1.6756 
13.2356 -0.83748 2.81514 14.3154 -0.742467 2.98754 15.4016 -0.515174 3.11514 
16.4028 -0.145282 3.18094 17.2855 0.346502 3.15077 18.2425 0.87757 2.79624 
19.4192 1.34773 1.91386 20.5796 1.71324 0.668504 21.3116 1.97842 -0.535159 
13.2751 -1.57773 2.71224 14.3572 -2.39926 2.71808 15.4266 -3.31098 2.51216 
16.355 -4.32872 2.12271 17.0302 -5.46651 1.7947 17.5617 -6.71955 1.57054 
18.035 -8.0097 1.2285 18.3462 -9.17325 0.629334 18.4697 -10.0214 -0.166467 
0.24991 7.95262 -1.6459 -0.103841 8.39808 -1.27417 -0.610598 8.91985 -0.733639 
-1.08819 9.3613 -0.0221431 -1.30562 9.4785 0.74113 -1.13847 9.1892 1.29611 
-0.661721 8.66995 1.47447 -0.0962425 8.14536 1.39395 0.359073 7.69887 1.29509 
2.76359 7.5302 -2.15629 5.47039 7.3519 -2.49037 8.33234 7.14959 -2.85423 
10.9083 6.86579 -3.02799 12.9264 6.23666 -2.84009 14.7051 5.19033 -2.47619 
16.6831 4.08381 -2.24094 18.7274 3.25708 -2.12754 20.3772 2.67716 -1.89992 
-1.84023 7.7027 -1.49855 -4.13166 7.63535 -1.06436 -6.57897 7.35512 -0.476595 
-9.12186 6.79956 0.00462465 -11.4817 5.93851 -0.100585 -13.5993 4.96736 -0.699039 
-15.6728 4.17721 -1.10453 -17.594 3.55529 -1.05081 -18.9526 2.83302 -0.922891 
2.70356 7.27828 1.32352 4.55525 7.28235 1.74327 6.32828 7.25537 2.13648 
8.25415 6.92925 2.05714 10.4344 6.06415 1.54164 12.8753 4.86557 0.908688 
15.5176 3.84621 0.243925 18.0672 3.20828 -0.473316 20.1053 2.72508 -1.08744 
-1.91733 7.56073 1.71081 -4.80388 7.69133 2.40518 -7.42518 7.51141 2.80044 
-9.48956 6.918 2.54899 -11.4504 5.97773 2.00591 -13.8003 4.90828 1.61918 
-16.1809 3.96209 1.23802 -17.9173 3.22625 0.567703 -18.9337 2.57962 -0.280636 
0.960675 -0.0581276 -0.678835 1.50647 -0.39215 -0.769997 2.09218 -0.804417 -0.983214 
2.41712 -1.23999 -1.04647 2.19362 -1.52497 -0.600185 1.62306 -1.53312 0.256375 
1.25609 -1.33739 0.98698 1.32821 -1.09617 1.2915 1.62059 -0.879666 1.33779 
3.96153 -0.411396 -1.00207 6.95947 -1.89758 -1.37917 8.99037 -3.55512 -1.52497 
10.6193 -4.64522 -1.35 12.8343 -5.47426 -1.24927 15.4174 -6.97147 -1.60087 
17.2187 -9.03246 -2.10997 17.9041 -10.5499 -2.17889 18.1492 -10.9105 -1.69141 
-2.73836 -0.133148 -0.514621 -5.85662 -1.20359 -0.486211 -8.30365 -2.63247 -0.672325 
-10.1434 -3.95739 -0.953144 -11.9235 -5.09956 -1.09428 -13.844 -6.27221 -1.04747 
-15.6369 -7.47786 -0.933962 -17.2277 -8.49557 -0.73637 -18.7821 -9.18709 -0.349498 
3.90623 -1.89009 1.6024 5.37129 -3.34113 1.86594 6.83522 -4.51074 1.93635 
9.05133 -5.31317 1.71016 11.9189 -6.37775 1.21844 14.4206 -8.15304 0.562232 
15.9089 -10.0502 -0.0630216 16.7541 -11.1247 -0.491498 17.576 -11.1198 -0.759166 
-1.12698 -0.122806 1.37235 -4.8182 -0.404163 1.6457 -8.18859 -1.51112 1.86476 
-10.6131 -2.88245 1.71591 -12.619 -4.02576 1.32814 -14.8196 -5.03641 1.02736 
-16.8656 -6.19595 0.842983 -18.2985 -7.47515 0.634682 -19.3241 -8.64893 0.393422 
22.3836 1.29945 -1.02918 23.1504 0.237197 -0.445891 23.6941 -0.814328 0.0661399 
23.6798 -1.85627 0.206737 23.0016 -3.26506 -0.12819 22.179 -5.09191 -0.66867 
21.5371 -6.8078 -0.976661 20.744 -8.14646 -0.949499 19.6295 -9.33072 -0.881334 
-20.1267 0.602325 -1.59367 -20.5938 -0.938203 -2.08259 -20.9578 -2.48064 -2.31144 
-21.2089 -3.98811 -2.18548 -21.6778 -5.76308 -1.71021 -22.5853 -7.7787 -0.949557 
-23.3055 -9.38196 -0.154962 -23.0182 -10.0809 0.308711 -21.7868 -10.0135 0.340514 
-10.7817 1.20563 -1.45736 -9.91475 2.13602 -1.09399 -8.79526 2.13528 -1.00778 
-8.84501 3.12893 -0.669615 -7.67714 3.09604 -0.67773 -6.29227 3.04421 -0.609996 
-7.4408 4.12754 -0.377319 -6.26569 4.0352 -0.441944 -4.70575 3.8733 -0.585203 
-2.87913 3.60786 -0.865219 -5.70974 5.07417 -0.386522 -4.47139 4.87823 -0.506907 
-2.79589 4.59769 -0.824044 -0.827794 4.15917 -1.30868 1.05822 3.69373 -1.69796 
-3.73947 5.89547 -0.773177 -2.36776 5.5725 -0.962227 -0.618158 5.16889 -1.37097 
1.35986 4.61267 -1.94206 3.20184 3.98963 -2.3573 4.70368 3.42163 -2.42255 
-1.66064 6.52608 -1.40511 -0.148592 6.09545 -1.68606 1.63328 5.57321 -2.11423 
3.50561 4.95124 -2.61338 5.20917 4.25848 -2.94324 6.60524 3.56759 -2.95781 
7.77318 2.88927 -2.79192 0.295449 6.95468 -1.972 1.92848 6.4672 -2.36425 
3.70817 5.86334 -2.80412 5.42679 5.19537 -3.17238 6.93606 4.48722 -3.33336 
8.22403 3.73771 -3.2709 9.35741 2.95277 -3.12359 10.3867 2.14446 -3.0389 
-13.9653 0.325741 -1.51437 -15.1353 0.258987 -1.65983 -13.2523 1.27097 -1.11918 
-15.839 0.194356 -2.34501 -14.444 1.30528 -1.20089 -12.2703 2.30728 -0.673567 
-16.2516 0.211039 -3.18064 -15.2258 1.31701 -1.76735 -13.422 2.44377 -0.658555 
-10.9215 3.43802 -0.278501 -16.8306 0.524575 -3.4537 -15.6699 1.3872 -2.44737 
-14.2335 2.54149 -1.00724 -11.9713 3.69507 -0.131149 -9.27692 4.61683 -0.045994 
-17.6558 1.21226 -3.0445 -16.0504 1.75397 -2.72855 -14.6121 2.67776 -1.5232 
-12.7186 3.89773 -0.243725 -10.1527 4.96658 0.16621 -7.42238 5.71173 -0.143839 
-18.4115 2.01361 -2.35279 -16.5458 2.44208 -2.49807 -14.7932 3.06058 -1.85205 
-13.0265 4.11339 -0.595208 -10.7541 5.24917 0.168932 -8.07442 6.08372 -0.00740531 
-5.41638 6.59731 -0.606206 -18.8544 2.58701 -1.63309 -17.1265 3.13716 -1.88403 
-15.1377 3.65398 -1.72205 -13.2076 4.49338 -0.862514 -11.0934 5.54534 -0.0275084 
-8.58408 6.41688 0.00663043 -5.95827 6.96321 -0.555461 -3.4713 7.24743 -1.16253 
-18.0587 3.49509 -0.141021 -16.622 4.19638 0.715993 -16.4171 4.33255 -0.180653 
-14.4653 5.11404 1.38571 -14.7036 5.3014 0.783215 -14.2947 5.26718 -0.0781308 
-12.0269 6.21923 1.85771 -12.5452 6.48454 1.56253 -12.5696 6.57217 0.921834 
-12.0635 6.34775 0.22574 -9.89279 7.23629 2.33784 -10.3977 7.61805 2.11952 
-10.6748 7.8701 1.6193 -10.3684 7.75999 0.852827 -9.6896 7.31585 0.230884 
-7.85769 7.90204 2.65045 -8.34832 8.38423 2.46502 -8.74087 8.82104 2.02167 
-8.62465 8.91562 1.19327 -7.91786 8.53965 0.281183 -7.09486 7.92098 -0.297377 
-5.33607 8.1251 2.40445 -5.93015 8.65276 2.37669 -6.48889 9.21992 2.11848 
[...]
POINT_DATA 1002
FIELD FieldData 4
_paraPhi 1 1002 double
6.2831853072 3.1415926536 6.2831853072 3.1415926536 4.7123889804 4.7123889804 1.5707963268 1.5707963268 3.6951670125 
5.7296109483 2.5880182947 0.5535743589 6.2831853072 6.2831853072 6.2831853072 6.2831853072 3.1415926536 3.1415926536 
3.1415926536 3.1415926536 3.1415926536 6.1053039672 5.898798347 5.6768734901 5.4599499503 5.2659633393 5.1032165617 
4.9713148346 4.8656852733 4.7809517865 0.17788134 0.38438696014 0.60631181711 0.82323535693 1.0172219679 1.1799687454 
1.3118704726 1.4175000338 1.5022335207 6.1892828907 6.1070320098 6.035312792 5.9728339911 5.9183214791 5.8706119594 
5.8286879411 5.7916808611 5.7588591896 0.093902416448 0.17615329733 0.2478725152 0.31035131605 0.36486382811 0.41257334776 
0.45449736604 0.4915044461 0.52432611754 3.3194739936 3.5259796137 3.7479044707 3.9648280105 4.1588146215 4.321561399 
4.4534631262 4.5590926874 4.6438261743 2.9637113136 2.7572056934 2.5352808365 2.3183572967 2.1243706857 1.9616239082 
1.829722181 1.7240926197 1.6393591329 3.23549507 3.3177459509 3.3894651688 3.4519439696 3.5064564817 3.5541660013 
3.5960900196 3.6330970997 3.6659187711 3.0476902371 2.9654393563 2.8937201384 2.8312413375 2.7767288255 2.7290193058 
2.6870952876 2.6500882075 2.617266536 6.2831853072 6.2831853072 6.2831853072 6.2831853072 3.1415926536 3.1415926536 
3.1415926536 3.1415926536 3.1415926536 6.1053039672 5.898798347 5.6768734901 5.4599499503 5.2659633393 5.1032165617 
4.9713148346 4.8656852733 4.7809517865 0.17788134 0.38438696014 0.60631181711 0.82323535693 1.0172219679 1.1799687454 
1.3118704726 1.4175000338 1.5022335207 6.1892828907 6.1070320098 6.035312792 5.9728339911 5.9183214791 5.8706119594 
5.8286879411 5.7916808611 5.7588591896 0.093902416448 0.17615329733 0.2478725152 0.31035131605 0.36486382811 0.41257334776 
0.45449736604 0.4915044461 0.52432611754 3.3194739936 3.5259796137 3.7479044707 3.9648280105 4.1588146215 4.321561399 
4.4534631262 4.5590926874 4.6438261743 2.9637113136 2.7572056934 2.5352808365 2.3183572967 2.1243706857 1.9616239082 
1.829722181 1.7240926197 1.6393591329 3.23549507 3.3177459509 3.3894651688 3.4519439696 3.5064564817 3.5541660013 
3.5960900196 3.6330970997 3.6659187711 3.0476902371 2.9654393563 2.8937201384 2.8312413375 2.7767288255 2.7290193058 
2.6870952876 2.6500882075 2.617266536 4.7123889804 4.7123889804 4.7123889804 4.7123889804 4.7123889804 4.7123889804 
4.7123889804 4.7123889804 4.7123889804 4.6087898617 4.4991390697 4.3857031936 4.2712800401 4.1588146215 4.0509635631 
3.94975894 3.8564636551 3.7716124825 4.8159880991 4.9256388911 5.0390747672 5.1534979207 5.2659633393 5.3738143976 
5.4750190208 5.5683143056 5.6531654782 4.6087898617 4.4991390697 4.3857031936 4.2712800401 4.1588146215 4.0509635631 
3.94975894 3.8564636551 3.7716124825 4.8159880991 4.9256388911 5.0390747672 5.1534979207 5.2659633393 5.3738143976 
5.4750190208 5.5683143056 5.6531654782 1.5707963268 1.5707963268 1.5707963268 1.5707963268 1.5707963268 1.5707963268 
1.5707963268 1.5707963268 1.5707963268 1.6743954455 1.7840462375 1.8974821136 2.0119052671 2.1243706857 2.232221744 
2.3334263672 2.426721652 2.5115728246 1.4671972081 1.3575464161 1.24411054 1.1296873865 1.0172219679 0.90937090954 
0.80816628637 0.71487100155 0.63001982895 1.6743954455 1.7840462375 1.8974821136 2.0119052671 2.1243706857 2.232221744 
2.3334263672 2.426721652 2.5115728246 1.4671972081 1.3575464161 1.24411054 1.1296873865 1.0172219679 0.90937090954 
0.80816628637 0.71487100155 0.63001982895 3.6007720849 3.4966939854 3.3839471039 3.2645756454 3.1415926536 3.0186096618 
2.8992382033 2.7864913217 2.6824132222 5.8240058758 5.9280839753 6.0408308569 6.1602023154 6.2831853072 0.12298299178 
0.2423544503 0.35510133185 0.45917943135 6.0560271438 5.7885595667 5.9702140275 5.5125918794 5.6029703303 5.7885595667 
5.2659633393 5.2659633393 5.2659633393 5.2659633393 5.0674903122 5.0120975802 4.9155579264 4.7123889804 4.1588146215 
4.9155579264 4.8353719722 4.7123889804 4.5092200343 4.1588146215 3.6362183941 4.8004512023 4.7123889804 4.5894059886 
4.4126803806 4.1588146215 3.8218076305 3.4545639333 4.7123889804 4.6243267584 4.5092200343 4.3572876485 4.1588146215 
3.9121860814 3.6362183941 3.368750817 6.0174235957 5.9434319871 5.8263323547 5.8809213739 5.7674481418 5.6279784266 
5.8278025282 5.718968232 5.5891129425 5.4372443565 5.7823484065 5.678536687 5.5575666702 5.4192596322 5.2659633393 
5.743164462 5.6444075337 5.5314983644 5.4046708639 5.2659633393 5.1195510325 5.7091357773 5.6152775188 5.5096229709 
5.3926039573 5.2659633393 5.1329233157 4.9978930058 5.6793730533 5.5901633916 5.4910209005 5.3824597928 5.2659633393 
5.1440684722 5.0201624502 4.8979782167 5.5683143056 5.4750190208 5.4750190208 5.3738143976 5.3738143976 5.3738143976 
5.2659633393 5.2659633393 5.2659633393 5.2659633393 5.1534979207 5.1534979207 5.1534979207 5.1534979207 5.1534979207 
5.0390747672 5.0390747672 5.0390747672 5.0390747672 5.0390747672 5.0390747672 4.9256388911 4.9256388911 4.9256388911 
4.9256388911 4.9256388911 4.9256388911 4.9256388911 4.8159880991 4.8159880991 4.8159880991 4.8159880991 4.8159880991 
4.8159880991 4.8159880991 4.8159880991 4.6087898617 4.6087898617 4.4991390697 4.6087898617 4.4991390697 4.3857031936 
4.6087898617 4.4991390697 4.3857031936 4.2712800401 4.6087898617 4.4991390697 4.3857031936 4.2712800401 4.1588146215 
4.6087898617 4.4991390697 4.3857031936 4.2712800401 4.1588146215 4.0509635631 4.6087898617 4.4991390697 4.3857031936 
4.2712800401 4.1588146215 4.0509635631 3.94975894 4.6087898617 4.4991390697 4.3857031936 4.2712800401 4.1588146215 
4.0509635631 3.94975894 3.8564636551 4.526799744 4.4046155105 4.426884955 4.2807094886 4.2918546451 4.3052269283 
4.1588146215 4.1588146215 4.1588146215 4.1588146215 4.042318168 4.0321740035 4.0201070968 4.0055183285 3.9875336042 
3.9337570603 3.9151549899 3.8932795963 3.8672112905 3.8356650183 3.7967995342 3.8346145692 3.809500442 3.7803704271 
3.7462412737 3.7058097288 3.657329819 3.5984456061 3.7454049075 3.7156421835 3.6816134988 3.6424295543 3.5969754326 
3.5438565869 3.4813459737 3.4073543651 3.5642842451 3.4524645613 3.5233842518 3.3320300872 3.403123212 3.4773852225 
3.20576226 3.2746326772 3.348015857 3.4255060145 3.0774230472 3.1415926536 3.2112816139 3.2864685043 3.3668817272 
2.95115522 3.00855263 3.0719036933 3.1415926536 3.2178377658 3.3005964304 2.8307207459 2.8800620952 2.9351694502 
2.9967168029 3.0653475414 3.1415926536 3.225752376 2.718901062 2.7598010554 2.8058000847 2.8576792927 2.91630358 
2.9825888767 3.0574329311 3.1415926536 3.5642842451 3.5233842518 3.4524645613 3.4773852225 3.403123212 3.3320300872 
3.4255060145 3.348015857 3.2746326772 3.20576226 3.3668817272 3.2864685043 3.2112816139 3.1415926536 3.0774230472 
3.3005964304 3.2178377658 3.1415926536 3.0719036933 3.00855263 2.95115522 3.225752376 3.1415926536 3.0653475414 
2.9967168029 2.9351694502 2.8800620952 2.8307207459 3.1415926536 3.0574329311 2.9825888767 2.91630358 2.8576792927 
2.8058000847 2.7598010554 2.718901062 4.526799744 4.426884955 4.4046155105 4.3052269283 4.2918546451 4.2807094886 
4.1588146215 4.1588146215 4.1588146215 4.1588146215 3.9875336042 4.0055183285 4.0201070968 4.0321740035 4.042318168 
3.7967995342 3.8356650183 3.8672112905 3.8932795963 3.9151549899 3.9337570603 3.5984456061 3.657329819 3.7058097288 
3.7462412737 3.7803704271 3.809500442 3.8346145692 3.4073543651 3.4813459737 3.5438565869 3.5969754326 3.6424295543 
3.6816134988 3.7156421835 3.7454049075 4.7123889804 4.8004512023 4.6243267584 4.9155579264 4.7123889804 4.5092200343 
5.0674903122 4.8353719722 4.5894059886 4.3572876485 5.2659633393 5.0120975802 4.7123889804 4.4126803806 4.1588146215 
5.5125918794 5.2659633393 4.9155579264 4.5092200343 4.1588146215 3.9121860814 5.7885595667 5.6029703303 5.2659633393 
4.7123889804 4.1588146215 3.8218076305 3.6362183941 6.0560271438 5.9702140275 5.7885595667 5.2659633393 4.1588146215 
3.6362183941 3.4545639333 3.368750817 0.22715816343 0.49462574053 0.3129712797 0.77059342779 0.68021497688 0.49462574053 
1.0172219679 1.0172219679 1.0172219679 1.0172219679 1.2156949949 1.271087727 1.3676273807 1.5707963268 2.1243706857 
1.3676273807 1.447813335 1.5707963268 1.7739652728 2.1243706857 2.6469669131 1.4827341049 1.5707963268 1.6937793186 
1.8705049266 2.1243706857 2.4613776767 2.8286213739 1.5707963268 1.6588585487 1.7739652728 1.9258976586 2.1243706857 
2.3709992258 2.6469669131 2.9144344902 1.7563855631 1.8785697967 1.8563003522 2.0024758186 1.9913306621 1.9779583789 
2.1243706857 2.1243706857 2.1243706857 2.1243706857 2.2408671392 2.2510113037 2.2630782103 2.2776669786 2.295651703 
2.3494282469 2.3680303173 2.3899057108 2.4159740166 2.4475202889 2.486385773 2.448570738 2.4736848652 2.5028148801 
2.5369440334 2.5773755784 2.6258554882 2.6847397011 2.5377803997 2.5675431237 2.6015718084 2.6407557529 2.6862098746 
2.7393287203 2.8018393335 2.8758309421 1.6743954455 1.6743954455 1.7840462375 1.6743954455 1.7840462375 1.8974821136 
1.6743954455 1.7840462375 1.8974821136 2.0119052671 1.6743954455 1.7840462375 1.8974821136 2.0119052671 2.1243706857 
1.6743954455 1.7840462375 1.8974821136 2.0119052671 2.1243706857 2.232221744 1.6743954455 1.7840462375 1.8974821136 
2.0119052671 2.1243706857 2.232221744 2.3334263672 1.6743954455 1.7840462375 1.8974821136 2.0119052671 2.1243706857 
2.232221744 2.3334263672 2.426721652 1.4671972081 1.3575464161 1.4671972081 1.24411054 1.3575464161 1.4671972081 
1.1296873865 1.24411054 1.3575464161 1.4671972081 1.0172219679 1.1296873865 1.24411054 1.3575464161 1.4671972081 
0.90937090954 1.0172219679 1.1296873865 1.24411054 1.3575464161 1.4671972081 0.80816628637 0.90937090954 1.0172219679 
1.1296873865 1.24411054 1.3575464161 1.4671972081 0.71487100155 0.80816628637 0.90937090954 1.0172219679 1.1296873865 
1.24411054 1.3575464161 1.4671972081 0.60381225391 0.57404952988 0.69302191562 0.54002084522 0.66790778838 0.79216440667 
0.50083690068 0.63877777351 0.77356233629 0.90072551443 0.45538277901 0.60464862014 0.75168694275 0.89058134991 1.0172219679 
0.40226393329 0.56421707518 0.72561863695 0.87851444325 1.0172219679 1.139116835 0.33975332011 0.51573716537 0.69407236469 
0.86392567495 1.0172219679 1.1502619915 1.2630228569 0.26576171152 0.45685295248 0.6552068806 0.84594095064 1.0172219679 
1.1636342747 1.2852923014 1.3852070904 0.22715816343 0.3129712797 0.49462574053 0.49462574053 0.68021497688 0.77059342779 
1.0172219679 1.0172219679 1.0172219679 1.0172219679 2.1243706857 1.5707963268 1.3676273807 1.271087727 1.2156949949 
2.6469669131 2.1243706857 1.7739652728 1.5707963268 1.447813335 1.3676273807 2.8286213739 2.4613776767 2.1243706857 
1.8705049266 1.6937793186 1.5707963268 1.4827341049 2.9144344902 2.6469669131 2.3709992258 2.1243706857 1.9258976586 
1.7739652728 1.6588585487 1.5707963268 1.7563855631 1.8563003522 1.8785697967 1.9779583789 1.9913306621 2.0024758186 
2.1243706857 2.1243706857 2.1243706857 2.1243706857 2.295651703 2.2776669786 2.2630782103 2.2510113037 2.2408671392 
2.486385773 2.4475202889 2.4159740166 2.3899057108 2.3680303173 2.3494282469 2.6847397011 2.6258554882 2.5773755784 
2.5369440334 2.5028148801 2.4736848652 2.448570738 2.8758309421 2.8018393335 2.7393287203 2.6862098746 2.6407557529 
2.6015718084 2.5675431237 2.5377803997 5.8604937156 5.901393709 5.9723133995 5.9473927383 6.0216547488 6.0927478736 
5.9992719463 6.0767621038 6.1501452836 6.2190157008 6.0578962336 6.1383094565 6.2134963469 0 0.064169606361 
6.1241815303 6.206940195 6.2831853072 0.069688960264 0.13304002361 0.19043743361 6.1990255847 0 0.07624511221 
0.14487585072 0.20642320337 0.26153055843 0.3108719077 0 0.084159722458 0.15900377685 0.22528907359 0.28391336087 
0.3357925689 0.38179159818 0.42269159155 5.8604937156 5.9723133995 5.901393709 6.0927478736 6.0216547488 5.9473927383 
6.2190157008 6.1501452836 6.0767621038 5.9992719463 0.064169606361 0 6.2134963469 6.1383094565 6.0578962336 
0.19043743361 0.13304002361 0.069688960264 6.2831853072 6.206940195 6.1241815303 0.3108719077 0.26153055843 0.20642320337 
0.14487585072 0.07624511221 6.2831853072 6.1990255847 0.42269159155 0.38179159818 0.3357925689 0.28391336087 0.22528907359 
0.15900377685 0.084159722458 0 5.6793730533 5.7091357773 5.5901633916 5.743164462 5.6152775188 5.4910209005 
5.7823484065 5.6444075337 5.5096229709 5.3824597928 5.8278025282 5.678536687 5.5314983644 5.3926039573 5.2659633393 
5.8809213739 5.718968232 5.5575666702 5.4046708639 5.2659633393 5.1440684722 5.9434319871 5.7674481418 5.5891129425 
5.4192596322 5.2659633393 5.1329233157 5.0201624502 6.0174235957 5.8263323547 5.6279784266 5.4372443565 5.2659633393 
5.1195510325 4.9978930058 4.8979782167 1.3852070904 1.2852923014 1.2630228569 1.1636342747 1.1502619915 1.139116835 
1.0172219679 1.0172219679 1.0172219679 1.0172219679 0.84594095064 0.86392567495 0.87851444325 0.89058134991 0.90072551443 
0.6552068806 0.69407236469 0.72561863695 0.75168694275 0.77356233629 0.79216440667 0.45685295248 0.51573716537 0.56421707518 
0.60464862014 0.63877777351 0.66790778838 0.69302191562 0.26576171152 0.33975332011 0.40226393329 0.45538277901 0.50083690068 
0.54002084522 0.57404952988 0.60381225391 
_paraPhiHalf 1 1002 double
0 3.1415926536 0 3.1415926536 1.5707963268 1.5707963268 1.5707963268 1.5707963268 2.5880182947 
0.5535743589 2.5880182947 0.5535743589 0 0 0 0 3.1415926536 3.1415926536 
3.1415926536 3.1415926536 3.1415926536 0.17788134 0.38438696014 0.60631181711 0.82323535693 1.0172219679 1.1799687454 
1.3118704726 1.4175000338 1.5022335207 0.17788134 0.38438696014 0.60631181711 0.82323535693 1.0172219679 1.1799687454 
1.3118704726 1.4175000338 1.5022335207 0.093902416448 0.17615329733 0.2478725152 0.31035131605 0.36486382811 0.41257334776 
0.45449736604 0.4915044461 0.52432611754 0.093902416448 0.17615329733 0.2478725152 0.31035131605 0.36486382811 0.41257334776 
0.45449736604 0.4915044461 0.52432611754 2.9637113136 2.7572056934 2.5352808365 2.3183572967 2.1243706857 1.9616239082 
1.829722181 1.7240926197 1.6393591329 2.9637113136 2.7572056934 2.5352808365 2.3183572967 2.1243706857 1.9616239082 
1.829722181 1.7240926197 1.6393591329 3.0476902371 2.9654393563 2.8937201384 2.8312413375 2.7767288255 2.7290193058 
2.6870952876 2.6500882075 2.617266536 3.0476902371 2.9654393563 2.8937201384 2.8312413375 2.7767288255 2.7290193058 
2.6870952876 2.6500882075 2.617266536 0 0 0 0 3.1415926536 3.1415926536 
3.1415926536 3.1415926536 3.1415926536 0.17788134 0.38438696014 0.60631181711 0.82323535693 1.0172219679 1.1799687454 
1.3118704726 1.4175000338 1.5022335207 0.17788134 0.38438696014 0.60631181711 0.82323535693 1.0172219679 1.1799687454 
1.3118704726 1.4175000338 1.5022335207 0.093902416448 0.17615329733 0.2478725152 0.31035131605 0.36486382811 0.41257334776 
0.45449736604 0.4915044461 0.52432611754 0.093902416448 0.17615329733 0.2478725152 0.31035131605 0.36486382811 0.41257334776 
0.45449736604 0.4915044461 0.52432611754 2.9637113136 2.7572056934 2.5352808365 2.3183572967 2.1243706857 1.9616239082 
1.829722181 1.7240926197 1.6393591329 2.9637113136 2.7572056934 2.5352808365 2.3183572967 2.1243706857 1.9616239082 
1.829722181 1.7240926197 1.6393591329 3.0476902371 2.9654393563 2.8937201384 2.8312413375 2.7767288255 2.7290193058 
2.6870952876 2.6500882075 2.617266536 3.0476902371 2.9654393563 2.8937201384 2.8312413375 2.7767288255 2.7290193058 
2.6870952876 2.6500882075 2.617266536 1.5707963268 1.5707963268 1.5707963268 1.5707963268 1.5707963268 1.5707963268 
1.5707963268 1.5707963268 1.5707963268 1.6743954455 1.7840462375 1.8974821136 2.0119052671 2.1243706857 2.232221744 
2.3334263672 2.426721652 2.5115728246 1.4671972081 1.3575464161 1.24411054 1.1296873865 1.0172219679 0.90937090954 
0.80816628637 0.71487100155 0.63001982895 1.6743954455 1.7840462375 1.8974821136 2.0119052671 2.1243706857 2.232221744 
2.3334263672 2.426721652 2.5115728246 1.4671972081 1.3575464161 1.24411054 1.1296873865 1.0172219679 0.90937090954 
0.80816628637 0.71487100155 0.63001982895 1.5707963268 1.5707963268 1.5707963268 1.5707963268 1.5707963268 1.5707963268 
1.5707963268 1.5707963268 1.5707963268 1.6743954455 1.7840462375 1.8974821136 2.0119052671 2.1243706857 2.232221744 
2.3334263672 2.426721652 2.5115728246 1.4671972081 1.3575464161 1.24411054 1.1296873865 1.0172219679 0.90937090954 
0.80816628637 0.71487100155 0.63001982895 1.6743954455 1.7840462375 1.8974821136 2.0119052671 2.1243706857 2.232221744 
2.3334263672 2.426721652 2.5115728246 1.4671972081 1.3575464161 1.24411054 1.1296873865 1.0172219679 0.90937090954 
0.80816628637 0.71487100155 0.63001982895 2.6824132222 2.7864913217 2.8992382033 3.0186096618 3.1415926536 3.0186096618 
2.8992382033 2.7864913217 2.6824132222 0.45917943135 0.35510133185 0.2423544503 0.12298299178 0 0.12298299178 
0.2423544503 0.35510133185 0.45917943135 0.22715816343 0.49462574053 0.3129712797 0.77059342779 0.68021497688 0.49462574053 
1.0172219679 1.0172219679 1.0172219679 1.0172219679 1.2156949949 1.271087727 1.3676273807 1.5707963268 2.1243706857 
1.3676273807 1.447813335 1.5707963268 1.7739652728 2.1243706857 2.6469669131 1.4827341049 1.5707963268 1.6937793186 
1.8705049266 2.1243706857 2.4613776767 2.8286213739 1.5707963268 1.6588585487 1.7739652728 1.9258976586 2.1243706857 
2.3709992258 2.6469669131 2.9144344902 0.26576171152 0.33975332011 0.45685295248 0.40226393329 0.51573716537 0.6552068806 
0.45538277901 0.56421707518 0.69407236469 0.84594095064 0.50083690068 0.60464862014 0.72561863695 0.86392567495 1.0172219679 
0.54002084522 0.63877777351 0.75168694275 0.87851444325 1.0172219679 1.1636342747 0.57404952988 0.66790778838 0.77356233629 
0.89058134991 1.0172219679 1.1502619915 1.2852923014 0.60381225391 0.69302191562 0.79216440667 0.90072551443 1.0172219679 
1.139116835 1.2630228569 1.3852070904 0.71487100155 0.80816628637 0.80816628637 0.90937090954 0.90937090954 0.90937090954 
1.0172219679 1.0172219679 1.0172219679 1.0172219679 1.1296873865 1.1296873865 1.1296873865 1.1296873865 1.1296873865 
1.24411054 1.24411054 1.24411054 1.24411054 1.24411054 1.24411054 1.3575464161 1.3575464161 1.3575464161 
1.3575464161 1.3575464161 1.3575464161 1.3575464161 1.4671972081 1.4671972081 1.4671972081 1.4671972081 1.4671972081 
1.4671972081 1.4671972081 1.4671972081 1.6743954455 1.6743954455 1.7840462375 1.6743954455 1.7840462375 1.8974821136 
1.6743954455 1.7840462375 1.8974821136 2.0119052671 1.6743954455 1.7840462375 1.8974821136 2.0119052671 2.1243706857 
1.6743954455 1.7840462375 1.8974821136 2.0119052671 2.1243706857 2.232221744 1.6743954455 1.7840462375 1.8974821136 
2.0119052671 2.1243706857 2.232221744 2.3334263672 1.6743954455 1.7840462375 1.8974821136 2.0119052671 2.1243706857 
2.232221744 2.3334263672 2.426721652 1.7563855631 1.8785697967 1.8563003522 2.0024758186 1.9913306621 1.9779583789 
2.1243706857 2.1243706857 2.1243706857 2.1243706857 2.2408671392 2.2510113037 2.2630782103 2.2776669786 2.295651703 
2.3494282469 2.3680303173 2.3899057108 2.4159740166 2.4475202889 2.486385773 2.448570738 2.4736848652 2.5028148801 
2.5369440334 2.5773755784 2.6258554882 2.6847397011 2.5377803997 2.5675431237 2.6015718084 2.6407557529 2.6862098746 
2.7393287203 2.8018393335 2.8758309421 2.718901062 2.8307207459 2.7598010554 2.95115522 2.8800620952 2.8058000847 
3.0774230472 3.00855263 2.9351694502 2.8576792927 3.0774230472 3.1415926536 3.0719036933 2.9967168029 2.91630358 
2.95115522 3.00855263 3.0719036933 3.1415926536 3.0653475414 2.9825888767 2.8307207459 2.8800620952 2.9351694502 
2.9967168029 3.0653475414 3.1415926536 3.0574329311 2.718901062 2.7598010554 2.8058000847 2.8576792927 2.91630358 
2.9825888767 3.0574329311 3.1415926536 2.718901062 2.7598010554 2.8307207459 2.8058000847 2.8800620952 2.95115522 
2.8576792927 2.9351694502 3.00855263 3.0774230472 2.91630358 2.9967168029 3.0719036933 3.1415926536 3.0774230472 
2.9825888767 3.0653475414 3.1415926536 3.0719036933 3.00855263 2.95115522 3.0574329311 3.1415926536 3.0653475414 