# vtk DataFile Version 5.1
vtk output
ASCII
DATASET POLYDATA
POINTS 1002 float
-114.587 -87.7956 95.4186 -123.196 -111.26 85.121 -116.139 -86.4845 91.1815 
-120.715 -105.698 79.1246 -125.874 -95.6483 89.6499 -125.152 -92.979 86.1355 
-116.383 -96.236 89.1798 -116.654 -96.6505 86.8646 -126.311 -113.027 78.4551 
-114.941 -84.1247 97.3432 -114.427 -116.299 78.6973 -102.551 -83.2298 96.0233 
-115.662 -87.8553 94.2774 -116.874 -88.7712 93.1213 -118.137 -90.9153 92.1294 
-119.357 -93.7367 91.1988 -120.496 -96.2762 90.0438 -121.507 -98.562 88.6913 
-122.289 -101.442 87.4977 -122.79 -105.052 86.6172 -123.065 -108.578 85.8807 
-115.513 -87.7095 95.0022 -116.601 -87.8116 94.4504 -117.878 -88.3483 93.8114 
-119.312 -89.4091 93.1683 -120.791 -90.7517 92.5669 -122.172 -92.0182 91.9824 
-123.364 -93.0753 91.3825 -124.354 -93.992 90.778 -125.178 -94.8416 90.1961 
-114.348 -87.7909 95.0582 -114.139 -87.7631 94.6041 -114.043 -87.8645 94.061 
-114.127 -88.2919 93.4128 -114.328 -89.0742 92.6847 -114.547 -90.1318 91.9694 
-114.834 -91.479 91.3095 -115.277 -93.0821 90.6443 -115.83 -94.7269 89.9253 
-114.135 -87.9014 96.2577 -113.77 -88.0284 97.0482 -113.603 -88.1805 97.8133 
-113.704 -88.2414 98.5722 -114.022 -87.8824 99.1254 -114.392 -86.9896 99.1879 
-114.638 -85.9195 98.8025 -114.729 -85.0549 98.2855 -114.785 -84.4769 97.8131 
-113.386 -88.0034 96.2532 -112.015 -88.144 96.9201 -110.383 -88.1547 97.3367 
-108.5 -88.0838 97.5293 -106.549 -87.7181 97.5665 -104.77 -86.8119 97.4884 
-103.358 -85.6298 97.2943 -102.483 -84.6258 96.9643 -102.24 -83.877 96.5147 
-123.652 -110.272 85.4382 -124.107 -109.12 85.7988 -124.52 -107.92 86.2441 
-124.889 -106.594 86.7486 -125.237 -104.905 87.2382 -125.547 -102.878 87.6984 
-125.759 -100.878 88.1729 -125.857 -99.1054 88.6718 -125.883 -97.4142 89.1701 
-122.695 -110.643 85.3018 -122.184 -109.687 85.4957 -121.656 -108.394 85.7238 
-121.087 -106.805 86.0164 -120.48 -104.919 86.3874 -119.845 -102.78 86.8544 
-119.138 -100.631 87.437 -118.298 -98.7794 88.0871 -117.347 -97.34 88.6939 
-123.554 -112.643 84.4683 -123.897 -113.504 83.7208 -124.195 -113.971 82.9255 
-124.484 -114.303 82.1121 -124.829 -114.63 81.3105 -125.199 -114.862 80.5737 
-125.516 -114.877 79.9232 -125.79 -114.604 79.3366 -126.065 -113.986 78.8265 
-122.916 -112.925 84.3481 -122.502 -114.047 83.4 -121.907 -114.743 82.3858 
-121.111 -115.394 81.4329 -120.141 -116.008 80.5585 -119.006 -116.173 79.7674 
-117.703 -115.95 79.1902 -116.362 -115.926 78.9116 -115.225 -116.215 78.8081 
-117.089 -88.258 90.424 -118.135 -89.8675 89.4157 -119.19 -91.461 88.1437 
-120.115 -93.8525 86.791 -120.816 -97.3759 85.4884 -121.261 -100.87 84.1264 
-121.414 -103.024 82.6349 -121.287 -104.016 81.1962 -121.004 -104.779 80.0162 
-116.991 -87.0788 90.8832 -117.909 -87.4269 90.4729 -118.856 -87.4592 89.9448 
-119.817 -87.4395 89.3379 -120.814 -87.8336 88.6983 -121.833 -88.7962 88.0546 
-122.811 -89.9998 87.4445 -123.696 -91.0972 86.9141 -124.477 -92.0534 86.482 
-115.885 -86.9715 90.9867 -115.643 -87.6133 90.731 -115.438 -88.38 90.4004 
-115.3 -89.1597 89.9621 -115.269 -90.0168 89.431 -115.384 -91.211 88.9062 
-115.651 -92.7383 88.4506 -116.008 -94.2352 88.003 -116.36 -95.489 87.4771 
-115.738 -85.155 91.7286 -115.326 -84.0771 92.3995 -114.877 -83.5115 93.2554 
-114.381 -83.475 94.1898 -113.953 -83.7097 94.9933 -113.769 -83.9156 95.6198 
-113.859 -83.992 96.1946 -114.113 -84.0057 96.7405 -114.474 -84.0327 97.1417 
-115.025 -84.8795 91.779 -113.76 -83.2993 92.4678 -112.301 -82.2279 93.288 
-110.652 -81.9013 94.1678 -108.86 -81.9758 94.9352 -106.969 -81.9101 95.4597 
-105.124 -81.6785 95.7476 -103.644 -81.7174 95.888 -102.79 -82.283 95.9641 
-121.481 -105.365 79.5637 -122.233 -104.89 80.1542 -122.862 -104.156 80.9205 
-123.386 -103.164 81.7857 -123.887 -101.893 82.6201 -124.343 -100.239 83.3883 
-124.677 -98.2924 84.1358 -124.9 -96.3464 84.8626 -125.057 -94.5766 85.5312 
-120.155 -105.381 79.2479 -119.634 -105.025 79.449 -119.171 -104.769 79.7784 
-118.805 -104.7 80.2822 -118.592 -104.576 80.9801 -118.519 -103.9 81.9096 
-118.443 -102.42 83.115 -118.161 -100.395 84.5068 -117.553 -98.3381 85.833 
-120.974 -106.439 78.6018 -121.375 -107.069 78.1139 -121.898 -107.684 77.6892 
-122.521 -108.527 77.3466 -123.268 -109.537 77.0851 -124.121 -110.384 76.9384 
-124.935 -111.024 76.9906 -125.57 -111.677 77.29 -126.009 -112.396 77.8039 
-120.08 -106.584 78.4273 -119.387 -107.613 77.7726 -118.486 -108.535 77.2434 
-117.214 -109.106 76.9586 -115.823 -109.555 76.8928 -114.903 -110.57 76.9147 
-114.629 -112.407 77.0651 -114.598 -114.41 77.4861 -114.498 -115.771 78.1089 
-126.256 -94.8002 89.5955 -126.596 -93.62 89.4469 -126.812 -92.564 89.1067 
-126.84 -92.1313 88.5577 -126.707 -92.2564 87.9184 -126.505 -92.4195 87.3456 
-126.267 -92.4019 86.9058 -125.961 -92.4191 86.5777 -125.575 -92.6341 86.327 
-126.565 -97.8496 88.8023 -127.295 -100.402 87.9375 -127.921 -102.694 87.0563 
-128.212 -104.478 86.0194 -128.106 -106.337 84.6842 -127.84 -108.68 83.1431 
-127.621 -110.882 81.666 -127.358 -112.211 80.4121 -126.904 -112.763 79.36 
-125.423 -93.3969 90.4943 -124.855 -91.3604 91.4138 -124.044 -89.5949 92.3825 
-122.905 -88.0019 93.3843 -121.519 -86.5854 94.3349 -120.07 -85.5025 95.1199 
-118.667 -84.7975 95.7615 -117.328 -84.3699 96.3677 -116.071 -84.1583 96.9315 
-125.722 -94.9831 85.44 -126.244 -97.117 84.6894 -126.682 -99.2128 83.8788 
-126.991 -101.316 82.9814 -127.173 -103.552 81.9659 -127.301 -105.829 80.8922 
-127.367 -107.955 79.9324 -127.242 -109.885 79.2202 -126.86 -111.606 78.7522 
-124.743 -90.8072 86.9646 -124.149 -88.6281 87.9408 -123.379 -86.7388 89.0905 
-122.47 -85.3765 90.3694 -121.414 -84.5476 91.6765 -120.14 -84.0969 92.9574 
-118.669 -83.8774 94.2262 -117.197 -83.8173 95.4522 -115.934 -83.9041 96.5231 
-116.129 -96.4738 88.964 -115.883 -96.6476 88.7513 -115.66 -96.9527 88.5832 
-115.453 -97.5302 88.4006 -115.272 -98.0489 88.0775 -115.198 -97.9828 87.6307 
-115.334 -97.3816 87.252 -115.692 -96.8009 87.0562 -116.173 -96.5821 86.9669 
-117.486 -98.6579 88.058 -118.386 -102.253 86.7223 -118.779 -107.049 85.2769 
-118.501 -111.76 83.8477 -117.574 -114.697 82.5377 -116.208 -115.682 81.4495 
-114.852 -115.913 80.6311 -114.036 -116.159 79.9866 -113.966 -116.335 79.3617 
-115.063 -94.4236 90.0295 -113.753 -92.5245 90.8539 -112.475 -90.5007 91.8098 
-110.944 -88.8776 92.9924 -108.977 -88.1901 94.148 -106.929 -88.0439 94.8795 
-105.3 -87.4746 95.1675 -104.137 -86.1474 95.345 -103.234 -84.5401 95.6404 
-117.404 -99.2711 85.4606 -117.698 -103.138 83.6356 -117.353 -107.769 81.7557 
-116.422 -111.63 80.3933 -115.157 -113.464 79.7951 -113.915 -113.805 79.6412 
-113.095 -114.155 79.5043 -112.972 -115.04 79.2616 -113.509 -115.913 78.9761 
-115.265 -94.727 87.9486 -113.669 -93.1411 88.7562 -112.287 -91.3522 89.5912 
-111.168 -89.0332 90.7637 -109.88 -86.6421 92.1261 -108.193 -84.8945 93.2308 
-106.42 -83.9408 93.9582 -104.873 -83.4919 94.5759 -103.578 -83.2959 95.2801 
-125.515 -113.936 77.7804 -124.651 -114.617 77.185 -123.647 -114.744 76.8341 
-122.289 -114.549 76.7081 -120.622 -114.729 76.6247 -119.068 -115.395 76.6054 
-117.842 -115.977 76.8712 -116.721 -116.204 77.4342 -115.536 -116.27 78.0875 
-113.693 -84.3404 97.8485 -112.31 -84.4941 98.0763 -110.754 -84.2224 98.0818 
-108.97 -83.296 98.0567 -106.862 -82.2151 98.074 -104.542 -81.7856 98.0158 
-102.595 -82.0221 97.7754 -101.667 -82.3763 97.3328 -101.811 -82.705 96.7158 
-116.719 -88.167 93.795 -117.93 -88.9584 93.2581 -118.032 -89.8035 92.6718 
-119.272 -90.3295 92.7143 -119.289 -91.3291 92.2066 -119.309 -92.5022 91.7196 
-120.666 -91.9618 92.1833 -120.587 -93.0534 91.6967 -120.528 -94.115 91.2122 
-120.479 -95.2617 90.6974 -122.005 -93.3246 91.6288 -121.859 -94.4934 91.1128 
-121.742 -95.4503 90.5547 -121.626 -96.4643 90.019 -121.542 -97.5679 89.4006 
-123.206 -94.2914 91.0123 -123.045 -95.51 90.4715 -122.9 -96.5853 89.8334 
-122.747 -97.6442 89.2417 -122.585 -98.8574 88.6748 -122.439 -100.157 88.0693 
-124.244 -95.1952 90.358 -124.114 -96.4764 89.8236 -123.966 -97.8471 89.1906 
-123.785 -99.2607 88.5781 -123.568 -100.68 88.0314 -123.333 -102.118 87.5067 
-123.077 -103.588 87.0196 -125.129 -96.2682 89.7293 -125.052 -97.7151 89.2138 
-124.923 -99.3518 88.6542 -124.718 -101.184 88.1035 -124.451 -102.95 87.5863 
-124.155 -104.471 87.0797 -123.828 -105.866 86.6047 -123.458 -107.26 86.2088 
-115.122 -87.7249 95.8339 -114.878 -87.918 96.6439 -116.303 -87.6269 95.201 
-114.879 -88.2233 97.4663 -116.163 -87.7425 95.9625 -117.712 -87.8243 94.4164 
-115.125 -88.3236 98.2434 -116.225 -88.052 96.764 -117.649 -87.6403 95.0496 
-119.304 -88.4992 93.6017 -115.506 -87.8129 98.6584 -116.473 -88.1193 97.4484 
-117.706 -87.7642 95.734 -119.329 -87.9584 94.0661 -120.936 -89.6304 92.8563 
-115.841 -86.7375 98.4924 -116.838 -87.514 97.6709 -117.93 -87.7201 96.2791 
-119.416 -87.8249 94.6174 -121.066 -88.9055 93.2013 -122.422 -90.9497 92.2051 
-115.993 -85.5752 97.9706 -117.147 -86.3601 97.3728 -118.279 -87.0254 96.4143 
-119.641 -87.5302 95.0964 -121.214 -88.4638 93.6915 -122.633 -90.123 92.5308 
-123.654 -92.0911 91.6218 -116.013 -84.6921 97.425 -117.281 -85.1856 96.8624 
-118.554 -85.8544 96.1661 -119.917 -86.6392 95.271 -121.4 -87.7233 94.1551 
-122.806 -89.2279 93 -123.894 -90.9949 91.9767 -124.637 -92.8678 91.0631 
-117.161 -83.9172 95.9857 -118.518 -83.8851 94.8677 -118.523 -84.1102 95.3765 
-120.012 -84.1761 93.6358 -119.923 -84.2294 94.2723 -119.982 -84.5951 94.7862 
-121.413 -84.7403 92.3247 -121.361 -84.8426 93.0095 -121.388 -84.9408 93.6656 
-121.494 -85.5045 94.156 -122.599 -85.4421 90.9555 -122.667 -85.6692 91.5968 
-122.738 -85.7471 92.3064 -122.87 -85.9581 92.9788 -122.963 -86.7813 93.3808 
-123.598 -86.4427 89.59 -123.772 -86.5546 90.1482 -123.915 -86.6937 90.8054 
-124.078 -86.7007 91.5541 -124.218 -87.106 92.1914 -124.217 -88.2294 92.4688 
-124.445 -88.0808 88.328 -124.687 -87.9217 88.789 -124.874 -87.9853 89.3476 
-125.052 -87.8917 90.0428 -125.218 -87.8612 90.7804 -125.27 -88.5455 91.3118 
[...]
POINT_DATA 1002
FIELD FieldData 4
_paraPhi 1 1002 double
6.2831853072 3.1415926536 6.2831853072 3.1415926536 4.7123889804 4.7123889804 1.5707963268 1.5707963268 3.6951670125 
5.7296109483 2.5880182947 0.5535743589 6.2831853072 6.2831853072 6.2831853072 6.2831853072 3.1415926536 3.1415926536 
3.1415926536 3.1415926536 3.1415926536 6.1053039672 5.898798347 5.6768734901 5.4599499503 5.2659633393 5.1032165617 
4.9713148346 4.8656852733 4.7809517865 0.17788134 0.38438696014 0.60631181711 0.82323535693 1.0172219679 1.1799687454 
1.3118704726 1.4175000338 1.5022335207 6.1892828907 6.1070320098 6.035312792 5.9728339911 5.9183214791 5.8706119594 
5.8286879411 5.7916808611 5.7588591896 0.093902416448 0.17615329733 0.2478725152 0.31035131605 0.36486382811 0.41257334776 
0.45449736604 0.4915044461 0.52432611754 3.3194739936 3.5259796137 3.7479044707 3.9648280105 4.1588146215 4.321561399 
4.4534631262 4.5590926874 4.6438261743 2.9637113136 2.7572056934 2.5352808365 2.3183572967 2.1243706857 1.9616239082 
1.829722181 1.7240926197 1.6393591329 3.23549507 3.3177459509 3.3894651688 3.4519439696 3.5064564817 3.5541660013 
3.5960900196 3.6330970997 3.6659187711 3.0476902371 2.9654393563 2.8937201384 2.8312413375 2.7767288255 2.7290193058 
2.6870952876 2.6500882075 2.617266536 6.2831853072 6.2831853072 6.2831853072 6.2831853072 3.1415926536 3.1415926536 
3.1415926536 3.1415926536 3.1415926536 6.1053039672 5.898798347 5.6768734901 5.4599499503 5.2659633393 5.1032165617 
4.9713148346 4.8656852733 4.7809517865 0.17788134 0.38438696014 0.60631181711 0.82323535693 1.0172219679 1.1799687454 
1.3118704726 1.4175000338 1.5022335207 6.1892828907 6.1070320098 6.035312792 5.9728339911 5.9183214791 5.8706119594 
5.8286879411 5.7916808611 5.7588591896 0.093902416448 0.17615329733 0.2478725152 0.31035131605 0.36486382811 0.41257334776 
0.45449736604 0.4915044461 0.52432611754 3.3194739936 3.5259796137 3.7479044707 3.9648280105 4.1588146215 4.321561399 
4.4534631262 4.5590926874 4.6438261743 2.9637113136 2.7572056934 2.5352808365 2.3183572967 2.1243706857 1.9616239082 
1.829722181 1.7240926197 1.6393591329 3.23549507 3.3177459509 3.3894651688 3.4519439696 3.5064564817 3.5541660013 
3.5960900196 3.6330970997 3.6659187711 3.0476902371 2.9654393563 2.8937201384 2.8312413375 2.7767288255 2.7290193058 
2.6870952876 2.6500882075 2.617266536 4.7123889804 4.7123889804 4.7123889804 4.7123889804 4.7123889804 4.7123889804 
4.7123889804 4.7123889804 4.7123889804 4.6087898617 4.4991390697 4.3857031936 4.2712800401 4.1588146215 4.0509635631 
3.94975894 3.8564636551 3.7716124825 4.8159880991 4.9256388911 5.0390747672 5.1534979207 5.2659633393 5.3738143976 
5.4750190208 5.5683143056 5.6531654782 4.6087898617 4.4991390697 4.3857031936 4.2712800401 4.1588146215 4.0509635631 
3.94975894 3.8564636551 3.7716124825 4.8159880991 4.9256388911 5.0390747672 5.1534979207 5.2659633393 5.3738143976 
5.4750190208 5.5683143056 5.6531654782 1.5707963268 1.5707963268 1.5707963268 1.5707963268 1.5707963268 1.5707963268 
1.5707963268 1.5707963268 1.5707963268 1.6743954455 1.7840462375 1.8974821136 2.0119052671 2.1243706857 2.232221744 
2.3334263672 2.426721652 2.5115728246 1.4671972081 1.3575464161 1.24411054 1.1296873865 1.0172219679 0.90937090954 
0.80816628637 0.71487100155 0.63001982895 1.6743954455 1.7840462375 1.8974821136 2.0119052671 2.1243706857 2.232221744 
2.3334263672 2.426721652 2.5115728246 1.4671972081 1.3575464161 1.24411054 1.1296873865 1.0172219679 0.90937090954 
0.80816628637 0.71487100155 0.63001982895 3.6007720849 3.4966939854 3.3839471039 3.2645756454 3.1415926536 3.0186096618 
2.8992382033 2.7864913217 2.6824132222 5.8240058758 5.9280839753 6.0408308569 6.1602023154 6.2831853072 0.12298299178 
0.2423544503 0.35510133185 0.45917943135 6.0560271438 5.7885595667 5.9702140275 5.5125918794 5.6029703303 5.7885595667 
5.2659633393 5.2659633393 5.2659633393 5.2659633393 5.0674903122 5.0120975802 4.9155579264 4.7123889804 4.1588146215 
4.9155579264 4.8353719722 4.7123889804 4.5092200343 4.1588146215 3.6362183941 4.8004512023 4.7123889804 4.5894059886 
4.4126803806 4.1588146215 3.8218076305 3.4545639333 4.7123889804 4.6243267584 4.5092200343 4.3572876485 4.1588146215 
3.9121860814 3.6362183941 3.368750817 6.0174235957 5.9434319871 5.8263323547 5.8809213739 5.7674481418 5.6279784266 
5.8278025282 5.718968232 5.5891129425 5.4372443565 5.7823484065 5.678536687 5.5575666702 5.4192596322 5.2659633393 
5.743164462 5.6444075337 5.5314983644 5.4046708639 5.2659633393 5.1195510325 5.7091357773 5.6152775188 5.5096229709 
5.3926039573 5.2659633393 5.1329233157 4.9978930058 5.6793730533 5.5901633916 5.4910209005 5.3824597928 5.2659633393 
5.1440684722 5.0201624502 4.8979782167 5.5683143056 5.4750190208 5.4750190208 5.3738143976 5.3738143976 5.3738143976 
5.2659633393 5.2659633393 5.2659633393 5.2659633393 5.1534979207 5.1534979207 5.1534979207 5.1534979207 5.1534979207 
5.0390747672 5.0390747672 5.0390747672 5.0390747672 5.0390747672 5.0390747672 4.9256388911 4.9256388911 4.9256388911 
4.9256388911 4.9256388911 4.9256388911 4.9256388911 4.8159880991 4.8159880991 4.8159880991 4.8159880991 4.8159880991 
4.8159880991 4.8159880991 4.8159880991 4.6087898617 4.6087898617 4.4991390697 4.6087898617 4.4991390697 4.3857031936 
4.6087898617 4.4991390697 4.3857031936 4.2712800401 4.6087898617 4.4991390697 4.3857031936 4.2712800401 4.1588146215 
4.6087898617 4.4991390697 4.3857031936 4.2712800401 4.1588146215 4.0509635631 4.6087898617 4.4991390697 4.3857031936 
4.2712800401 4.1588146215 4.0509635631 3.94975894 4.6087898617 4.4991390697 4.3857031936 4.2712800401 4.1588146215 
4.0509635631 3.94975894 3.8564636551 4.526799744 4.4046155105 4.426884955 4.2807094886 4.2918546451 4.3052269283 
4.1588146215 4.1588146215 4.1588146215 4.1588146215 4.042318168 4.0321740035 4.0201070968 4.0055183285 3.9875336042 
3.9337570603 3.9151549899 3.8932795963 3.8672112905 3.8356650183 3.7967995342 3.8346145692 3.809500442 3.7803704271 
3.7462412737 3.7058097288 3.657329819 3.5984456061 3.7454049075 3.7156421835 3.6816134988 3.6424295543 3.5969754326 
3.5438565869 3.4813459737 3.4073543651 3.5642842451 3.4524645613 3.5233842518 3.3320300872 3.403123212 3.4773852225 
3.20576226 3.2746326772 3.348015857 3.4255060145 3.0774230472 3.1415926536 3.2112816139 3.2864685043 3.3668817272 
2.95115522 3.00855263 3.0719036933 3.1415926536 3.2178377658 3.3005964304 2.8307207459 2.8800620952 2.9351694502 
2.9967168029 3.0653475414 3.1415926536 3.225752376 2.718901062 2.7598010554 2.8058000847 2.8576792927 2.91630358 
2.9825888767 3.0574329311 3.1415926536 3.5642842451 3.5233842518 3.4524645613 3.4773852225 3.403123212 3.3320300872 
3.4255060145 3.348015857 3.2746326772 3.20576226 3.3668817272 3.2864685043 3.2112816139 3.1415926536 3.0774230472 
3.3005964304 3.2178377658 3.1415926536 3.0719036933 3.00855263 2.95115522 3.225752376 3.1415926536 3.0653475414 
2.9967168029 2.9351694502 2.8800620952 2.8307207459 3.1415926536 3.0574329311 2.9825888767 2.91630358 2.8576792927 
2.8058000847 2.7598010554 2.718901062 4.526799744 4.426884955 4.4046155105 4.3052269283 4.2918546451 4.2807094886 
4.1588146215 4.1588146215 4.1588146215 4.1588146215 3.9875336042 4.0055183285 4.0201070968 4.0321740035 4.042318168 
3.7967995342 3.8356650183 3.8672112905 3.8932795963 3.9151549899 3.9337570603 3.5984456061 3.657329819 3.7058097288 
3.7462412737 3.7803704271 3.809500442 3.8346145692 3.4073543651 3.4813459737 3.5438565869 3.5969754326 3.6424295543 
3.6816134988 3.7156421835 3.7454049075 4.7123889804 4.8004512023 4.6243267584 4.9155579264 4.7123889804 4.5092200343 
5.0674903122 4.8353719722 4.5894059886 4.3572876485 5.2659633393 5.0120975802 4.7123889804 4.4126803806 4.1588146215 
5.5125918794 5.2659633393 4.9155579264 4.5092200343 4.1588146215 3.9121860814 5.7885595667 5.6029703303 5.2659633393 
4.7123889804 4.1588146215 3.8218076305 3.6362183941 6.0560271438 5.9702140275 5.7885595667 5.2659633393 4.1588146215 
3.6362183941 3.4545639333 3.368750817 0.22715816343 0.49462574053 0.3129712797 0.77059342779 0.68021497688 0.49462574053 
1.0172219679 1.0172219679 1.0172219679 1.0172219679 1.2156949949 1.271087727 1.3676273807 1.5707963268 2.1243706857 
1.3676273807 1.447813335 1.5707963268 1.7739652728 2.1243706857 2.6469669131 1.4827341049 1.5707963268 1.6937793186 
1.8705049266 2.1243706857 2.4613776767 2.8286213739 1.5707963268 1.6588585487 1.7739652728 1.9258976586 2.1243706857 
2.3709992258 2.6469669131 2.9144344902 1.7563855631 1.8785697967 1.8563003522 2.0024758186 1.9913306621 1.9779583789 
2.1243706857 2.1243706857 2.1243706857 2.1243706857 2.2408671392 2.2510113037 2.2630782103 2.2776669786 2.295651703 
2.3494282469 2.3680303173 2.3899057108 2.4159740166 2.4475202889 2.486385773 2.448570738 2.4736848652 2.5028148801 
2.5369440334 2.5773755784 2.6258554882 2.6847397011 2.5377803997 2.5675431237 2.6015718084 2.6407557529 2.6862098746 
2.7393287203 2.8018393335 2.8758309421 1.6743954455 1.6743954455 1.7840462375 1.6743954455 1.7840462375 1.8974821136 
1.6743954455 1.7840462375 1.8974821136 2.0119052671 1.6743954455 1.7840462375 1.8974821136 2.0119052671 2.1243706857 
1.6743954455 1.7840462375 1.8974821136 2.0119052671 2.1243706857 2.232221744 1.6743954455 1.7840462375 1.8974821136 
2.0119052671 2.1243706857 2.232221744 2.3334263672 1.6743954455 1.7840462375 1.8974821136 2.0119052671 2.1243706857 
2.232221744 2.3334263672 2.426721652 1.4671972081 1.3575464161 1.4671972081 1.24411054 1.3575464161 1.4671972081 
1.1296873865 1.24411054 1.3575464161 1.4671972081 1.0172219679 1.1296873865 1.24411054 1.3575464161 1.4671972081 
0.90937090954 1.0172219679 1.1296873865 1.24411054 1.3575464161 1.4671972081 0.80816628637 0.90937090954 1.0172219679 
1.1296873865 1.24411054 1.3575464161 1.4671972081 0.71487100155 0.80816628637 0.90937090954 1.0172219679 1.1296873865 
1.24411054 1.3575464161 1.4671972081 0.60381225391 0.57404952988 0.69302191562 0.54002084522 0.66790778838 0.79216440667 
0.50083690068 0.63877777351 0.77356233629 0.90072551443 0.45538277901 0.60464862014 0.75168694275 0.89058134991 1.0172219679 
0.40226393329 0.56421707518 0.72561863695 0.87851444325 1.0172219679 1.139116835 0.33975332011 0.51573716537 0.69407236469 
0.86392567495 1.0172219679 1.1502619915 1.2630228569 0.26576171152 0.45685295248 0.6552068806 0.84594095064 1.0172219679 
1.1636342747 1.2852923014 1.3852070904 0.22715816343 0.3129712797 0.49462574053 0.49462574053 0.68021497688 0.77059342779 
1.0172219679 1.0172219679 1.0172219679 1.0172219679 2.1243706857 1.5707963268 1.3676273807 1.271087727 1.2156949949 
2.6469669131 2.1243706857 1.7739652728 1.5707963268 1.447813335 1.3676273807 2.8286213739 2.4613776767 2.1243706857 
1.8705049266 1.6937793186 1.5707963268 1.4827341049 2.9144344902 2.6469669131 2.3709992258 2.1243706857 1.9258976586 
1.7739652728 1.6588585487 1.5707963268 1.7563855631 1.8563003522 1.8785697967 1.9779583789 1.9913306621 2.0024758186 
2.1243706857 2.1243706857 2.1243706857 2.1243706857 2.295651703 2.2776669786 2.2630782103 2.2510113037 2.2408671392 
2.486385773 2.4475202889 2.4159740166 2.3899057108 2.3680303173 2.3494282469 2.6847397011 2.6258554882 2.5773755784 
2.5369440334 2.5028148801 2.4736848652 2.448570738 2.8758309421 2.8018393335 2.7393287203 2.6862098746 2.6407557529 
2.6015718084 2.5675431237 2.5377803997 5.8604937156 5.901393709 5.9723133995 5.9473927383 6.0216547488 6.0927478736 
5.9992719463 6.0767621038 6.1501452836 6.2190157008 6.0578962336 6.1383094565 6.2134963469 0 0.064169606361 
6.1241815303 6.206940195 6.2831853072 0.069688960264 0.13304002361 0.19043743361 6.1990255847 0 0.07624511221 
0.14487585072 0.20642320337 0.26153055843 0.3108719077 0 0.084159722458 0.15900377685 0.22528907359 0.28391336087 
0.3357925689 0.38179159818 0.42269159155 5.8604937156 5.9723133995 5.901393709 6.0927478736 6.0216547488 5.9473927383 
6.2190157008 6.1501452836 6.0767621038 5.9992719463 0.064169606361 0 6.2134963469 6.1383094565 6.0578962336 
0.19043743361 0.13304002361 0.069688960264 6.2831853072 6.206940195 6.1241815303 0.3108719077 0.26153055843 0.20642320337 
0.14487585072 0.07624511221 6.2831853072 6.1990255847 0.42269159155 0.38179159818 0.3357925689 0.28391336087 0.22528907359 
0.15900377685 0.084159722458 0 5.6793730533 5.7091357773 5.5901633916 5.743164462 5.6152775188 5.4910209005 
5.7823484065 5.6444075337 5.5096229709 5.3824597928 5.8278025282 5.678536687 5.5314983644 5.3926039573 5.2659633393 
5.8809213739 5.718968232 5.5575666702 5.4046708639 5.2659633393 5.1440684722 5.9434319871 5.7674481418 5.5891129425 
5.4192596322 5.2659633393 5.1329233157 5.0201624502 6.0174235957 5.8263323547 5.6279784266 5.4372443565 5.2659633393 
5.1195510325 4.9978930058 4.8979782167 1.3852070904 1.2852923014 1.2630228569 1.1636342747 1.1502619915 1.139116835 
1.0172219679 1.0172219679 1.0172219679 1.0172219679 0.84594095064 0.86392567495 0.87851444325 0.89058134991 0.90072551443 
0.6552068806 0.69407236469 0.72561863695 0.75168694275 0.77356233629 0.79216440667 0.45685295248 0.51573716537 0.56421707518 
0.60464862014 0.63877777351 0.66790778838 0.69302191562 0.26576171152 0.33975332011 0.40226393329 0.45538277901 0.50083690068 
0.54002084522 0.57404952988 0.60381225391 
_paraPhiHalf 1 1002 double
0 3.1415926536 0 3.1415926536 1.5707963268 1.5707963268 1.5707963268 1.5707963268 2.5880182947 
0.5535743589 2.5880182947 0.5535743589 0 0 0 0 3.1415926536 3.1415926536 
3.1415926536 3.1415926536 3.1415926536 0.17788134 0.38438696014 0.60631181711 0.82323535693 1.0172219679 1.1799687454 
1.3118704726 1.4175000338 1.5022335207 0.17788134 0.38438696014 0.60631181711 0.82323535693 1.0172219679 1.1799687454 
1.3118704726 1.4175000338 1.5022335207 0.093902416448 0.17615329733 0.2478725152 0.31035131605 0.36486382811 0.41257334776 
0.45449736604 0.4915044461 0.52432611754 0.093902416448 0.17615329733 0.2478725152 0.31035131605 0.36486382811 0.41257334776 
0.45449736604 0.4915044461 0.52432611754 2.9637113136 2.7572056934 2.5352808365 2.3183572967 2.1243706857 1.9616239082 
1.829722181 1.7240926197 1.6393591329 2.9637113136 2.7572056934 2.5352808365 2.3183572967 2.1243706857 1.9616239082 
1.829722181 1.7240926197 1.6393591329 3.0476902371 2.9654393563 2.8937201384 2.8312413375 2.7767288255 2.7290193058 
2.6870952876 2.6500882075 2.617266536 3.0476902371 2.9654393563 2.8937201384 2.8312413375 2.7767288255 2.7290193058 
2.6870952876 2.6500882075 2.617266536 0 0 0 0 3.1415926536 3.1415926536 
3.1415926536 3.1415926536 3.1415926536 0.17788134 0.38438696014 0.60631181711 0.82323535693 1.0172219679 1.1799687454 
1.3118704726 1.4175000338 1.5022335207 0.17788134 0.38438696014 0.60631181711 0.82323535693 1.0172219679 1.1799687454 
1.3118704726 1.4175000338 1.5022335207 0.093902416448 0.17615329733 0.2478725152 0.31035131605 0.36486382811 0.41257334776 
0.45449736604 0.4915044461 0.52432611754 0.093902416448 0.17615329733 0.2478725152 0.31035131605 0.36486382811 0.41257334776 
0.45449736604 0.4915044461 0.52432611754 2.9637113136 2.7572056934 2.5352808365 2.3183572967 2.1243706857 1.9616239082 
1.829722181 1.7240926197 1.6393591329 2.9637113136 2.7572056934 2.5352808365 2.3183572967 2.1243706857 1.9616239082 
1.829722181 1.7240926197 1.6393591329 3.0476902371 2.9654393563 2.8937201384 2.8312413375 2.7767288255 2.7290193058 
2.6870952876 2.6500882075 2.617266536 3.0476902371 2.9654393563 2.8937201384 2.8312413375 2.7767288255 2.7290193058 
2.6870952876 2.6500882075 2.617266536 1.5707963268 1.5707963268 1.5707963268 1.5707963268 1.5707963268 1.5707963268 
1.5707963268 1.5707963268 1.5707963268 1.6743954455 1.7840462375 1.8974821136 2.0119052671 2.1243706857 2.232221744 
2.3334263672 2.426721652 2.5115728246 1.4671972081 1.3575464161 1.24411054 1.1296873865 1.0172219679 0.90937090954 
0.80816628637 0.71487100155 0.63001982895 1.6743954455 1.7840462375 1.8974821136 2.0119052671 2.1243706857 2.232221744 
2.3334263672 2.426721652 2.5115728246 1.4671972081 1.3575464161 1.24411054 1.1296873865 1.0172219679 0.90937090954 
0.80816628637 0.71487100155 0.63001982895 1.5707963268 1.5707963268 1.5707963268 1.5707963268 1.5707963268 1.5707963268 
1.5707963268 1.5707963268 1.5707963268 1.6743954455 1.7840462375 1.8974821136 2.0119052671 2.1243706857 2.232221744 
2.3334263672 2.426721652 2.5115728246 1.4671972081 1.3575464161 1.24411054 1.1296873865 1.0172219679 0.90937090954 
0.80816628637 0.71487100155 0.63001982895 1.6743954455 1.7840462375 1.8974821136 2.0119052671 2.1243706857 2.232221744 
2.3334263672 2.426721652 2.5115728246 1.4671972081 1.3575464161 1.24411054 1.1296873865 1.0172219679 0.90937090954 
0.80816628637 0.71487100155 0.63001982895 2.6824132222 2.7864913217 2.8992382033 3.0186096618 3.1415926536 3.0186096618 
2.8992382033 2.7864913217 2.6824132222 0.45917943135 0.35510133185 0.2423544503 0.12298299178 0 0.12298299178 
0.2423544503 0.35510133185 0.45917943135 0.22715816343 0.49462574053 0.3129712797 0.77059342779 0.68021497688 0.49462574053 
1.0172219679 1.0172219679 1.0172219679 1.0172219679 1.2156949949 1.271087727 1.3676273807 1.5707963268 2.1243706857 
1.3676273807 1.447813335 1.5707963268 1.7739652728 2.1243706857 2.6469669131 1.4827341049 1.5707963268 1.6937793186 
1.8705049266 2.1243706857 2.4613776767 2.8286213739 1.5707963268 1.6588585487 1.7739652728 1.9258976586 2.1243706857 
2.3709992258 2.6469669131 2.9144344902 0.26576171152 0.33975332011 0.45685295248 0.40226393329 0.51573716537 0.6552068806 
0.45538277901 0.56421707518 0.69407236469 0.84594095064 0.50083690068 0.60464862014 0.72561863695 0.86392567495 1.0172219679 
0.54002084522 0.63877777351 0.75168694275 0.87851444325 1.0172219679 1.1636342747 0.57404952988 0.66790778838 0.77356233629 
0.89058134991 1.0172219679 1.1502619915 1.2852923014 0.60381225391 0.69302191562 0.79216440667 0.90072551443 1.0172219679 
1.139116835 1.2630228569 1.3852070904 0.71487100155 0.80816628637 0.80816628637 0.90937090954 0.90937090954 0.90937090954 
1.0172219679 1.0172219679 1.0172219679 1.0172219679 1.1296873865 1.1296873865 1.1296873865 1.1296873865 1.1296873865 
1.24411054 1.24411054 1.24411054 1.24411054 1.24411054 1.24411054 1.3575464161 1.3575464161 1.3575464161 
1.3575464161 1.3575464161 1.3575464161 1.3575464161 1.4671972081 1.4671972081 1.4671972081 1.4671972081 1.4671972081 
1.4671972081 1.4671972081 1.4671972081 1.6743954455 1.6743954455 1.7840462375 1.6743954455 1.7840462375 1.8974821136 
1.6743954455 1.7840462375 1.8974821136 2.0119052671 1.6743954455 1.7840462375 1.8974821136 2.0119052671 2.1243706857 
1.6743954455 1.7840462375 1.8974821136 2.0119052671 2.1243706857 2.232221744 1.6743954455 1.7840462375 1.8974821136 
2.0119052671 2.1243706857 2.232221744 2.3334263672 1.6743954455 1.7840462375 1.8974821136 2.0119052671 2.1243706857 
2.232221744 2.3334263672 2.426721652 1.7563855631 1.8785697967 1.8563003522 2.0024758186 1.9913306621 1.9779583789 
2.1243706857 2.1243706857 2.1243706857 2.1243706857 2.2408671392 2.2510113037 2.2630782103 2.2776669786 2.295651703 
2.3494282469 2.3680303173 2.3899057108 2.4159740166 2.4475202889 2.486385773 2.448570738 2.4736848652 2.5028148801 
2.5369440334 2.5773755784 2.6258554882 2.6847397011 2.5377803997 2.5675431237 2.6015718084 2.6407557529 2.6862098746 
2.7393287203 2.8018393335 2.8758309421 2.718901062 2.8307207459 2.7598010554 2.95115522 2.8800620952 2.8058000847 
3.0774230472 3.00855263 2.9351694502 2.8576792927 3.0774230472 3.1415926536 3.0719036933 2.9967168029 2.91630358 
2.95115522 3.00855263 3.0719036933 3.1415926536 3.0653475414 2.9825888767 2.8307207459 2.8800620952 2.9351694502 
2.9967168029 3.0653475414 3.1415926536 3.0574329311 2.718901062 2.7598010554 2.8058000847 2.8576792927 2.91630358 
2.9825888767 3.0574329311 3.1415926536 2.718901062 2.7598010554 2.8307207459 2.8058000847 2.8800620952 2.95115522 
2.8576792927 2.9351694502 3.00855263 3.0774230472 2.91630358 2.9967168029 3.0719036933 3.1415926536 3.0774230472 
2.9825888767 3.0653475414 3.1415926536 3.0719036933 3.00855263 2.95115522 3.0574329311 3.1415926536 3.0653475414 