# vtk DataFile Version 5.1
vtk output
ASCII
DATASET POLYDATA
POINTS 1002 float
-12.3521 -0.634246 -4.02126 13.1008 1.61767 -3.50335 -13.3976 0.370489 3.9907 
14.0488 0.268414 1.35106 -0.851349 7.13932 -1.705 -0.458215 7.71916 2.40316 
-1.49913 -1.50523 -2.51534 -0.906176 -0.435943 0.81808 21.5435 2.16386 -0.548654 
-20.1958 2.48999 -0.0902912 23.406 -9.50394 -0.41222 -21.2372 -8.78936 1.20026 
-10.9541 -0.119279 -3.77025 -9.23857 0.443828 -3.66301 -7.06617 1.09041 -3.78037 
-4.56062 1.75013 -3.77722 -1.86224 2.28392 -3.39097 1.17798 2.6421 -3.01179 
4.60725 2.80937 -3.09521 7.99717 2.6887 -3.44392 10.8634 2.24426 -3.61589 
-11.8151 0.204068 -3.97486 -10.9968 1.12574 -4.00992 -9.82068 2.09956 -4.19671 
-8.41313 3.11332 -4.44126 -7.05569 4.15611 -4.43827 -5.8985 5.11073 -3.96365 
-4.82096 5.81934 -3.18095 -3.62841 6.30075 -2.45832 -2.27119 6.71359 -1.98407 
-11.9235 -1.11043 -3.9311 -11.3654 -1.5618 -3.87071 -10.6485 -1.96745 -3.85626 
-9.76094 -2.33078 -3.79751 -8.76455 -2.6314 -3.57654 -7.73887 -2.76867 -3.21678 
-6.61844 -2.64091 -2.8707 -5.21434 -2.28117 -2.64929 -3.45583 -1.84826 -2.55131 
-13.4642 -0.645142 -4.15214 -14.7153 -0.638017 -4.05177 -16.0086 -0.554173 -3.73306 
-17.1448 -0.250328 -3.46793 -17.9664 0.376352 -3.42777 -18.509 1.17269 -3.35723 
-18.9548 1.81043 -2.91783 -19.4293 2.14787 -2.10456 -19.8889 2.31919 -1.11014 
-13.5176 -1.5081 -4.1347 -14.9339 -2.50438 -3.94689 -16.543 -3.50394 -3.34733 
-18.0211 -4.3731 -2.57358 -19.1607 -5.17722 -1.99711 -20.0841 -6.12115 -1.68429 
-20.8683 -7.19348 -1.34655 -21.363 -8.11368 -0.705423 -21.4651 -8.64946 0.225492 
12.0917 2.30815 -3.52056 10.8054 3.06124 -3.4876 9.36515 3.85479 -3.44325 
7.82777 4.61143 -3.25705 6.13178 5.20342 -2.79263 4.33416 5.60307 -2.22254 
2.68826 5.9468 -1.86058 1.33861 6.34667 -1.75772 0.196278 6.76958 -1.74537 
12.5997 1.35219 -3.50762 11.8138 1.06634 -3.38217 10.7852 0.808815 -3.19657 
9.55391 0.629075 -3.08127 8.0747 0.472044 -3.05113 6.3469 0.242133 -3.01757 
4.47771 -0.0550815 -2.95986 2.52538 -0.39567 -2.89561 0.498684 -0.85463 -2.76952 
14.5393 1.3714 -3.29377 16.0445 1.21203 -3.08158 17.6365 1.22678 -2.97563 
19.0721 1.33987 -2.95661 20.0963 1.4346 -2.87212 20.8387 1.56873 -2.57728 
21.5391 1.82838 -2.07618 22.0562 2.09648 -1.51393 22.0745 2.20751 -1.00895 
14.7929 0.763904 -3.23503 16.3465 -0.142202 -2.76742 17.8463 -1.09431 -2.15679 
19.5324 -2.19402 -1.63368 21.3922 -3.60634 -1.47667 22.8854 -5.39617 -1.62161 
23.5484 -7.29928 -1.67036 23.5934 -8.78345 -1.39951 23.4949 -9.49241 -0.924653 
-11.8974 0.86505 4.27933 -9.96302 1.34861 4.4809 -7.37399 1.87776 4.30144 
-4.07968 2.50809 3.5813 -0.438952 3.02125 2.6901 2.99933 3.02175 2.21374 
6.05869 2.46666 2.14081 8.93378 1.70604 1.98006 11.6711 0.982592 1.60191 
-12.7978 1.16552 4.1184 -12.0999 2.00767 4.2832 -11.2436 2.88801 4.56528 
-10.2133 3.76508 4.95009 -9.03302 4.57284 5.14988 -7.61145 5.27891 4.78548 
-5.83425 5.91882 3.89342 -3.85649 6.54322 2.9839 -2.00787 7.1557 2.48797 
-13.0868 -0.107036 4.03007 -12.6417 -0.583917 4.03322 -11.9555 -0.975738 3.97236 
-10.952 -1.17692 3.81974 -9.63751 -1.17919 3.46957 -8.06812 -1.06677 2.84856 
-6.31882 -0.895273 2.12673 -4.48856 -0.69129 1.5526 -2.66717 -0.516133 1.15543 
-14.4292 0.371432 3.82103 -15.5981 0.393962 3.75878 -16.8989 0.431128 3.78401 
-18.0793 0.557619 3.69629 -18.9241 0.874059 3.33098 -19.6096 1.29616 2.80475 
-20.335 1.62243 2.2834 -20.8471 1.84467 1.67547 -20.7915 2.11682 0.849167 
-14.6007 -0.483468 3.7257 -15.7509 -1.4333 3.38144 -16.7109 -2.4302 2.91034 
-17.5323 -3.50131 2.38396 -18.4147 -4.62777 2.01345 -19.3752 -5.6575 1.96472 
-20.2152 -6.52704 2.12489 -20.8065 -7.35174 2.14922 -21.1463 -8.1592 1.81045 
13.0556 1.10048 1.39936 11.7303 1.99493 1.5937 10.0428 2.89524 1.95652 
8.08545 3.79191 2.52787 6.13334 4.72763 3.18269 4.47922 5.68038 3.54872 
3.16617 6.50943 3.38576 2.00001 7.10002 2.91131 0.801485 7.47449 2.52494 
13.4543 -0.0335637 1.45984 12.5992 -0.256648 1.6324 11.5446 -0.375982 1.72875 
10.3374 -0.379265 1.60053 8.90764 -0.269552 1.32531 7.1612 -0.125533 1.14112 
5.16016 -0.0589701 1.1037 3.08438 -0.0903139 1.05979 1.05466 -0.198765 0.934199 
15.5435 -0.0393341 1.44268 16.7366 -0.472243 1.99078 17.7144 -0.877534 2.8637 
18.714 -0.940392 3.5333 19.6514 -0.581757 3.54113 20.2282 -0.0876481 2.91191 
20.5512 0.34631 1.96521 20.9558 0.833164 0.981656 21.3942 1.47208 0.124467 
15.8319 -0.781531 1.53746 17.4313 -2.03357 2.17559 18.7539 -3.45711 3.03998 
19.8715 -5.01994 3.58084 21.0541 -6.6339 3.37347 22.404 -8.11555 2.5589 
23.5413 -9.2584 1.59612 24.0197 -9.90302 0.756483 23.8595 -9.96848 0.0841905 
-0.6146 7.59945 -1.46514 -0.377217 8.0077 -1.09651 -0.0520536 8.39445 -0.698466 
0.409909 8.86994 -0.359771 0.798705 9.37656 0.0767752 0.788539 9.60769 0.815585 
0.386793 9.36916 1.67051 -0.0675801 8.8168 2.23917 -0.339431 8.22174 2.41404 
1.32632 7.37862 -1.58177 3.67649 7.56636 -1.53526 6.09762 7.528 -1.57238 
8.67435 7.1518 -1.76482 11.4171 6.46966 -1.97039 14.0905 5.62158 -1.88417 
16.513 4.76538 -1.52971 18.6528 3.95384 -1.19617 20.385 3.10902 -0.930554 
-2.76025 7.22119 -1.86675 -4.59999 7.34183 -2.26726 -6.3447 7.40415 -2.78983 
-8.35077 7.16104 -2.94454 -10.938 6.48418 -2.37757 -13.7373 5.6016 -1.49321 
-16.0523 4.80648 -0.946586 -17.7216 4.09537 -0.75608 -19.0437 3.32641 -0.521553 
1.67935 8.00706 2.58484 3.7966 7.94986 2.71347 6.23817 7.57536 2.26897 
9.16817 7.10649 1.32807 12.1059 6.53078 0.618035 14.4688 5.58552 0.485247 
16.3598 4.3639 0.472287 18.2048 3.3286 0.17479 20.0305 2.66962 -0.26297 
-2.88 7.51434 2.59853 -5.67703 7.27789 3.16127 -8.32957 7.18076 3.58087 
-10.5025 7.09377 3.31945 -12.5232 6.64969 2.60289 -14.8158 5.77831 2.0923 
-17.0877 4.80786 1.83445 -18.7361 3.96754 1.39296 -19.6586 3.21682 0.666762 
-1.5028 -1.83119 -2.22708 -1.59729 -2.14886 -1.77311 -1.78319 -2.30005 -1.21969 
-1.96275 -2.17156 -0.756485 -1.96778 -1.8228 -0.525712 -1.73498 -1.4168 -0.437276 
-1.40763 -1.06878 -0.264334 -1.16296 -0.810696 0.0850606 -1.02297 -0.617538 0.496795 
1.94041 -1.00648 -2.65629 5.55089 -1.11152 -2.61575 8.71128 -1.84709 -2.34594 
11.2191 -2.93162 -1.93897 13.4884 -3.98627 -1.40788 15.9597 -4.83956 -0.776726 
18.5111 -5.65169 -0.325822 20.6987 -6.71182 -0.272951 22.3002 -8.081 -0.417285 
-4.59647 -2.68854 -2.17963 -7.20673 -4.28929 -1.94447 -8.98491 -5.83542 -1.95252 
-10.3327 -6.85814 -1.97672 -12.1444 -7.46379 -1.59745 -14.7264 -8.15856 -0.785137 
-17.4125 -9.00221 0.0588341 -19.4363 -9.5191 0.643596 -20.6294 -9.40152 0.988639 
2.1247 -0.474742 0.623469 5.34034 -1.02641 0.521972 8.51626 -1.97448 0.446232 
11.2867 -3.2179 0.600067 13.5861 -4.6175 1.123 15.8758 -5.84083 1.59268 
18.4274 -6.69081 1.46616 20.8004 -7.43665 0.817872 22.4633 -8.40228 0.106768 
-4.15848 -1.1675 1.20238 -7.77455 -2.81393 2.19931 -11.1053 -5.13511 3.5151 
-13.3247 -7.25132 4.28982 -14.4409 -8.40247 4.04894 -15.489 -8.75917 3.34894 
-17.1591 -8.94627 2.86004 -19.0217 -9.13419 2.50737 -20.4174 -9.11243 1.95931 
22.6784 1.00145 -0.13299 23.3768 -0.710839 0.665734 23.9078 -2.88537 1.3462 
24.7742 -5.25651 1.31098 25.8648 -7.72703 0.741698 26.3811 -10.1367 0.310921 
25.9797 -11.7911 0.108505 25.1416 -12.018 -0.161587 24.3003 -10.9952 -0.421654 
-21.2407 1.4262 -0.155565 -22.4864 0.224648 -0.176001 -23.7049 -0.921661 -0.380265 
-24.5034 -1.93266 -0.778944 -24.6356 -2.99404 -0.957337 -24.1418 -4.25027 -0.657384 
-23.2931 -5.57324 -0.145018 -22.4566 -6.80803 0.321527 -21.8158 -7.90461 0.766728 
-10.1881 0.753902 -3.80444 -9.05889 1.70619 -4.00487 -8.15954 1.37205 -3.83378 
-7.64707 2.68682 -4.30256 -6.8081 2.33962 -4.07004 -5.80068 2.02041 -3.89383 
-6.23963 3.68015 -4.41146 -5.40411 3.27343 -4.15695 -4.48501 2.88646 -3.80649 
-3.30248 2.54545 -3.55176 -5.03968 4.63731 -4.03221 -4.12531 4.17547 -3.8686 
-3.18564 3.67842 -3.45104 -2.02085 3.22144 -3.07678 -0.505456 2.89819 -2.96066 
-3.93638 5.40112 -3.23975 -2.89897 4.98013 -3.21225 -1.79019 4.46621 -2.95257 
-0.529517 3.90205 -2.63577 1.04429 3.46091 -2.57723 2.84855 3.15082 -2.80508 
-2.70449 5.90999 -2.4514 -1.56885 5.5521 -2.48244 -0.246633 5.15222 -2.47351 
1.21926 4.64033 -2.44576 2.84854 4.10285 -2.53692 4.63556 3.6478 -2.81375 
6.42048 3.21125 -3.17308 -1.28676 6.31929 -1.96377 -0.123579 5.94505 -1.97937 
1.29076 5.61072 -2.09719 2.93272 5.24291 -2.37047 4.65578 4.75277 -2.7327 
6.36161 4.16518 -3.05482 8.03129 3.54904 -3.30926 9.57774 2.90954 -3.51326 
-12.8812 0.303692 -4.10256 -14.0407 0.449162 -3.98625 -12.0026 1.35057 -4.09274 
-15.2194 0.695532 -3.64387 -13.0603 1.66914 -3.9397 -10.7542 2.45692 -4.22065 
-16.2585 1.1365 -3.32243 -14.1365 2.07442 -3.56388 -11.7194 2.94112 -4.02364 
-9.26933 3.60871 -4.39341 -17.0209 1.77965 -3.12859 -15.1428 2.54169 -3.11703 
-12.7222 3.43671 -3.59458 -10.1285 4.2155 -4.16639 -7.8208 4.75294 -4.31277 
-17.5411 2.44349 -2.85659 -15.9654 3.0395 -2.6592 -13.7371 3.83631 -2.97768 
-11.0228 4.74208 -3.73174 -8.53037 5.40593 -4.12017 -6.55405 5.71634 -3.81509 
-18.0099 2.91642 -2.31087 -16.6008 3.50442 -2.14136 -14.6568 4.17536 -2.26391 
-11.9795 5.09199 -3.05054 -9.25451 5.93369 -3.78346 -7.11437 6.33978 -3.71395 
-5.37812 6.37871 -3.07938 -18.5433 3.17343 -1.49577 -17.1726 3.86216 -1.51563 
-15.4178 4.51147 -1.58058 -12.9139 5.35639 -2.23966 -10.0703 6.27385 -3.1709 
-7.68415 6.84414 -3.47997 -5.85814 6.94708 -3.02103 -4.12995 6.83129 -2.38781 
-18.4613 4.05878 0.256823 -17.3268 4.88173 0.87275 -16.8641 4.89674 -0.151241 
-15.4605 5.80276 1.23948 -15.3533 5.79966 0.190659 -14.6603 5.73892 -0.725075 
-13.2168 6.65105 1.69878 -13.3095 6.62776 0.530414 -12.7377 6.63692 -0.591339 
-11.8455 6.606 -1.5309 -11.0127 7.16863 2.45567 -11.0986 7.16621 1.23602 
-10.5862 7.23992 -0.0755402 -9.76005 7.35103 -1.21402 -8.97497 7.34291 -2.16962 
-8.66213 7.39925 3.01365 -8.68295 7.50941 2.02156 -8.23565 7.62912 0.758723 
-7.56058 7.78519 -0.427604 -6.99667 7.84924 -1.41012 -6.61672 7.71628 -2.21649 
-5.86043 7.64818 2.93958 -5.80715 7.95736 2.32875 -5.42609 8.17679 1.32116 
[...]
POINT_DATA 1002
FIELD FieldData 4
_paraPhi 1 1002 double
6.2831853072 3.1415926536 6.2831853072 3.1415926536 4.7123889804 4.7123889804 1.5707963268 1.5707963268 3.6951670125 
5.7296109483 2.5880182947 0.5535743589 6.2831853072 6.2831853072 6.2831853072 6.2831853072 3.1415926536 3.1415926536 
3.1415926536 3.1415926536 3.1415926536 6.1053039672 5.898798347 5.6768734901 5.4599499503 5.2659633393 5.1032165617 
4.9713148346 4.8656852733 4.7809517865 0.17788134 0.38438696014 0.60631181711 0.82323535693 1.0172219679 1.1799687454 
1.3118704726 1.4175000338 1.5022335207 6.1892828907 6.1070320098 6.035312792 5.9728339911 5.9183214791 5.8706119594 
5.8286879411 5.7916808611 5.7588591896 0.093902416448 0.17615329733 0.2478725152 0.31035131605 0.36486382811 0.41257334776 
0.45449736604 0.4915044461 0.52432611754 3.3194739936 3.5259796137 3.7479044707 3.9648280105 4.1588146215 4.321561399 
4.4534631262 4.5590926874 4.6438261743 2.9637113136 2.7572056934 2.5352808365 2.3183572967 2.1243706857 1.9616239082 
1.829722181 1.7240926197 1.6393591329 3.23549507 3.3177459509 3.3894651688 3.4519439696 3.5064564817 3.5541660013 
3.5960900196 3.6330970997 3.6659187711 3.0476902371 2.9654393563 2.8937201384 2.8312413375 2.7767288255 2.7290193058 
2.6870952876 2.6500882075 2.617266536 6.2831853072 6.2831853072 6.2831853072 6.2831853072 3.1415926536 3.1415926536 
3.1415926536 3.1415926536 3.1415926536 6.1053039672 5.898798347 5.6768734901 5.4599499503 5.2659633393 5.1032165617 
4.9713148346 4.8656852733 4.7809517865 0.17788134 0.38438696014 0.60631181711 0.82323535693 1.0172219679 1.1799687454 
1.3118704726 1.4175000338 1.5022335207 6.1892828907 6.1070320098 6.035312792 5.9728339911 5.9183214791 5.8706119594 
5.8286879411 5.7916808611 5.7588591896 0.093902416448 0.17615329733 0.2478725152 0.31035131605 0.36486382811 0.41257334776 
0.45449736604 0.4915044461 0.52432611754 3.3194739936 3.5259796137 3.7479044707 3.9648280105 4.1588146215 4.321561399 
4.4534631262 4.5590926874 4.6438261743 2.9637113136 2.7572056934 2.5352808365 2.3183572967 2.1243706857 1.9616239082 
1.829722181 1.7240926197 1.6393591329 3.23549507 3.3177459509 3.3894651688 3.4519439696 3.5064564817 3.5541660013 
3.5960900196 3.6330970997 3.6659187711 3.0476902371 2.9654393563 2.8937201384 2.8312413375 2.7767288255 2.7290193058 
2.6870952876 2.6500882075 2.617266536 4.7123889804 4.7123889804 4.7123889804 4.7123889804 4.7123889804 4.7123889804 
4.7123889804 4.7123889804 4.7123889804 4.6087898617 4.4991390697 4.3857031936 4.2712800401 4.1588146215 4.0509635631 
3.94975894 3.8564636551 3.7716124825 4.8159880991 4.9256388911 5.0390747672 5.1534979207 5.2659633393 5.3738143976 
5.4750190208 5.5683143056 5.6531654782 4.6087898617 4.4991390697 4.3857031936 4.2712800401 4.1588146215 4.0509635631 
3.94975894 3.8564636551 3.7716124825 4.8159880991 4.9256388911 5.0390747672 5.1534979207 5.2659633393 5.3738143976 
5.4750190208 5.5683143056 5.6531654782 1.5707963268 1.5707963268 1.5707963268 1.5707963268 1.5707963268 1.5707963268 
1.5707963268 1.5707963268 1.5707963268 1.6743954455 1.7840462375 1.8974821136 2.0119052671 2.1243706857 2.232221744 
2.3334263672 2.426721652 2.5115728246 1.4671972081 1.3575464161 1.24411054 1.1296873865 1.0172219679 0.90937090954 
0.80816628637 0.71487100155 0.63001982895 1.6743954455 1.7840462375 1.8974821136 2.0119052671 2.1243706857 2.232221744 
2.3334263672 2.426721652 2.5115728246 1.4671972081 1.3575464161 1.24411054 1.1296873865 1.0172219679 0.90937090954 
0.80816628637 0.71487100155 0.63001982895 3.6007720849 3.4966939854 3.3839471039 3.2645756454 3.1415926536 3.0186096618 
2.8992382033 2.7864913217 2.6824132222 5.8240058758 5.9280839753 6.0408308569 6.1602023154 6.2831853072 0.12298299178 
0.2423544503 0.35510133185 0.45917943135 6.0560271438 5.7885595667 5.9702140275 5.5125918794 5.6029703303 5.7885595667 
5.2659633393 5.2659633393 5.2659633393 5.2659633393 5.0674903122 5.0120975802 4.9155579264 4.7123889804 4.1588146215 
4.9155579264 4.8353719722 4.7123889804 4.5092200343 4.1588146215 3.6362183941 4.8004512023 4.7123889804 4.5894059886 
4.4126803806 4.1588146215 3.8218076305 3.4545639333 4.7123889804 4.6243267584 4.5092200343 4.3572876485 4.1588146215 
3.9121860814 3.6362183941 3.368750817 6.0174235957 5.9434319871 5.8263323547 5.8809213739 5.7674481418 5.6279784266 
5.8278025282 5.718968232 5.5891129425 5.4372443565 5.7823484065 5.678536687 5.5575666702 5.4192596322 5.2659633393 
5.743164462 5.6444075337 5.5314983644 5.4046708639 5.2659633393 5.1195510325 5.7091357773 5.6152775188 5.5096229709 
5.3926039573 5.2659633393 5.1329233157 4.9978930058 5.6793730533 5.5901633916 5.4910209005 5.3824597928 5.2659633393 
5.1440684722 5.0201624502 4.8979782167 5.5683143056 5.4750190208 5.4750190208 5.3738143976 5.3738143976 5.3738143976 
5.2659633393 5.2659633393 5.2659633393 5.2659633393 5.1534979207 5.1534979207 5.1534979207 5.1534979207 5.1534979207 
5.0390747672 5.0390747672 5.0390747672 5.0390747672 5.0390747672 5.0390747672 4.9256388911 4.9256388911 4.9256388911 
4.9256388911 4.9256388911 4.9256388911 4.9256388911 4.8159880991 4.8159880991 4.8159880991 4.8159880991 4.8159880991 
4.8159880991 4.8159880991 4.8159880991 4.6087898617 4.6087898617 4.4991390697 4.6087898617 4.4991390697 4.3857031936 
4.6087898617 4.4991390697 4.3857031936 4.2712800401 4.6087898617 4.4991390697 4.3857031936 4.2712800401 4.1588146215 
4.6087898617 4.4991390697 4.3857031936 4.2712800401 4.1588146215 4.0509635631 4.6087898617 4.4991390697 4.3857031936 
4.2712800401 4.1588146215 4.0509635631 3.94975894 4.6087898617 4.4991390697 4.3857031936 4.2712800401 4.1588146215 
4.0509635631 3.94975894 3.8564636551 4.526799744 4.4046155105 4.426884955 4.2807094886 4.2918546451 4.3052269283 
4.1588146215 4.1588146215 4.1588146215 4.1588146215 4.042318168 4.0321740035 4.0201070968 4.0055183285 3.9875336042 
3.9337570603 3.9151549899 3.8932795963 3.8672112905 3.8356650183 3.7967995342 3.8346145692 3.809500442 3.7803704271 
3.7462412737 3.7058097288 3.657329819 3.5984456061 3.7454049075 3.7156421835 3.6816134988 3.6424295543 3.5969754326 
3.5438565869 3.4813459737 3.4073543651 3.5642842451 3.4524645613 3.5233842518 3.3320300872 3.403123212 3.4773852225 
3.20576226 3.2746326772 3.348015857 3.4255060145 3.0774230472 3.1415926536 3.2112816139 3.2864685043 3.3668817272 
2.95115522 3.00855263 3.0719036933 3.1415926536 3.2178377658 3.3005964304 2.8307207459 2.8800620952 2.9351694502 
2.9967168029 3.0653475414 3.1415926536 3.225752376 2.718901062 2.7598010554 2.8058000847 2.8576792927 2.91630358 
2.9825888767 3.0574329311 3.1415926536 3.5642842451 3.5233842518 3.4524645613 3.4773852225 3.403123212 3.3320300872 
3.4255060145 3.348015857 3.2746326772 3.20576226 3.3668817272 3.2864685043 3.2112816139 3.1415926536 3.0774230472 
3.3005964304 3.2178377658 3.1415926536 3.0719036933 3.00855263 2.95115522 3.225752376 3.1415926536 3.0653475414 
2.9967168029 2.9351694502 2.8800620952 2.8307207459 3.1415926536 3.0574329311 2.9825888767 2.91630358 2.8576792927 
2.8058000847 2.7598010554 2.718901062 4.526799744 4.426884955 4.4046155105 4.3052269283 4.2918546451 4.2807094886 
4.1588146215 4.1588146215 4.1588146215 4.1588146215 3.9875336042 4.0055183285 4.0201070968 4.0321740035 4.042318168 
3.7967995342 3.8356650183 3.8672112905 3.8932795963 3.9151549899 3.9337570603 3.5984456061 3.657329819 3.7058097288 
3.7462412737 3.7803704271 3.809500442 3.8346145692 3.4073543651 3.4813459737 3.5438565869 3.5969754326 3.6424295543 
3.6816134988 3.7156421835 3.7454049075 4.7123889804 4.8004512023 4.6243267584 4.9155579264 4.7123889804 4.5092200343 
5.0674903122 4.8353719722 4.5894059886 4.3572876485 5.2659633393 5.0120975802 4.7123889804 4.4126803806 4.1588146215 
5.5125918794 5.2659633393 4.9155579264 4.5092200343 4.1588146215 3.9121860814 5.7885595667 5.6029703303 5.2659633393 
4.7123889804 4.1588146215 3.8218076305 3.6362183941 6.0560271438 5.9702140275 5.7885595667 5.2659633393 4.1588146215 
3.6362183941 3.4545639333 3.368750817 0.22715816343 0.49462574053 0.3129712797 0.77059342779 0.68021497688 0.49462574053 
1.0172219679 1.0172219679 1.0172219679 1.0172219679 1.2156949949 1.271087727 1.3676273807 1.5707963268 2.1243706857 
1.3676273807 1.447813335 1.5707963268 1.7739652728 2.1243706857 2.6469669131 1.4827341049 1.5707963268 1.6937793186 
1.8705049266 2.1243706857 2.4613776767 2.8286213739 1.5707963268 1.6588585487 1.7739652728 1.9258976586 2.1243706857 
2.3709992258 2.6469669131 2.9144344902 1.7563855631 1.8785697967 1.8563003522 2.0024758186 1.9913306621 1.9779583789 
2.1243706857 2.1243706857 2.1243706857 2.1243706857 2.2408671392 2.2510113037 2.2630782103 2.2776669786 2.295651703 
2.3494282469 2.3680303173 2.3899057108 2.4159740166 2.4475202889 2.486385773 2.448570738 2.4736848652 2.5028148801 
2.5369440334 2.5773755784 2.6258554882 2.6847397011 2.5377803997 2.5675431237 2.6015718084 2.6407557529 2.6862098746 
2.7393287203 2.8018393335 2.8758309421 1.6743954455 1.6743954455 1.7840462375 1.6743954455 1.7840462375 1.8974821136 
1.6743954455 1.7840462375 1.8974821136 2.0119052671 1.6743954455 1.7840462375 1.8974821136 2.0119052671 2.1243706857 
1.6743954455 1.7840462375 1.8974821136 2.0119052671 2.1243706857 2.232221744 1.6743954455 1.7840462375 1.8974821136 
2.0119052671 2.1243706857 2.232221744 2.3334263672 1.6743954455 1.7840462375 1.8974821136 2.0119052671 2.1243706857 
2.232221744 2.3334263672 2.426721652 1.4671972081 1.3575464161 1.4671972081 1.24411054 1.3575464161 1.4671972081 
1.1296873865 1.24411054 1.3575464161 1.4671972081 1.0172219679 1.1296873865 1.24411054 1.3575464161 1.4671972081 
0.90937090954 1.0172219679 1.1296873865 1.24411054 1.3575464161 1.4671972081 0.80816628637 0.90937090954 1.0172219679 
1.1296873865 1.24411054 1.3575464161 1.4671972081 0.71487100155 0.80816628637 0.90937090954 1.0172219679 1.1296873865 
1.24411054 1.3575464161 1.4671972081 0.60381225391 0.57404952988 0.69302191562 0.54002084522 0.66790778838 0.79216440667 
0.50083690068 0.63877777351 0.77356233629 0.90072551443 0.45538277901 0.60464862014 0.75168694275 0.89058134991 1.0172219679 
0.40226393329 0.56421707518 0.72561863695 0.87851444325 1.0172219679 1.139116835 0.33975332011 0.51573716537 0.69407236469 
0.86392567495 1.0172219679 1.1502619915 1.2630228569 0.26576171152 0.45685295248 0.6552068806 0.84594095064 1.0172219679 
1.1636342747 1.2852923014 1.3852070904 0.22715816343 0.3129712797 0.49462574053 0.49462574053 0.68021497688 0.77059342779 
1.0172219679 1.0172219679 1.0172219679 1.0172219679 2.1243706857 1.5707963268 1.3676273807 1.271087727 1.2156949949 
2.6469669131 2.1243706857 1.7739652728 1.5707963268 1.447813335 1.3676273807 2.8286213739 2.4613776767 2.1243706857 
1.8705049266 1.6937793186 1.5707963268 1.4827341049 2.9144344902 2.6469669131 2.3709992258 2.1243706857 1.9258976586 
1.7739652728 1.6588585487 1.5707963268 1.7563855631 1.8563003522 1.8785697967 1.9779583789 1.9913306621 2.0024758186 
2.1243706857 2.1243706857 2.1243706857 2.1243706857 2.295651703 2.2776669786 2.2630782103 2.2510113037 2.2408671392 
2.486385773 2.4475202889 2.4159740166 2.3899057108 2.3680303173 2.3494282469 2.6847397011 2.6258554882 2.5773755784 
2.5369440334 2.5028148801 2.4736848652 2.448570738 2.8758309421 2.8018393335 2.7393287203 2.6862098746 2.6407557529 
2.6015718084 2.5675431237 2.5377803997 5.8604937156 5.901393709 5.9723133995 5.9473927383 6.0216547488 6.0927478736 
5.9992719463 6.0767621038 6.1501452836 6.2190157008 6.0578962336 6.1383094565 6.2134963469 0 0.064169606361 
6.1241815303 6.206940195 6.2831853072 0.069688960264 0.13304002361 0.19043743361 6.1990255847 0 0.07624511221 
0.14487585072 0.20642320337 0.26153055843 0.3108719077 0 0.084159722458 0.15900377685 0.22528907359 0.28391336087 
0.3357925689 0.38179159818 0.42269159155 5.8604937156 5.9723133995 5.901393709 6.0927478736 6.0216547488 5.9473927383 
6.2190157008 6.1501452836 6.0767621038 5.9992719463 0.064169606361 0 6.2134963469 6.1383094565 6.0578962336 
0.19043743361 0.13304002361 0.069688960264 6.2831853072 6.206940195 6.1241815303 0.3108719077 0.26153055843 0.20642320337 
0.14487585072 0.07624511221 6.2831853072 6.1990255847 0.42269159155 0.38179159818 0.3357925689 0.28391336087 0.22528907359 
0.15900377685 0.084159722458 0 5.6793730533 5.7091357773 5.5901633916 5.743164462 5.6152775188 5.4910209005 
5.7823484065 5.6444075337 5.5096229709 5.3824597928 5.8278025282 5.678536687 5.5314983644 5.3926039573 5.2659633393 
5.8809213739 5.718968232 5.5575666702 5.4046708639 5.2659633393 5.1440684722 5.9434319871 5.7674481418 5.5891129425 
5.4192596322 5.2659633393 5.1329233157 5.0201624502 6.0174235957 5.8263323547 5.6279784266 5.4372443565 5.2659633393 
5.1195510325 4.9978930058 4.8979782167 1.3852070904 1.2852923014 1.2630228569 1.1636342747 1.1502619915 1.139116835 
1.0172219679 1.0172219679 1.0172219679 1.0172219679 0.84594095064 0.86392567495 0.87851444325 0.89058134991 0.90072551443 
0.6552068806 0.69407236469 0.72561863695 0.75168694275 0.77356233629 0.79216440667 0.45685295248 0.51573716537 0.56421707518 
0.60464862014 0.63877777351 0.66790778838 0.69302191562 0.26576171152 0.33975332011 0.40226393329 0.45538277901 0.50083690068 
0.54002084522 0.57404952988 0.60381225391 
_paraPhiHalf 1 1002 double
0 3.1415926536 0 3.1415926536 1.5707963268 1.5707963268 1.5707963268 1.5707963268 2.5880182947 
0.5535743589 2.5880182947 0.5535743589 0 0 0 0 3.1415926536 3.1415926536 
3.1415926536 3.1415926536 3.1415926536 0.17788134 0.38438696014 0.60631181711 0.82323535693 1.0172219679 1.1799687454 
1.3118704726 1.4175000338 1.5022335207 0.17788134 0.38438696014 0.60631181711 0.82323535693 1.0172219679 1.1799687454 
1.3118704726 1.4175000338 1.5022335207 0.093902416448 0.17615329733 0.2478725152 0.31035131605 0.36486382811 0.41257334776 
0.45449736604 0.4915044461 0.52432611754 0.093902416448 0.17615329733 0.2478725152 0.31035131605 0.36486382811 0.41257334776 
0.45449736604 0.4915044461 0.52432611754 2.9637113136 2.7572056934 2.5352808365 2.3183572967 2.1243706857 1.9616239082 
1.829722181 1.7240926197 1.6393591329 2.9637113136 2.7572056934 2.5352808365 2.3183572967 2.1243706857 1.9616239082 
1.829722181 1.7240926197 1.6393591329 3.0476902371 2.9654393563 2.8937201384 2.8312413375 2.7767288255 2.7290193058 
2.6870952876 2.6500882075 2.617266536 3.0476902371 2.9654393563 2.8937201384 2.8312413375 2.7767288255 2.7290193058 
2.6870952876 2.6500882075 2.617266536 0 0 0 0 3.1415926536 3.1415926536 
3.1415926536 3.1415926536 3.1415926536 0.17788134 0.38438696014 0.60631181711 0.82323535693 1.0172219679 1.1799687454 
1.3118704726 1.4175000338 1.5022335207 0.17788134 0.38438696014 0.60631181711 0.82323535693 1.0172219679 1.1799687454 
1.3118704726 1.4175000338 1.5022335207 0.093902416448 0.17615329733 0.2478725152 0.31035131605 0.36486382811 0.41257334776 
0.45449736604 0.4915044461 0.52432611754 0.093902416448 0.17615329733 0.2478725152 0.31035131605 0.36486382811 0.41257334776 
0.45449736604 0.4915044461 0.52432611754 2.9637113136 2.7572056934 2.5352808365 2.3183572967 2.1243706857 1.9616239082 
1.829722181 1.7240926197 1.6393591329 2.9637113136 2.7572056934 2.5352808365 2.3183572967 2.1243706857 1.9616239082 
1.829722181 1.7240926197 1.6393591329 3.0476902371 2.9654393563 2.8937201384 2.8312413375 2.7767288255 2.7290193058 
2.6870952876 2.6500882075 2.617266536 3.0476902371 2.9654393563 2.8937201384 2.8312413375 2.7767288255 2.7290193058 
2.6870952876 2.6500882075 2.617266536 1.5707963268 1.5707963268 1.5707963268 1.5707963268 1.5707963268 1.5707963268 
1.5707963268 1.5707963268 1.5707963268 1.6743954455 1.7840462375 1.8974821136 2.0119052671 2.1243706857 2.232221744 
2.3334263672 2.426721652 2.5115728246 1.4671972081 1.3575464161 1.24411054 1.1296873865 1.0172219679 0.90937090954 
0.80816628637 0.71487100155 0.63001982895 1.6743954455 1.7840462375 1.8974821136 2.0119052671 2.1243706857 2.232221744 
2.3334263672 2.426721652 2.5115728246 1.4671972081 1.3575464161 1.24411054 1.1296873865 1.0172219679 0.90937090954 
0.80816628637 0.71487100155 0.63001982895 1.5707963268 1.5707963268 1.5707963268 1.5707963268 1.5707963268 1.5707963268 
1.5707963268 1.5707963268 1.5707963268 1.6743954455 1.7840462375 1.8974821136 2.0119052671 2.1243706857 2.232221744 
2.3334263672 2.426721652 2.5115728246 1.4671972081 1.3575464161 1.24411054 1.1296873865 1.0172219679 0.90937090954 
0.80816628637 0.71487100155 0.63001982895 1.6743954455 1.7840462375 1.8974821136 2.0119052671 2.1243706857 2.232221744 
2.3334263672 2.426721652 2.5115728246 1.4671972081 1.3575464161 1.24411054 1.1296873865 1.0172219679 0.90937090954 
0.80816628637 0.71487100155 0.63001982895 2.6824132222 2.7864913217 2.8992382033 3.0186096618 3.1415926536 3.0186096618 
2.8992382033 2.7864913217 2.6824132222 0.45917943135 0.35510133185 0.2423544503 0.12298299178 0 0.12298299178 
0.2423544503 0.35510133185 0.45917943135 0.22715816343 0.49462574053 0.3129712797 0.77059342779 0.68021497688 0.49462574053 
1.0172219679 1.0172219679 1.0172219679 1.0172219679 1.2156949949 1.271087727 1.3676273807 1.5707963268 2.1243706857 
1.3676273807 1.447813335 1.5707963268 1.7739652728 2.1243706857 2.6469669131 1.4827341049 1.5707963268 1.6937793186 
1.8705049266 2.1243706857 2.4613776767 2.8286213739 1.5707963268 1.6588585487 1.7739652728 1.9258976586 2.1243706857 
2.3709992258 2.6469669131 2.9144344902 0.26576171152 0.33975332011 0.45685295248 0.40226393329 0.51573716537 0.6552068806 
0.45538277901 0.56421707518 0.69407236469 0.84594095064 0.50083690068 0.60464862014 0.72561863695 0.86392567495 1.0172219679 
0.54002084522 0.63877777351 0.75168694275 0.87851444325 1.0172219679 1.1636342747 0.57404952988 0.66790778838 0.77356233629 
0.89058134991 1.0172219679 1.1502619915 1.2852923014 0.60381225391 0.69302191562 0.79216440667 0.90072551443 1.0172219679 
1.139116835 1.2630228569 1.3852070904 0.71487100155 0.80816628637 0.80816628637 0.90937090954 0.90937090954 0.90937090954 
1.0172219679 1.0172219679 1.0172219679 1.0172219679 1.1296873865 1.1296873865 1.1296873865 1.1296873865 1.1296873865 
1.24411054 1.24411054 1.24411054 1.24411054 1.24411054 1.24411054 1.3575464161 1.3575464161 1.3575464161 
1.3575464161 1.3575464161 1.3575464161 1.3575464161 1.4671972081 1.4671972081 1.4671972081 1.4671972081 1.4671972081 
1.4671972081 1.4671972081 1.4671972081 1.6743954455 1.6743954455 1.7840462375 1.6743954455 1.7840462375 1.8974821136 
1.6743954455 1.7840462375 1.8974821136 2.0119052671 1.6743954455 1.7840462375 1.8974821136 2.0119052671 2.1243706857 
1.6743954455 1.7840462375 1.8974821136 2.0119052671 2.1243706857 2.232221744 1.6743954455 1.7840462375 1.8974821136 
2.0119052671 2.1243706857 2.232221744 2.3334263672 1.6743954455 1.7840462375 1.8974821136 2.0119052671 2.1243706857 
2.232221744 2.3334263672 2.426721652 1.7563855631 1.8785697967 1.8563003522 2.0024758186 1.9913306621 1.9779583789 
2.1243706857 2.1243706857 2.1243706857 2.1243706857 2.2408671392 2.2510113037 2.2630782103 2.2776669786 2.295651703 
2.3494282469 2.3680303173 2.3899057108 2.4159740166 2.4475202889 2.486385773 2.448570738 2.4736848652 2.5028148801 
2.5369440334 2.5773755784 2.6258554882 2.6847397011 2.5377803997 2.5675431237 2.6015718084 2.6407557529 2.6862098746 
2.7393287203 2.8018393335 2.8758309421 2.718901062 2.8307207459 2.7598010554 2.95115522 2.8800620952 2.8058000847 
3.0774230472 3.00855263 2.9351694502 2.8576792927 3.0774230472 3.1415926536 3.0719036933 2.9967168029 2.91630358 
2.95115522 3.00855263 3.0719036933 3.1415926536 3.0653475414 2.9825888767 2.8307207459 2.8800620952 2.9351694502 
2.9967168029 3.0653475414 3.1415926536 3.0574329311 2.718901062 2.7598010554 2.8058000847 2.8576792927 2.91630358 
2.9825888767 3.0574329311 3.1415926536 2.718901062 2.7598010554 2.8307207459 2.8058000847 2.8800620952 2.95115522 
2.8576792927 2.9351694502 3.00855263 3.0774230472 2.91630358 2.9967168029 3.0719036933 3.1415926536 3.0774230472 
2.9825888767 3.0653475414 3.1415926536 3.0719036933 3.00855263 2.95115522 3.0574329311 3.1415926536 3.0653475414 