# vtk DataFile Version 5.1
vtk output
ASCII
DATASET POLYDATA
POINTS 1002 float
-15.5906 -0.273815 -2.28741 16.8386 1.12072 -4.6594 -14.3527 1.18218 3.0099 
13.56 0.342171 3.29937 1.19411 8.72292 -2.23464 -0.684249 8.48238 2.87746 
-2.33691 -0.551289 0.738821 -2.11409 -2.00339 3.33457 22.4907 4.01044 1.42188 
-22.0153 1.718 -1.62808 19.9262 -14.0373 -1.29464 -22.3276 -8.91891 -0.406288 
-13.8023 0.359471 -1.98271 -11.8755 1.11467 -1.482 -9.72228 2.0002 -0.864107 
-7.10455 2.86552 -0.321212 -3.76279 3.43355 -0.130517 0.500892 3.49947 -0.659537 
5.49799 3.09748 -1.99163 10.4031 2.44024 -3.54201 14.2882 1.74142 -4.51965 
-14.5896 0.541813 -2.37347 -13.4236 1.49566 -2.36479 -12.5446 2.62114 -1.96347 
-12.0852 3.83115 -1.07727 -11.3768 4.97743 -0.158451 -9.57034 5.99467 0.133636 
-6.70066 6.87069 -0.335067 -3.56866 7.58432 -1.12909 -0.860851 8.1726 -1.81138 
-15.2511 -0.654339 -2.05279 -14.6732 -0.975904 -1.75159 -13.9429 -1.20406 -1.35035 
-13.1302 -1.32028 -0.842703 -12.0625 -1.35559 -0.359237 -10.5741 -1.34614 -0.0235003 
-8.8223 -1.24991 0.241281 -6.95986 -1.0164 0.530093 -4.84336 -0.725526 0.745639 
-16.852 -0.373633 -2.4701 -18.1631 -0.459663 -2.56745 -19.2023 -0.55597 -2.89535 
-19.6826 -0.567262 -3.71235 -19.8359 -0.321503 -4.63313 -20.2297 0.181586 -4.87216 
-20.9922 0.718718 -4.23172 -21.718 1.12145 -3.23005 -22.0644 1.42212 -2.33674 
-17.0411 -1.22078 -2.44663 -18.1307 -2.44741 -2.78464 -18.9234 -3.98252 -3.22448 
-19.7713 -5.6693 -3.57328 -20.7452 -7.24326 -3.72858 -21.4905 -8.53074 -3.60355 
-21.8611 -9.44367 -3.04017 -22.1004 -9.84071 -2.09051 -22.3186 -9.62381 -1.10813 
15.8152 1.93573 -4.62597 14.4714 2.77124 -4.42964 13.0517 3.58256 -4.28168 
11.7086 4.37471 -4.32795 10.3162 5.18406 -4.40724 8.63458 6.01953 -4.22762 
6.64485 6.83844 -3.74513 4.60668 7.57988 -3.16361 2.77879 8.20851 -2.65455 
16.2851 0.705874 -4.62359 15.3292 0.366283 -4.37521 13.9065 0.141361 -3.8966 
12.0355 0.0444575 -3.22755 9.77255 0.0521128 -2.42091 7.22777 0.1063 -1.53994 
4.59067 0.14064 -0.687779 2.04512 0.0857461 0.0149742 -0.293729 -0.133306 0.491487 
18.1313 1.08761 -4.34704 19.2582 1.12661 -3.90603 20.5479 1.21518 -3.65581 
22.1604 1.39594 -3.65374 23.6765 1.70953 -3.49782 24.3156 2.07574 -2.76583 
23.8765 2.41251 -1.5648 23.0422 2.8029 -0.337474 22.5404 3.35467 0.658038 
18.2647 0.241271 -4.23184 19.2114 -0.705696 -3.52124 20.1775 -1.81542 -3.14718 
21.5505 -3.37029 -3.46338 22.8634 -5.5234 -3.93978 23.3089 -7.97014 -3.87494 
22.7952 -10.2121 -3.33091 21.8158 -11.9947 -2.69446 20.7879 -13.2763 -2.03447 
-12.6952 1.86405 3.61439 -10.5876 2.54968 4.15835 -7.72743 3.13715 4.417 
-3.93045 3.43588 4.25762 0.434232 3.29306 3.82069 4.5138 2.78524 3.41033 
7.73046 2.14939 3.20594 10.1478 1.52878 3.18544 12.0459 0.92805 3.24622 
-13.8496 2.02476 3.39129 -12.9533 2.95637 3.67031 -11.704 3.8924 3.81067 
-10.2735 4.80187 3.89556 -8.74895 5.70975 3.98958 -7.09618 6.56094 4.01762 
-5.35873 7.24075 3.88754 -3.67469 7.74177 3.617 -2.11878 8.14354 3.26842 
-13.7082 0.831285 3.0118 -12.9603 0.507581 3.10592 -12.105 0.180366 3.2546 
-11.0492 -0.167847 3.35777 -9.6251 -0.493278 3.32024 -7.86468 -0.753589 3.16384 
-6.12911 -0.999695 3.05524 -4.70047 -1.30848 3.12247 -3.45639 -1.66709 3.28121 
-15.7287 1.00011 2.71051 -17.1609 0.832285 2.41339 -18.4024 0.679749 1.96226 
-19.4292 0.549662 1.38061 -20.5029 0.508528 0.912415 -21.5545 0.630832 0.551093 
-22.1239 0.872881 0.00653742 -22.1536 1.13012 -0.712619 -22.0479 1.39214 -1.29781 
-15.4473 0.237631 2.37236 -16.5753 -0.809826 1.79234 -17.8895 -1.95556 1.36908 
-19.2662 -3.16218 0.930647 -20.4383 -4.36723 0.29432 -21.4365 -5.55334 -0.288977 
-22.384 -6.7179 -0.434752 -23.0147 -7.75923 -0.24716 -22.976 -8.51749 -0.162183 
13.3505 1.33528 3.23399 12.8476 2.35999 3.21575 11.9624 3.38542 3.26383 
10.7036 4.37771 3.31098 9.25648 5.28263 3.18495 7.72148 6.04529 2.85397 
5.90508 6.68887 2.57264 3.69211 7.3024 2.55998 1.36351 7.91968 2.73143 
12.7937 -0.262328 3.34284 12.0163 -0.837123 3.29803 11.2392 -1.41061 3.17343 
10.3926 -1.94748 3.09521 9.34145 -2.18719 3.12229 7.80702 -1.88442 3.13847 
5.52314 -1.30197 3.08087 2.69441 -1.03612 3.0672 -0.0265374 -1.34382 3.18025 
14.8905 0.43434 3.24882 16.2229 0.665074 3.19677 17.3874 0.984722 3.28309 
18.3747 1.33194 3.55866 19.424 1.79208 3.83604 20.6909 2.47866 3.84441 
21.9044 3.23657 3.49874 22.6269 3.76373 2.90021 22.7431 3.97362 2.17888 
14.3041 -0.722186 3.37914 14.7538 -2.03602 3.44135 15.1723 -3.61762 3.31551 
16.0776 -5.47468 2.82414 17.5701 -7.58325 2.08266 18.9892 -9.78775 1.42334 
19.6727 -11.7513 0.931924 19.7153 -13.1408 0.385759 19.675 -13.8603 -0.37619 
1.22228 9.41795 -2.12122 0.883537 10.2336 -1.80682 0.0388528 11.0144 -1.11577 
-1.09258 11.4536 -0.0488017 -1.91388 11.3436 1.03618 -2.03907 10.8177 1.75102 
-1.69137 10.1768 2.11228 -1.28497 9.57384 2.37447 -0.965366 9.00996 2.64527 
3.79768 8.96723 -2.69968 6.4182 9.05272 -3.06705 9.45227 8.7002 -3.48578 
13.1509 7.80611 -3.90653 17.0132 6.78048 -3.93896 19.949 6.12068 -3.24833 
21.3905 5.75045 -1.95877 21.8385 5.29953 -0.51987 22.0964 4.67996 0.661815 
-1.65985 8.78405 -1.5629 -5.16105 8.6945 -0.751359 -9.05738 8.42648 -0.0959036 
-12.5545 7.99517 -0.00287526 -15.064 7.37399 -0.437118 -16.9352 6.43931 -0.871479 
-18.7701 5.18519 -1.02034 -20.458 3.8566 -1.107 -21.552 2.69247 -1.338 
2.11667 8.38493 2.33647 5.45025 8.12594 1.72197 9.02792 7.75289 1.21474 
12.575 7.32996 0.889214 16.113 6.94846 0.678827 19.4442 6.68941 0.627783 
21.7633 6.44612 0.876972 22.594 5.94475 1.30595 22.5229 5.07316 1.5581 
-3.28871 8.69977 3.12496 -5.84806 8.62816 3.17332 -8.76587 8.28523 3.17251 
-12.0723 7.80351 3.20486 -14.9436 7.14597 2.94073 -16.8247 6.13357 2.09141 
-18.2975 4.8524 0.964102 -19.905 3.62746 -0.0128522 -21.2992 2.61116 -0.827092 
-1.81803 -0.852915 0.743874 -1.32071 -1.207 0.773284 -0.940113 -1.58259 0.867067 
-0.720927 -1.95006 1.03162 -0.664693 -2.33764 1.28797 -0.826837 -2.75422 1.72633 
-1.25233 -3.0485 2.3523 -1.77999 -3.00969 2.95018 -2.11705 -2.60656 3.28427 
2.22694 -0.527081 0.174043 7.88275 -1.5068 -1.08531 13.2951 -3.55493 -2.59336 
17.0583 -6.14677 -3.64611 19.069 -8.65175 -4.10743 20.1255 -10.8257 -4.29839 
20.5631 -12.5901 -4.14632 20.4076 -13.7604 -3.38741 20.0482 -14.2182 -2.26169 
-5.56482 -1.3892 0.748554 -8.07705 -2.59751 0.485696 -10.0722 -3.74747 0.313999 
-11.9681 -4.63891 0.306117 -13.7673 -5.46785 0.0935759 -15.2437 -6.36458 -0.458299 
-16.6623 -7.16808 -0.903739 -18.4674 -7.80282 -0.894663 -20.53 -8.37979 -0.615814 
0.917793 -2.01761 3.0762 4.93306 -2.71313 2.55867 9.26197 -4.53066 1.83416 
12.8311 -7.1873 0.981698 15.1109 -9.73528 0.150255 16.4692 -11.6173 -0.442769 
17.4707 -13.0248 -0.723163 18.3481 -14.065 -0.856326 19.1521 -14.4543 -1.03249 
-4.44275 -2.6243 3.39129 -6.35395 -3.26732 3.15567 -8.34316 -4.03109 2.6671 
-10.5668 -5.24731 2.20762 -12.518 -6.58691 1.91535 -14.1085 -7.15239 1.55841 
-16.0463 -6.93784 0.994876 -18.5211 -6.94877 0.427836 -20.8106 -7.73895 0.000555387 
23.1402 2.84688 1.32686 24.0951 1.53235 0.876501 24.7125 0.0470215 0.378781 
24.5381 -1.70009 -0.0523434 23.8595 -3.74118 -0.619883 23.1376 -6.02695 -1.27517 
22.3561 -8.48908 -1.56903 21.4286 -10.908 -1.3912 20.5568 -12.8653 -1.17802 
-22.1587 0.460144 -2.29509 -22.2675 -1.16903 -2.77608 -23.2727 -3.02406 -2.76375 
-25.3259 -4.76818 -2.32134 -27.0077 -6.36185 -1.9328 -27.0189 -8.04588 -1.81479 
-25.8991 -9.58153 -1.63935 -24.7671 -10.267 -1.2 -23.7206 -9.87729 -0.715089 
-12.6832 1.22569 -1.99505 -11.6652 2.28409 -1.698 -10.8397 2.08699 -1.22843 
-11.0384 3.50144 -0.897476 -9.99839 3.25013 -0.577617 -8.65824 3.05652 -0.398098 
-10.3569 4.69133 0.053719 -9.13237 4.44088 0.243711 -7.4629 4.17308 0.164467 
-5.54393 3.82225 -0.0504021 -8.63215 5.6879 0.358302 -7.38841 5.40597 0.490794 
-5.56792 5.08645 0.251194 -3.37661 4.6216 -0.200081 -1.34009 4.0527 -0.487693 
-5.62554 6.48021 -0.296307 -4.30606 6.07389 -0.301623 -2.51105 5.64394 -0.59777 
-0.343535 5.09655 -1.09843 1.72571 4.42321 -1.44257 3.57519 3.74121 -1.63883 
-2.2192 7.12296 -1.36717 -0.66093 6.58086 -1.62933 1.18153 5.99171 -2.021 
3.20006 5.34221 -2.47482 5.09143 4.61634 -2.74282 6.77991 3.8734 -2.84751 
8.52514 3.15799 -3.0914 0.670159 7.67696 -2.21051 2.43433 7.06684 -2.67146 
4.40525 6.36477 -3.19223 6.37318 5.61017 -3.64137 8.10049 4.83349 -3.8309 
9.59572 4.06138 -3.82166 11.1128 3.30143 -3.91542 12.754 2.52979 -4.21795 
-15.8718 0.564207 -2.48842 -17.3695 0.615904 -2.41708 -14.7416 1.63888 -2.3953 
-18.6238 0.672259 -2.59615 -16.3727 1.80847 -2.16934 -13.9133 2.85513 -1.92021 
-19.1853 0.857445 -3.33893 -17.636 1.99684 -2.25146 -15.4667 3.09903 -1.6746 
-13.3756 4.10492 -1.04519 -19.4051 1.3108 -4.08918 -18.0963 2.35838 -2.89042 
-16.4351 3.39325 -1.8009 -14.573 4.3947 -0.950078 -12.3638 5.29332 -0.230479 
-20.0107 1.89902 -3.99783 -18.4137 2.94865 -3.34432 -16.7233 3.89444 -2.32613 
-15.1654 4.79191 -1.18241 -13.1495 5.66001 -0.296612 -10.2404 6.40195 0.00787968 
-20.9483 2.33719 -3.10462 -19.2486 3.506 -2.92346 -17.1854 4.53829 -2.47532 
-15.4614 5.39592 -1.55492 -13.6368 6.1608 -0.519369 -10.8711 6.86224 -0.0523442 
-7.28053 7.3688 -0.363426 -21.564 2.55342 -2.09083 -20.1568 3.78562 -1.96462 
-18.0882 5.01379 -1.88854 -16.1068 6.03792 -1.47837 -14.2124 6.80094 -0.675869 
-11.5831 7.41135 -0.105389 -8.02036 7.88476 -0.277712 -4.2377 8.13945 -0.996496 
-20.3705 3.64858 -0.541228 -18.7038 4.82865 0.306867 -19.0342 4.97649 -0.283721 
-17.1092 6.1745 1.36963 -17.4488 6.28716 0.67166 -17.5136 6.44701 -0.0768324 
-15.4092 7.33582 2.40415 -15.8192 7.52518 1.75634 -16.1048 7.69639 1.01094 
-15.8503 7.69016 0.200011 -12.7758 8.08647 2.90848 -13.4429 8.38203 2.5242 
-14.0142 8.65339 1.96194 -14.0843 8.74699 1.19414 -13.4566 8.50894 0.44482 
-9.35154 8.60892 2.91742 -10.0578 8.95478 2.70779 -10.8143 9.31219 2.39275 
-11.166 9.54321 1.75976 -10.7448 9.44865 0.919695 -9.84689 9.01299 0.243336 
-6.18309 9.03876 2.86846 -6.64609 9.45598 2.63441 -7.26393 9.88759 2.40527 
[...]
POINT_DATA 1002
FIELD FieldData 4
_paraPhi 1 1002 double
6.2831853072 3.1415926536 6.2831853072 3.1415926536 4.7123889804 4.7123889804 1.5707963268 1.5707963268 3.6951670125 
5.7296109483 2.5880182947 0.5535743589 6.2831853072 6.2831853072 6.2831853072 6.2831853072 3.1415926536 3.1415926536 
3.1415926536 3.1415926536 3.1415926536 6.1053039672 5.898798347 5.6768734901 5.4599499503 5.2659633393 5.1032165617 
4.9713148346 4.8656852733 4.7809517865 0.17788134 0.38438696014 0.60631181711 0.82323535693 1.0172219679 1.1799687454 
1.3118704726 1.4175000338 1.5022335207 6.1892828907 6.1070320098 6.035312792 5.9728339911 5.9183214791 5.8706119594 
5.8286879411 5.7916808611 5.7588591896 0.093902416448 0.17615329733 0.2478725152 0.31035131605 0.36486382811 0.41257334776 
0.45449736604 0.4915044461 0.52432611754 3.3194739936 3.5259796137 3.7479044707 3.9648280105 4.1588146215 4.321561399 
4.4534631262 4.5590926874 4.6438261743 2.9637113136 2.7572056934 2.5352808365 2.3183572967 2.1243706857 1.9616239082 
1.829722181 1.7240926197 1.6393591329 3.23549507 3.3177459509 3.3894651688 3.4519439696 3.5064564817 3.5541660013 
3.5960900196 3.6330970997 3.6659187711 3.0476902371 2.9654393563 2.8937201384 2.8312413375 2.7767288255 2.7290193058 
2.6870952876 2.6500882075 2.617266536 6.2831853072 6.2831853072 6.2831853072 6.2831853072 3.1415926536 3.1415926536 
3.1415926536 3.1415926536 3.1415926536 6.1053039672 5.898798347 5.6768734901 5.4599499503 5.2659633393 5.1032165617 
4.9713148346 4.8656852733 4.7809517865 0.17788134 0.38438696014 0.60631181711 0.82323535693 1.0172219679 1.1799687454 
1.3118704726 1.4175000338 1.5022335207 6.1892828907 6.1070320098 6.035312792 5.9728339911 5.9183214791 5.8706119594 
5.8286879411 5.7916808611 5.7588591896 0.093902416448 0.17615329733 0.2478725152 0.31035131605 0.36486382811 0.41257334776 
0.45449736604 0.4915044461 0.52432611754 3.3194739936 3.5259796137 3.7479044707 3.9648280105 4.1588146215 4.321561399 
4.4534631262 4.5590926874 4.6438261743 2.9637113136 2.7572056934 2.5352808365 2.3183572967 2.1243706857 1.9616239082 
1.829722181 1.7240926197 1.6393591329 3.23549507 3.3177459509 3.3894651688 3.4519439696 3.5064564817 3.5541660013 
3.5960900196 3.6330970997 3.6659187711 3.0476902371 2.9654393563 2.8937201384 2.8312413375 2.7767288255 2.7290193058 
2.6870952876 2.6500882075 2.617266536 4.7123889804 4.7123889804 4.7123889804 4.7123889804 4.7123889804 4.7123889804 
4.7123889804 4.7123889804 4.7123889804 4.6087898617 4.4991390697 4.3857031936 4.2712800401 4.1588146215 4.0509635631 
3.94975894 3.8564636551 3.7716124825 4.8159880991 4.9256388911 5.0390747672 5.1534979207 5.2659633393 5.3738143976 
5.4750190208 5.5683143056 5.6531654782 4.6087898617 4.4991390697 4.3857031936 4.2712800401 4.1588146215 4.0509635631 
3.94975894 3.8564636551 3.7716124825 4.8159880991 4.9256388911 5.0390747672 5.1534979207 5.2659633393 5.3738143976 
5.4750190208 5.5683143056 5.6531654782 1.5707963268 1.5707963268 1.5707963268 1.5707963268 1.5707963268 1.5707963268 
1.5707963268 1.5707963268 1.5707963268 1.6743954455 1.7840462375 1.8974821136 2.0119052671 2.1243706857 2.232221744 
2.3334263672 2.426721652 2.5115728246 1.4671972081 1.3575464161 1.24411054 1.1296873865 1.0172219679 0.90937090954 
0.80816628637 0.71487100155 0.63001982895 1.6743954455 1.7840462375 1.8974821136 2.0119052671 2.1243706857 2.232221744 
2.3334263672 2.426721652 2.5115728246 1.4671972081 1.3575464161 1.24411054 1.1296873865 1.0172219679 0.90937090954 
0.80816628637 0.71487100155 0.63001982895 3.6007720849 3.4966939854 3.3839471039 3.2645756454 3.1415926536 3.0186096618 
2.8992382033 2.7864913217 2.6824132222 5.8240058758 5.9280839753 6.0408308569 6.1602023154 6.2831853072 0.12298299178 
0.2423544503 0.35510133185 0.45917943135 6.0560271438 5.7885595667 5.9702140275 5.5125918794 5.6029703303 5.7885595667 
5.2659633393 5.2659633393 5.2659633393 5.2659633393 5.0674903122 5.0120975802 4.9155579264 4.7123889804 4.1588146215 
4.9155579264 4.8353719722 4.7123889804 4.5092200343 4.1588146215 3.6362183941 4.8004512023 4.7123889804 4.5894059886 
4.4126803806 4.1588146215 3.8218076305 3.4545639333 4.7123889804 4.6243267584 4.5092200343 4.3572876485 4.1588146215 
3.9121860814 3.6362183941 3.368750817 6.0174235957 5.9434319871 5.8263323547 5.8809213739 5.7674481418 5.6279784266 
5.8278025282 5.718968232 5.5891129425 5.4372443565 5.7823484065 5.678536687 5.5575666702 5.4192596322 5.2659633393 
5.743164462 5.6444075337 5.5314983644 5.4046708639 5.2659633393 5.1195510325 5.7091357773 5.6152775188 5.5096229709 
5.3926039573 5.2659633393 5.1329233157 4.9978930058 5.6793730533 5.5901633916 5.4910209005 5.3824597928 5.2659633393 
5.1440684722 5.0201624502 4.8979782167 5.5683143056 5.4750190208 5.4750190208 5.3738143976 5.3738143976 5.3738143976 
5.2659633393 5.2659633393 5.2659633393 5.2659633393 5.1534979207 5.1534979207 5.1534979207 5.1534979207 5.1534979207 
5.0390747672 5.0390747672 5.0390747672 5.0390747672 5.0390747672 5.0390747672 4.9256388911 4.9256388911 4.9256388911 
4.9256388911 4.9256388911 4.9256388911 4.9256388911 4.8159880991 4.8159880991 4.8159880991 4.8159880991 4.8159880991 
4.8159880991 4.8159880991 4.8159880991 4.6087898617 4.6087898617 4.4991390697 4.6087898617 4.4991390697 4.3857031936 
4.6087898617 4.4991390697 4.3857031936 4.2712800401 4.6087898617 4.4991390697 4.3857031936 4.2712800401 4.1588146215 
4.6087898617 4.4991390697 4.3857031936 4.2712800401 4.1588146215 4.0509635631 4.6087898617 4.4991390697 4.3857031936 
4.2712800401 4.1588146215 4.0509635631 3.94975894 4.6087898617 4.4991390697 4.3857031936 4.2712800401 4.1588146215 
4.0509635631 3.94975894 3.8564636551 4.526799744 4.4046155105 4.426884955 4.2807094886 4.2918546451 4.3052269283 
4.1588146215 4.1588146215 4.1588146215 4.1588146215 4.042318168 4.0321740035 4.0201070968 4.0055183285 3.9875336042 
3.9337570603 3.9151549899 3.8932795963 3.8672112905 3.8356650183 3.7967995342 3.8346145692 3.809500442 3.7803704271 
3.7462412737 3.7058097288 3.657329819 3.5984456061 3.7454049075 3.7156421835 3.6816134988 3.6424295543 3.5969754326 
3.5438565869 3.4813459737 3.4073543651 3.5642842451 3.4524645613 3.5233842518 3.3320300872 3.403123212 3.4773852225 
3.20576226 3.2746326772 3.348015857 3.4255060145 3.0774230472 3.1415926536 3.2112816139 3.2864685043 3.3668817272 
2.95115522 3.00855263 3.0719036933 3.1415926536 3.2178377658 3.3005964304 2.8307207459 2.8800620952 2.9351694502 
2.9967168029 3.0653475414 3.1415926536 3.225752376 2.718901062 2.7598010554 2.8058000847 2.8576792927 2.91630358 
2.9825888767 3.0574329311 3.1415926536 3.5642842451 3.5233842518 3.4524645613 3.4773852225 3.403123212 3.3320300872 
3.4255060145 3.348015857 3.2746326772 3.20576226 3.3668817272 3.2864685043 3.2112816139 3.1415926536 3.0774230472 
3.3005964304 3.2178377658 3.1415926536 3.0719036933 3.00855263 2.95115522 3.225752376 3.1415926536 3.0653475414 
2.9967168029 2.9351694502 2.8800620952 2.8307207459 3.1415926536 3.0574329311 2.9825888767 2.91630358 2.8576792927 
2.8058000847 2.7598010554 2.718901062 4.526799744 4.426884955 4.4046155105 4.3052269283 4.2918546451 4.2807094886 
4.1588146215 4.1588146215 4.1588146215 4.1588146215 3.9875336042 4.0055183285 4.0201070968 4.0321740035 4.042318168 
3.7967995342 3.8356650183 3.8672112905 3.8932795963 3.9151549899 3.9337570603 3.5984456061 3.657329819 3.7058097288 
3.7462412737 3.7803704271 3.809500442 3.8346145692 3.4073543651 3.4813459737 3.5438565869 3.5969754326 3.6424295543 
3.6816134988 3.7156421835 3.7454049075 4.7123889804 4.8004512023 4.6243267584 4.9155579264 4.7123889804 4.5092200343 
5.0674903122 4.8353719722 4.5894059886 4.3572876485 5.2659633393 5.0120975802 4.7123889804 4.4126803806 4.1588146215 
5.5125918794 5.2659633393 4.9155579264 4.5092200343 4.1588146215 3.9121860814 5.7885595667 5.6029703303 5.2659633393 
4.7123889804 4.1588146215 3.8218076305 3.6362183941 6.0560271438 5.9702140275 5.7885595667 5.2659633393 4.1588146215 
3.6362183941 3.4545639333 3.368750817 0.22715816343 0.49462574053 0.3129712797 0.77059342779 0.68021497688 0.49462574053 
1.0172219679 1.0172219679 1.0172219679 1.0172219679 1.2156949949 1.271087727 1.3676273807 1.5707963268 2.1243706857 
1.3676273807 1.447813335 1.5707963268 1.7739652728 2.1243706857 2.6469669131 1.4827341049 1.5707963268 1.6937793186 
1.8705049266 2.1243706857 2.4613776767 2.8286213739 1.5707963268 1.6588585487 1.7739652728 1.9258976586 2.1243706857 
2.3709992258 2.6469669131 2.9144344902 1.7563855631 1.8785697967 1.8563003522 2.0024758186 1.9913306621 1.9779583789 
2.1243706857 2.1243706857 2.1243706857 2.1243706857 2.2408671392 2.2510113037 2.2630782103 2.2776669786 2.295651703 
2.3494282469 2.3680303173 2.3899057108 2.4159740166 2.4475202889 2.486385773 2.448570738 2.4736848652 2.5028148801 
2.5369440334 2.5773755784 2.6258554882 2.6847397011 2.5377803997 2.5675431237 2.6015718084 2.6407557529 2.6862098746 
2.7393287203 2.8018393335 2.8758309421 1.6743954455 1.6743954455 1.7840462375 1.6743954455 1.7840462375 1.8974821136 
1.6743954455 1.7840462375 1.8974821136 2.0119052671 1.6743954455 1.7840462375 1.8974821136 2.0119052671 2.1243706857 
1.6743954455 1.7840462375 1.8974821136 2.0119052671 2.1243706857 2.232221744 1.6743954455 1.7840462375 1.8974821136 
2.0119052671 2.1243706857 2.232221744 2.3334263672 1.6743954455 1.7840462375 1.8974821136 2.0119052671 2.1243706857 
2.232221744 2.3334263672 2.426721652 1.4671972081 1.3575464161 1.4671972081 1.24411054 1.3575464161 1.4671972081 
1.1296873865 1.24411054 1.3575464161 1.4671972081 1.0172219679 1.1296873865 1.24411054 1.3575464161 1.4671972081 
0.90937090954 1.0172219679 1.1296873865 1.24411054 1.3575464161 1.4671972081 0.80816628637 0.90937090954 1.0172219679 
1.1296873865 1.24411054 1.3575464161 1.4671972081 0.71487100155 0.80816628637 0.90937090954 1.0172219679 1.1296873865 
1.24411054 1.3575464161 1.4671972081 0.60381225391 0.57404952988 0.69302191562 0.54002084522 0.66790778838 0.79216440667 
0.50083690068 0.63877777351 0.77356233629 0.90072551443 0.45538277901 0.60464862014 0.75168694275 0.89058134991 1.0172219679 
0.40226393329 0.56421707518 0.72561863695 0.87851444325 1.0172219679 1.139116835 0.33975332011 0.51573716537 0.69407236469 
0.86392567495 1.0172219679 1.1502619915 1.2630228569 0.26576171152 0.45685295248 0.6552068806 0.84594095064 1.0172219679 
1.1636342747 1.2852923014 1.3852070904 0.22715816343 0.3129712797 0.49462574053 0.49462574053 0.68021497688 0.77059342779 
1.0172219679 1.0172219679 1.0172219679 1.0172219679 2.1243706857 1.5707963268 1.3676273807 1.271087727 1.2156949949 
2.6469669131 2.1243706857 1.7739652728 1.5707963268 1.447813335 1.3676273807 2.8286213739 2.4613776767 2.1243706857 
1.8705049266 1.6937793186 1.5707963268 1.4827341049 2.9144344902 2.6469669131 2.3709992258 2.1243706857 1.9258976586 
1.7739652728 1.6588585487 1.5707963268 1.7563855631 1.8563003522 1.8785697967 1.9779583789 1.9913306621 2.0024758186 
2.1243706857 2.1243706857 2.1243706857 2.1243706857 2.295651703 2.2776669786 2.2630782103 2.2510113037 2.2408671392 
2.486385773 2.4475202889 2.4159740166 2.3899057108 2.3680303173 2.3494282469 2.6847397011 2.6258554882 2.5773755784 
2.5369440334 2.5028148801 2.4736848652 2.448570738 2.8758309421 2.8018393335 2.7393287203 2.6862098746 2.6407557529 
2.6015718084 2.5675431237 2.5377803997 5.8604937156 5.901393709 5.9723133995 5.9473927383 6.0216547488 6.0927478736 
5.9992719463 6.0767621038 6.1501452836 6.2190157008 6.0578962336 6.1383094565 6.2134963469 0 0.064169606361 
6.1241815303 6.206940195 6.2831853072 0.069688960264 0.13304002361 0.19043743361 6.1990255847 0 0.07624511221 
0.14487585072 0.20642320337 0.26153055843 0.3108719077 0 0.084159722458 0.15900377685 0.22528907359 0.28391336087 
0.3357925689 0.38179159818 0.42269159155 5.8604937156 5.9723133995 5.901393709 6.0927478736 6.0216547488 5.9473927383 
6.2190157008 6.1501452836 6.0767621038 5.9992719463 0.064169606361 0 6.2134963469 6.1383094565 6.0578962336 
0.19043743361 0.13304002361 0.069688960264 6.2831853072 6.206940195 6.1241815303 0.3108719077 0.26153055843 0.20642320337 
0.14487585072 0.07624511221 6.2831853072 6.1990255847 0.42269159155 0.38179159818 0.3357925689 0.28391336087 0.22528907359 
0.15900377685 0.084159722458 0 5.6793730533 5.7091357773 5.5901633916 5.743164462 5.6152775188 5.4910209005 
5.7823484065 5.6444075337 5.5096229709 5.3824597928 5.8278025282 5.678536687 5.5314983644 5.3926039573 5.2659633393 
5.8809213739 5.718968232 5.5575666702 5.4046708639 5.2659633393 5.1440684722 5.9434319871 5.7674481418 5.5891129425 
5.4192596322 5.2659633393 5.1329233157 5.0201624502 6.0174235957 5.8263323547 5.6279784266 5.4372443565 5.2659633393 
5.1195510325 4.9978930058 4.8979782167 1.3852070904 1.2852923014 1.2630228569 1.1636342747 1.1502619915 1.139116835 
1.0172219679 1.0172219679 1.0172219679 1.0172219679 0.84594095064 0.86392567495 0.87851444325 0.89058134991 0.90072551443 
0.6552068806 0.69407236469 0.72561863695 0.75168694275 0.77356233629 0.79216440667 0.45685295248 0.51573716537 0.56421707518 
0.60464862014 0.63877777351 0.66790778838 0.69302191562 0.26576171152 0.33975332011 0.40226393329 0.45538277901 0.50083690068 
0.54002084522 0.57404952988 0.60381225391 
_paraPhiHalf 1 1002 double
0 3.1415926536 0 3.1415926536 1.5707963268 1.5707963268 1.5707963268 1.5707963268 2.5880182947 
0.5535743589 2.5880182947 0.5535743589 0 0 0 0 3.1415926536 3.1415926536 
3.1415926536 3.1415926536 3.1415926536 0.17788134 0.38438696014 0.60631181711 0.82323535693 1.0172219679 1.1799687454 
1.3118704726 1.4175000338 1.5022335207 0.17788134 0.38438696014 0.60631181711 0.82323535693 1.0172219679 1.1799687454 
1.3118704726 1.4175000338 1.5022335207 0.093902416448 0.17615329733 0.2478725152 0.31035131605 0.36486382811 0.41257334776 
0.45449736604 0.4915044461 0.52432611754 0.093902416448 0.17615329733 0.2478725152 0.31035131605 0.36486382811 0.41257334776 
0.45449736604 0.4915044461 0.52432611754 2.9637113136 2.7572056934 2.5352808365 2.3183572967 2.1243706857 1.9616239082 
1.829722181 1.7240926197 1.6393591329 2.9637113136 2.7572056934 2.5352808365 2.3183572967 2.1243706857 1.9616239082 
1.829722181 1.7240926197 1.6393591329 3.0476902371 2.9654393563 2.8937201384 2.8312413375 2.7767288255 2.7290193058 
2.6870952876 2.6500882075 2.617266536 3.0476902371 2.9654393563 2.8937201384 2.8312413375 2.7767288255 2.7290193058 
2.6870952876 2.6500882075 2.617266536 0 0 0 0 3.1415926536 3.1415926536 
3.1415926536 3.1415926536 3.1415926536 0.17788134 0.38438696014 0.60631181711 0.82323535693 1.0172219679 1.1799687454 
1.3118704726 1.4175000338 1.5022335207 0.17788134 0.38438696014 0.60631181711 0.82323535693 1.0172219679 1.1799687454 
1.3118704726 1.4175000338 1.5022335207 0.093902416448 0.17615329733 0.2478725152 0.31035131605 0.36486382811 0.41257334776 
0.45449736604 0.4915044461 0.52432611754 0.093902416448 0.17615329733 0.2478725152 0.31035131605 0.36486382811 0.41257334776 
0.45449736604 0.4915044461 0.52432611754 2.9637113136 2.7572056934 2.5352808365 2.3183572967 2.1243706857 1.9616239082 
1.829722181 1.7240926197 1.6393591329 2.9637113136 2.7572056934 2.5352808365 2.3183572967 2.1243706857 1.9616239082 
1.829722181 1.7240926197 1.6393591329 3.0476902371 2.9654393563 2.8937201384 2.8312413375 2.7767288255 2.7290193058 
2.6870952876 2.6500882075 2.617266536 3.0476902371 2.9654393563 2.8937201384 2.8312413375 2.7767288255 2.7290193058 
2.6870952876 2.6500882075 2.617266536 1.5707963268 1.5707963268 1.5707963268 1.5707963268 1.5707963268 1.5707963268 
1.5707963268 1.5707963268 1.5707963268 1.6743954455 1.7840462375 1.8974821136 2.0119052671 2.1243706857 2.232221744 
2.3334263672 2.426721652 2.5115728246 1.4671972081 1.3575464161 1.24411054 1.1296873865 1.0172219679 0.90937090954 
0.80816628637 0.71487100155 0.63001982895 1.6743954455 1.7840462375 1.8974821136 2.0119052671 2.1243706857 2.232221744 
2.3334263672 2.426721652 2.5115728246 1.4671972081 1.3575464161 1.24411054 1.1296873865 1.0172219679 0.90937090954 
0.80816628637 0.71487100155 0.63001982895 1.5707963268 1.5707963268 1.5707963268 1.5707963268 1.5707963268 1.5707963268 
1.5707963268 1.5707963268 1.5707963268 1.6743954455 1.7840462375 1.8974821136 2.0119052671 2.1243706857 2.232221744 
2.3334263672 2.426721652 2.5115728246 1.4671972081 1.3575464161 1.24411054 1.1296873865 1.0172219679 0.90937090954 
0.80816628637 0.71487100155 0.63001982895 1.6743954455 1.7840462375 1.8974821136 2.0119052671 2.1243706857 2.232221744 
2.3334263672 2.426721652 2.5115728246 1.4671972081 1.3575464161 1.24411054 1.1296873865 1.0172219679 0.90937090954 
0.80816628637 0.71487100155 0.63001982895 2.6824132222 2.7864913217 2.8992382033 3.0186096618 3.1415926536 3.0186096618 
2.8992382033 2.7864913217 2.6824132222 0.45917943135 0.35510133185 0.2423544503 0.12298299178 0 0.12298299178 
0.2423544503 0.35510133185 0.45917943135 0.22715816343 0.49462574053 0.3129712797 0.77059342779 0.68021497688 0.49462574053 
1.0172219679 1.0172219679 1.0172219679 1.0172219679 1.2156949949 1.271087727 1.3676273807 1.5707963268 2.1243706857 
1.3676273807 1.447813335 1.5707963268 1.7739652728 2.1243706857 2.6469669131 1.4827341049 1.5707963268 1.6937793186 
1.8705049266 2.1243706857 2.4613776767 2.8286213739 1.5707963268 1.6588585487 1.7739652728 1.9258976586 2.1243706857 
2.3709992258 2.6469669131 2.9144344902 0.26576171152 0.33975332011 0.45685295248 0.40226393329 0.51573716537 0.6552068806 
0.45538277901 0.56421707518 0.69407236469 0.84594095064 0.50083690068 0.60464862014 0.72561863695 0.86392567495 1.0172219679 
0.54002084522 0.63877777351 0.75168694275 0.87851444325 1.0172219679 1.1636342747 0.57404952988 0.66790778838 0.77356233629 
0.89058134991 1.0172219679 1.1502619915 1.2852923014 0.60381225391 0.69302191562 0.79216440667 0.90072551443 1.0172219679 
1.139116835 1.2630228569 1.3852070904 0.71487100155 0.80816628637 0.80816628637 0.90937090954 0.90937090954 0.90937090954 
1.0172219679 1.0172219679 1.0172219679 1.0172219679 1.1296873865 1.1296873865 1.1296873865 1.1296873865 1.1296873865 
1.24411054 1.24411054 1.24411054 1.24411054 1.24411054 1.24411054 1.3575464161 1.3575464161 1.3575464161 
1.3575464161 1.3575464161 1.3575464161 1.3575464161 1.4671972081 1.4671972081 1.4671972081 1.4671972081 1.4671972081 
1.4671972081 1.4671972081 1.4671972081 1.6743954455 1.6743954455 1.7840462375 1.6743954455 1.7840462375 1.8974821136 
1.6743954455 1.7840462375 1.8974821136 2.0119052671 1.6743954455 1.7840462375 1.8974821136 2.0119052671 2.1243706857 
1.6743954455 1.7840462375 1.8974821136 2.0119052671 2.1243706857 2.232221744 1.6743954455 1.7840462375 1.8974821136 
2.0119052671 2.1243706857 2.232221744 2.3334263672 1.6743954455 1.7840462375 1.8974821136 2.0119052671 2.1243706857 
2.232221744 2.3334263672 2.426721652 1.7563855631 1.8785697967 1.8563003522 2.0024758186 1.9913306621 1.9779583789 
2.1243706857 2.1243706857 2.1243706857 2.1243706857 2.2408671392 2.2510113037 2.2630782103 2.2776669786 2.295651703 
2.3494282469 2.3680303173 2.3899057108 2.4159740166 2.4475202889 2.486385773 2.448570738 2.4736848652 2.5028148801 
2.5369440334 2.5773755784 2.6258554882 2.6847397011 2.5377803997 2.5675431237 2.6015718084 2.6407557529 2.6862098746 
2.7393287203 2.8018393335 2.8758309421 2.718901062 2.8307207459 2.7598010554 2.95115522 2.8800620952 2.8058000847 
3.0774230472 3.00855263 2.9351694502 2.8576792927 3.0774230472 3.1415926536 3.0719036933 2.9967168029 2.91630358 
2.95115522 3.00855263 3.0719036933 3.1415926536 3.0653475414 2.9825888767 2.8307207459 2.8800620952 2.9351694502 
2.9967168029 3.0653475414 3.1415926536 3.0574329311 2.718901062 2.7598010554 2.8058000847 2.8576792927 2.91630358 
2.9825888767 3.0574329311 3.1415926536 2.718901062 2.7598010554 2.8307207459 2.8058000847 2.8800620952 2.95115522 
2.8576792927 2.9351694502 3.00855263 3.0774230472 2.91630358 2.9967168029 3.0719036933 3.1415926536 3.0774230472 
2.9825888767 3.0653475414 3.1415926536 3.0719036933 3.00855263 2.95115522 3.0574329311 3.1415926536 3.0653475414 