# vtk DataFile Version 4.2
vtk output
ASCII
DATASET POLYDATA
POINTS 1002 float
-18.3833 0.646283 -6.63911 17.9719 -0.0195584 -7.14156 -19.5759 0.72729 3.47218 
18.6148 -0.431037 6.54698 0.941116 12.7819 -4.01237 2.16928 13.9976 4.77954 
3.34477 -5.20396 -3.59775 3.15266 -3.0161 2.3631 28.8506 7.22162 0.0541144 
-31.7434 3.48731 0.557525 28.3006 -14.4696 0.425253 -31.9195 -15.6203 2.08687 
-15.3648 1.34581 -6.78553 -11.886 2.05221 -6.84592 -8.00269 2.68333 -6.77783 
-3.75192 3.08832 -6.5436 0.751033 3.15281 -6.29119 5.16104 2.86957 -6.29443 
9.09879 2.2903 -6.58652 12.4751 1.51137 -6.91626 15.4095 0.692471 -7.09564 
-17.405 1.90796 -6.80648 -16.1179 3.33423 -6.84926 -14.5376 4.87188 -6.77509 
-12.7 6.41719 -6.58892 -10.6166 7.8535 -6.25722 -8.32595 9.13232 -5.80548 
-5.9363 10.2743 -5.34286 -3.55529 11.2832 -4.91701 -1.24602 12.1256 -4.48233 
-17.3579 -0.0898024 -6.49273 -16.0395 -0.758094 -6.28374 -14.4348 -1.30634 -6.06653 
-12.5132 -1.76145 -5.83268 -10.2106 -2.18523 -5.483 -7.55579 -2.57428 -4.98984 
-4.70811 -2.94996 -4.4952 -1.84237 -3.46039 -4.13095 0.893375 -4.22719 -3.86727 
-20.6588 0.690049 -6.52716 -22.8848 0.75457 -6.25907 -24.9733 0.894768 -5.83142 
-26.9091 1.20661 -5.31426 -28.6693 1.70461 -4.72802 -30.1262 2.25347 -3.97579 
-31.1494 2.69663 -2.97797 -31.731 3.00067 -1.79003 -31.9209 3.23687 -0.560681 
-20.6452 -0.590045 -6.30481 -22.9439 -2.03181 -5.79441 -25.2353 -3.72971 -5.10943 
-27.3939 -5.64611 -4.27453 -29.2423 -7.63245 -3.34599 -30.7051 -9.61765 -2.388 
-31.7761 -11.6501 -1.38202 -32.3619 -13.5883 -0.247513 -32.3773 -15.0198 0.977341 
16.9755 1.48011 -7.19876 15.7155 3.14612 -7.1232 14.2626 4.89272 -6.91843 
12.6556 6.58588 -6.5859 10.8551 8.08811 -6.11605 8.86513 9.36158 -5.56302 
6.80419 10.4693 -5.05293 4.77799 11.4366 -4.65295 2.81379 12.2152 -4.32329 
17.2401 -1.01829 -6.98982 16.2651 -1.96707 -6.79624 15.0704 -2.84207 -6.58033 
13.6822 -3.63632 -6.33647 12.106 -4.31294 -6.01789 10.3848 -4.79728 -5.57279 
8.61518 -5.05629 -5.02347 6.85977 -5.15037 -4.46677 5.10919 -5.17699 -3.98468 
19.8449 0.299097 -7.2232 21.7058 0.802906 -7.28065 23.5011 1.48302 -7.22838 
25.2954 2.31881 -6.9491 27.1277 3.2805 -6.34909 28.7503 4.27978 -5.39629 
29.7494 5.195 -4.1476 29.9616 5.9774 -2.73458 29.5689 6.6496 -1.2982 
19.973 -1.31608 -7.00795 21.9037 -2.67018 -6.7265 23.6864 -4.09305 -6.27814 
25.2957 -5.64432 -5.6408 26.6334 -7.33207 -4.78824 27.5505 -9.03234 -3.73162 
28.0742 -10.5887 -2.58535 28.3669 -11.9719 -1.5068 28.4677 -13.2564 -0.534053 
-16.5181 1.79902 3.28411 -12.834 2.80519 3.32015 -8.56958 3.67327 3.65897 
-3.84023 4.28999 4.32956 1.19031 4.44534 5.2737 6.18456 3.9865 6.2974 
10.606 3.02995 7.06901 14.072 1.8602 7.31773 16.6377 0.680508 7.06153 
-18.3341 2.0181 3.62439 -16.7367 3.46461 3.79658 -14.7843 5.06017 3.99201 
-12.5498 6.7814 4.20573 -10.1176 8.53753 4.4552 -7.53602 10.1725 4.74518 
-4.87894 11.5485 4.99052 -2.2932 12.6158 5.07488 0.0770316 13.4086 4.98035 
-18.7988 0.18859 3.13182 -17.6969 -0.318941 2.73583 -16.2802 -0.731969 2.29049 
-14.5312 -1.00584 1.85121 -12.3459 -1.15818 1.50703 -9.61836 -1.18952 1.3023 
-6.39959 -1.12731 1.24103 -2.95668 -1.21754 1.37417 0.331747 -1.81051 1.76379 
-21.6216 0.395362 3.90571 -23.5531 0.164714 4.47443 -25.3905 0.203184 5.09783 
-27.1898 0.529246 5.5578 -28.9458 0.943465 5.58498 -30.5424 1.25556 5.09282 
-31.7563 1.5289 4.21989 -32.3633 1.97323 3.11685 -32.3104 2.66591 1.86287 
-21.9625 -0.797408 3.601 -24.3363 -2.5368 3.82408 -26.5839 -4.45785 4.10864 
-28.5141 -6.49577 4.44903 -29.9667 -8.60205 4.89614 -30.9683 -10.7857 5.37911 
-31.6548 -12.9437 5.5228 -32.0692 -14.6947 4.93413 -32.1624 -15.6186 3.64951 
17.9208 1.36094 6.96619 17.0206 3.23395 7.44926 15.7693 5.22572 7.80966 
14.0503 7.23581 7.81176 11.9824 9.00507 7.43001 9.8638 10.4243 6.90013 
7.84854 11.6223 6.41158 5.89028 12.6638 5.93433 3.97079 13.4682 5.38692 
18.0639 -1.58036 6.52951 17.3416 -2.76487 6.4843 16.4028 -3.843 6.41734 
15.2184 -4.68417 6.443 13.7393 -5.19207 6.58889 11.9129 -5.25543 6.55259 
9.79793 -4.8445 5.95959 7.56234 -4.15104 4.83187 5.33353 -3.47499 3.52874 
20.0432 -0.367001 6.1738 21.5128 -0.194534 5.74186 22.9729 0.14367 5.27462 
24.3638 0.724551 4.79124 25.6253 1.63472 4.333 26.6819 2.89021 3.88208 
27.5024 4.3175 3.2854 28.1358 5.6195 2.39731 28.6067 6.59398 1.25859 
20.1457 -2.33037 5.9916 21.8069 -4.47675 5.57768 23.5565 -6.70797 5.43467 
25.2407 -8.9124 5.54916 26.7604 -11.108 5.70205 28.1006 -13.1691 5.48843 
29.0998 -14.6537 4.59847 29.4647 -15.224 3.16646 29.1175 -15.0256 1.6557 
1.17694 13.4329 -3.46494 1.52344 14.1226 -2.82103 1.98528 14.8469 -2.0927 
2.51185 15.496 -1.18792 2.94344 15.8827 -0.0100478 3.08734 15.8971 1.31777 
2.92044 15.5933 2.52004 2.61718 15.1106 3.4623 2.3509 14.5622 4.19334 
4.30201 12.9627 -3.72205 7.89635 12.9491 -3.47803 11.6305 12.8171 -3.32663 
15.3001 12.6193 -3.19924 18.667 12.2112 -2.93795 21.6698 11.4434 -2.48322 
24.3272 10.4508 -1.91014 26.4879 9.44624 -1.27579 27.9756 8.41356 -0.600201 
-2.39235 12.8028 -4.01896 -6.10349 12.6538 -4.06178 -10.0336 12.4225 -4.1418 
-14.0306 12.0315 -4.16486 -17.9679 11.1815 -3.94195 -21.6624 9.80531 -3.38716 
-24.916 8.23204 -2.57959 -27.6628 6.68686 -1.60644 -29.9357 5.11158 -0.528924 
5.27031 14.1714 4.91762 8.52733 14.1756 5.00733 11.879 14.0122 4.96486 
15.1759 13.6507 4.6657 18.2365 13.0359 4.09278 21.003 12.1624 3.3848 
23.5074 11.0856 2.64836 25.6975 9.86344 1.85467 27.476 8.55148 0.971623 
-0.973613 13.9669 4.25657 -4.59352 13.6783 3.66096 -8.72587 13.139 3.04517 
-13.2579 12.2963 2.47066 -17.8123 11.0516 1.99814 -21.9211 9.47096 1.66644 
-25.3365 7.81008 1.43824 -28.0612 6.25303 1.21071 -30.1731 4.81672 0.914029 
3.65568 -5.85167 -3.10002 3.95116 -6.39166 -2.35525 4.16817 -6.6946 -1.39132 
4.23137 -6.65825 -0.390125 4.12364 -6.30043 0.448092 3.92951 -5.7632 1.07091 
3.74411 -5.16036 1.52851 3.57355 -4.49177 1.86507 3.37839 -3.75292 2.12498 
6.61121 -6.48036 -3.5366 9.55611 -8.09376 -3.4556 12.2127 -9.60432 -3.19955 
14.8922 -10.752 -2.67775 17.6985 -11.7427 -2.00313 20.2826 -12.8217 -1.40523 
22.4096 -13.8034 -0.988558 24.338 -14.3824 -0.646158 26.3416 -14.5497 -0.201188 
-0.233364 -4.8072 -3.52749 -4.57891 -4.98317 -3.64002 -9.36899 -5.80178 -3.8083 
-14.115 -7.07113 -3.78009 -18.4787 -8.55503 -3.39437 -22.3568 -10.1786 -2.70886 
-25.6858 -11.9071 -1.8333 -28.3773 -13.5572 -0.752162 -30.4239 -14.8569 0.581514 
6.8057 -5.30767 3.81793 9.85086 -8.43821 5.20853 12.3924 -11.3276 5.91547 
14.9086 -13.2612 5.73623 17.5848 -14.6545 5.04852 20.1446 -16.0292 4.18755 
22.4444 -16.929 3.15173 24.6107 -16.762 2.02989 26.6285 -15.744 1.0862 
-1.02146 -2.29353 1.04232 -5.88264 -2.83304 0.184569 -10.7909 -4.4701 -0.128866 
-15.1874 -6.44117 -0.0884624 -19.0455 -8.22236 0.146365 -22.5604 -9.99781 0.582649 
-25.6756 -11.9806 1.1631 -28.2507 -13.8503 1.68922 -30.3071 -15.1248 2.00633 
29.9652 5.37797 -0.158365 31.1242 3.09267 -0.383429 32.3692 0.559365 -0.505261 
33.3815 -2.05436 -0.412718 33.7333 -4.84618 -0.0774444 33.4567 -7.78582 0.374601 
32.836 -10.3725 0.695824 31.8244 -12.2186 0.732923 30.2573 -13.4861 0.575868 
-33.4635 1.56755 1.01559 -34.9102 -0.52502 1.55854 -35.9512 -2.66145 2.2467 
-36.607 -5.00709 3.13206 -36.9376 -7.86585 4.07246 -36.851 -10.9951 4.68314 
-36.194 -13.5985 4.64891 -35.0128 -15.1567 4.01211 -33.5295 -15.7356 3.06438 
-14.1077 2.65651 -6.89559 -12.5545 4.10415 -6.86805 -10.3625 3.36196 -6.88268 
-10.7562 5.61185 -6.7257 -8.59242 4.77522 -6.78837 -6.23901 3.91508 -6.73783 
-8.72418 7.07104 -6.45757 -6.60786 6.21533 -6.58907 -4.26849 5.24638 -6.59965 
-1.7583 4.18862 -6.48141 -6.43391 8.39293 -6.04113 -4.36342 7.56489 -6.2574 
-2.08671 6.59579 -6.38322 0.38412 5.41703 -6.38154 2.87907 4.12583 -6.32469 
-3.98025 9.56763 -5.56318 -1.89583 8.74232 -5.80922 0.311424 7.80547 -6.06361 
2.64896 6.6487 -6.24818 5.01646 5.24006 -6.35951 7.21543 3.73857 -6.46782 
-1.5601 10.6152 -5.13435 0.55477 9.7673 -5.36879 2.73622 8.80838 -5.68676 
4.94606 7.70459 -6.05261 7.11599 6.33345 -6.36713 9.14999 4.72881 -6.60881 
10.956 3.07564 -6.79907 0.708964 11.5106 -4.74171 2.78096 10.6731 -5.00174 
4.91892 9.67842 -5.34797 7.05988 8.57399 -5.8134 9.0999 7.27216 -6.29254 
10.9706 5.70241 -6.66846 12.668 3.97328 -6.92394 14.1672 2.26417 -7.06987 
-19.6703 2.11261 -6.67961 -21.8647 2.36331 -6.39544 -18.3394 3.72015 -6.70723 
-23.9003 2.69867 -5.94521 -20.4855 4.15556 -6.41678 -16.6638 5.43316 -6.61873 
-25.7537 3.14793 -5.37546 -22.4434 4.61092 -5.94165 -18.6953 6.00047 -6.31232 
-14.6586 7.09865 -6.38847 -27.3658 3.67528 -4.70607 -24.1497 5.06352 -5.30798 
-20.495 6.48981 -5.79992 -16.5027 7.73192 -6.03792 -12.384 8.59015 -5.98951 
-28.61 4.19241 -3.89002 -25.544 5.54066 -4.57484 -22.0042 6.93192 -5.12966 
-18.1192 8.27618 -5.50944 -14.0615 9.27342 -5.60668 -9.95363 9.89312 -5.50005 
-29.4291 4.61405 -2.87982 -26.584 6.03498 -3.7389 -23.2313 7.42942 -4.39575 
-19.4934 8.83099 -4.88116 -15.5559 9.93714 -5.11706 -11.5155 10.615 -5.11407 
-7.44827 11.0348 -5.01693 -29.8623 4.9071 -1.71371 -27.2872 6.44072 -2.74083 
-24.2059 7.91743 -3.57267 -20.6721 9.40348 -4.20312 -16.8486 10.6248 -4.57484 
-12.8875 11.3453 -4.66425 -8.86002 11.7393 -4.60479 -4.90336 12.0091 -4.53402 
-28.1837 6.46122 -0.149187 -25.9119 7.91576 0.231727 -25.7226 8.10783 -1.2197 
-22.9354 9.51316 0.628861 -23.2093 9.63959 -0.759791 -22.6824 9.8112 -2.21795 
-19.0326 11.1701 1.09834 -19.7522 11.2342 -0.184574 -19.6767 11.3728 -1.6995 
-18.9596 11.4332 -3.03022 -14.2886 12.6108 1.67248 -15.1384 12.728 0.52695 
-15.481 12.7744 -0.958149 -15.2687 12.7889 -2.41938 -14.7217 12.5681 -3.49023 
-9.30213 13.6147 2.31419 -9.86059 13.9039 1.31467 -10.2717 13.9663 -0.0425522 
-10.4729 13.8797 -1.5325 -10.5 13.6155 -2.75511 -10.3643 13.0998 -3.57674 
-4.75757 14.2106 2.96897 -4.88224 14.6583 2.08493 -5.02399 14.8896 0.894895 
-5.27368 14.8478 -0.520835 -5.64801 14.5436 -1.82678 -6.01234 14.0092 -2.79669 
-6.18699 13.3392 -3.4994 -0.908138 14.5117 3.60515 -0.753688 15.0336 2.8006 
[...]
POINT_DATA 1002
FIELD FieldData 4
_paraPhi 1 1002 double
6.2831853072 3.1415926536 6.2831853072 3.1415926536 4.7123889804 4.7123889804 1.5707963268 1.5707963268 3.6951670125 
5.7296109483 2.5880182947 0.5535743589 6.2831853072 6.2831853072 6.2831853072 6.2831853072 3.1415926536 3.1415926536 
3.1415926536 3.1415926536 3.1415926536 6.1053039672 5.898798347 5.6768734901 5.4599499503 5.2659633393 5.1032165617 
4.9713148346 4.8656852733 4.7809517865 0.17788134 0.38438696014 0.60631181711 0.82323535693 1.0172219679 1.1799687454 
1.3118704726 1.4175000338 1.5022335207 6.1892828907 6.1070320098 6.035312792 5.9728339911 5.9183214791 5.8706119594 
5.8286879411 5.7916808611 5.7588591896 0.093902416448 0.17615329733 0.2478725152 0.31035131605 0.36486382811 0.41257334776 
0.45449736604 0.4915044461 0.52432611754 3.3194739936 3.5259796137 3.7479044707 3.9648280105 4.1588146215 4.321561399 
4.4534631262 4.5590926874 4.6438261743 2.9637113136 2.7572056934 2.5352808365 2.3183572967 2.1243706857 1.9616239082 
1.829722181 1.7240926197 1.6393591329 3.23549507 3.3177459509 3.3894651688 3.4519439696 3.5064564817 3.5541660013 
3.5960900196 3.6330970997 3.6659187711 3.0476902371 2.9654393563 2.8937201384 2.8312413375 2.7767288255 2.7290193058 
2.6870952876 2.6500882075 2.617266536 6.2831853072 6.2831853072 6.2831853072 6.2831853072 3.1415926536 3.1415926536 
3.1415926536 3.1415926536 3.1415926536 6.1053039672 5.898798347 5.6768734901 5.4599499503 5.2659633393 5.1032165617 
4.9713148346 4.8656852733 4.7809517865 0.17788134 0.38438696014 0.60631181711 0.82323535693 1.0172219679 1.1799687454 
1.3118704726 1.4175000338 1.5022335207 6.1892828907 6.1070320098 6.035312792 5.9728339911 5.9183214791 5.8706119594 
5.8286879411 5.7916808611 5.7588591896 0.093902416448 0.17615329733 0.2478725152 0.31035131605 0.36486382811 0.41257334776 
0.45449736604 0.4915044461 0.52432611754 3.3194739936 3.5259796137 3.7479044707 3.9648280105 4.1588146215 4.321561399 
4.4534631262 4.5590926874 4.6438261743 2.9637113136 2.7572056934 2.5352808365 2.3183572967 2.1243706857 1.9616239082 
1.829722181 1.7240926197 1.6393591329 3.23549507 3.3177459509 3.3894651688 3.4519439696 3.5064564817 3.5541660013 
3.5960900196 3.6330970997 3.6659187711 3.0476902371 2.9654393563 2.8937201384 2.8312413375 2.7767288255 2.7290193058 
2.6870952876 2.6500882075 2.617266536 4.7123889804 4.7123889804 4.7123889804 4.7123889804 4.7123889804 4.7123889804 
4.7123889804 4.7123889804 4.7123889804 4.6087898617 4.4991390697 4.3857031936 4.2712800401 4.1588146215 4.0509635631 
3.94975894 3.8564636551 3.7716124825 4.8159880991 4.9256388911 5.0390747672 5.1534979207 5.2659633393 5.3738143976 
5.4750190208 5.5683143056 5.6531654782 4.6087898617 4.4991390697 4.3857031936 4.2712800401 4.1588146215 4.0509635631 
3.94975894 3.8564636551 3.7716124825 4.8159880991 4.9256388911 5.0390747672 5.1534979207 5.2659633393 5.3738143976 
5.4750190208 5.5683143056 5.6531654782 1.5707963268 1.5707963268 1.5707963268 1.5707963268 1.5707963268 1.5707963268 
1.5707963268 1.5707963268 1.5707963268 1.6743954455 1.7840462375 1.8974821136 2.0119052671 2.1243706857 2.232221744 
2.3334263672 2.426721652 2.5115728246 1.4671972081 1.3575464161 1.24411054 1.1296873865 1.0172219679 0.90937090954 
0.80816628637 0.71487100155 0.63001982895 1.6743954455 1.7840462375 1.8974821136 2.0119052671 2.1243706857 2.232221744 
2.3334263672 2.426721652 2.5115728246 1.4671972081 1.3575464161 1.24411054 1.1296873865 1.0172219679 0.90937090954 
0.80816628637 0.71487100155 0.63001982895 3.6007720849 3.4966939854 3.3839471039 3.2645756454 3.1415926536 3.0186096618 
2.8992382033 2.7864913217 2.6824132222 5.8240058758 5.9280839753 6.0408308569 6.1602023154 6.2831853072 0.12298299178 
0.2423544503 0.35510133185 0.45917943135 6.0560271438 5.7885595667 5.9702140275 5.5125918794 5.6029703303 5.7885595667 
5.2659633393 5.2659633393 5.2659633393 5.2659633393 5.0674903122 5.0120975802 4.9155579264 4.7123889804 4.1588146215 
4.9155579264 4.8353719722 4.7123889804 4.5092200343 4.1588146215 3.6362183941 4.8004512023 4.7123889804 4.5894059886 
4.4126803806 4.1588146215 3.8218076305 3.4545639333 4.7123889804 4.6243267584 4.5092200343 4.3572876485 4.1588146215 
3.9121860814 3.6362183941 3.368750817 6.0174235957 5.9434319871 5.8263323547 5.8809213739 5.7674481418 5.6279784266 
5.8278025282 5.718968232 5.5891129425 5.4372443565 5.7823484065 5.678536687 5.5575666702 5.4192596322 5.2659633393 
5.743164462 5.6444075337 5.5314983644 5.4046708639 5.2659633393 5.1195510325 5.7091357773 5.6152775188 5.5096229709 
5.3926039573 5.2659633393 5.1329233157 4.9978930058 5.6793730533 5.5901633916 5.4910209005 5.3824597928 5.2659633393 
5.1440684722 5.0201624502 4.8979782167 5.5683143056 5.4750190208 5.4750190208 5.3738143976 5.3738143976 5.3738143976 
5.2659633393 5.2659633393 5.2659633393 5.2659633393 5.1534979207 5.1534979207 5.1534979207 5.1534979207 5.1534979207 
5.0390747672 5.0390747672 5.0390747672 5.0390747672 5.0390747672 5.0390747672 4.9256388911 4.9256388911 4.9256388911 
4.9256388911 4.9256388911 4.9256388911 4.9256388911 4.8159880991 4.8159880991 4.8159880991 4.8159880991 4.8159880991 
4.8159880991 4.8159880991 4.8159880991 4.6087898617 4.6087898617 4.4991390697 4.6087898617 4.4991390697 4.3857031936 
4.6087898617 4.4991390697 4.3857031936 4.2712800401 4.6087898617 4.4991390697 4.3857031936 4.2712800401 4.1588146215 
4.6087898617 4.4991390697 4.3857031936 4.2712800401 4.1588146215 4.0509635631 4.6087898617 4.4991390697 4.3857031936 
4.2712800401 4.1588146215 4.0509635631 3.94975894 4.6087898617 4.4991390697 4.3857031936 4.2712800401 4.1588146215 
4.0509635631 3.94975894 3.8564636551 4.526799744 4.4046155105 4.426884955 4.2807094886 4.2918546451 4.3052269283 
4.1588146215 4.1588146215 4.1588146215 4.1588146215 4.042318168 4.0321740035 4.0201070968 4.0055183285 3.9875336042 
3.9337570603 3.9151549899 3.8932795963 3.8672112905 3.8356650183 3.7967995342 3.8346145692 3.809500442 3.7803704271 
3.7462412737 3.7058097288 3.657329819 3.5984456061 3.7454049075 3.7156421835 3.6816134988 3.6424295543 3.5969754326 
3.5438565869 3.4813459737 3.4073543651 3.5642842451 3.4524645613 3.5233842518 3.3320300872 3.403123212 3.4773852225 
3.20576226 3.2746326772 3.348015857 3.4255060145 3.0774230472 3.1415926536 3.2112816139 3.2864685043 3.3668817272 
2.95115522 3.00855263 3.0719036933 3.1415926536 3.2178377658 3.3005964304 2.8307207459 2.8800620952 2.9351694502 
2.9967168029 3.0653475414 3.1415926536 3.225752376 2.718901062 2.7598010554 2.8058000847 2.8576792927 2.91630358 
2.9825888767 3.0574329311 3.1415926536 3.5642842451 3.5233842518 3.4524645613 3.4773852225 3.403123212 3.3320300872 
3.4255060145 3.348015857 3.2746326772 3.20576226 3.3668817272 3.2864685043 3.2112816139 3.1415926536 3.0774230472 
3.3005964304 3.2178377658 3.1415926536 3.0719036933 3.00855263 2.95115522 3.225752376 3.1415926536 3.0653475414 
2.9967168029 2.9351694502 2.8800620952 2.8307207459 3.1415926536 3.0574329311 2.9825888767 2.91630358 2.8576792927 
2.8058000847 2.7598010554 2.718901062 4.526799744 4.426884955 4.4046155105 4.3052269283 4.2918546451 4.2807094886 
4.1588146215 4.1588146215 4.1588146215 4.1588146215 3.9875336042 4.0055183285 4.0201070968 4.0321740035 4.042318168 
3.7967995342 3.8356650183 3.8672112905 3.8932795963 3.9151549899 3.9337570603 3.5984456061 3.657329819 3.7058097288 
3.7462412737 3.7803704271 3.809500442 3.8346145692 3.4073543651 3.4813459737 3.5438565869 3.5969754326 3.6424295543 
3.6816134988 3.7156421835 3.7454049075 4.7123889804 4.8004512023 4.6243267584 4.9155579264 4.7123889804 4.5092200343 
5.0674903122 4.8353719722 4.5894059886 4.3572876485 5.2659633393 5.0120975802 4.7123889804 4.4126803806 4.1588146215 
5.5125918794 5.2659633393 4.9155579264 4.5092200343 4.1588146215 3.9121860814 5.7885595667 5.6029703303 5.2659633393 
4.7123889804 4.1588146215 3.8218076305 3.6362183941 6.0560271438 5.9702140275 5.7885595667 5.2659633393 4.1588146215 
3.6362183941 3.4545639333 3.368750817 0.22715816343 0.49462574053 0.3129712797 0.77059342779 0.68021497688 0.49462574053 
1.0172219679 1.0172219679 1.0172219679 1.0172219679 1.2156949949 1.271087727 1.3676273807 1.5707963268 2.1243706857 
1.3676273807 1.447813335 1.5707963268 1.7739652728 2.1243706857 2.6469669131 1.4827341049 1.5707963268 1.6937793186 
1.8705049266 2.1243706857 2.4613776767 2.8286213739 1.5707963268 1.6588585487 1.7739652728 1.9258976586 2.1243706857 
2.3709992258 2.6469669131 2.9144344902 1.7563855631 1.8785697967 1.8563003522 2.0024758186 1.9913306621 1.9779583789 
2.1243706857 2.1243706857 2.1243706857 2.1243706857 2.2408671392 2.2510113037 2.2630782103 2.2776669786 2.295651703 
2.3494282469 2.3680303173 2.3899057108 2.4159740166 2.4475202889 2.486385773 2.448570738 2.4736848652 2.5028148801 
2.5369440334 2.5773755784 2.6258554882 2.6847397011 2.5377803997 2.5675431237 2.6015718084 2.6407557529 2.6862098746 
2.7393287203 2.8018393335 2.8758309421 1.6743954455 1.6743954455 1.7840462375 1.6743954455 1.7840462375 1.8974821136 
1.6743954455 1.7840462375 1.8974821136 2.0119052671 1.6743954455 1.7840462375 1.8974821136 2.0119052671 2.1243706857 
1.6743954455 1.7840462375 1.8974821136 2.0119052671 2.1243706857 2.232221744 1.6743954455 1.7840462375 1.8974821136 
2.0119052671 2.1243706857 2.232221744 2.3334263672 1.6743954455 1.7840462375 1.8974821136 2.0119052671 2.1243706857 
2.232221744 2.3334263672 2.426721652 1.4671972081 1.3575464161 1.4671972081 1.24411054 1.3575464161 1.4671972081 
1.1296873865 1.24411054 1.3575464161 1.4671972081 1.0172219679 1.1296873865 1.24411054 1.3575464161 1.4671972081 
0.90937090954 1.0172219679 1.1296873865 1.24411054 1.3575464161 1.4671972081 0.80816628637 0.90937090954 1.0172219679 
1.1296873865 1.24411054 1.3575464161 1.4671972081 0.71487100155 0.80816628637 0.90937090954 1.0172219679 1.1296873865 
1.24411054 1.3575464161 1.4671972081 0.60381225391 0.57404952988 0.69302191562 0.54002084522 0.66790778838 0.79216440667 
0.50083690068 0.63877777351 0.77356233629 0.90072551443 0.45538277901 0.60464862014 0.75168694275 0.89058134991 1.0172219679 
0.40226393329 0.56421707518 0.72561863695 0.87851444325 1.0172219679 1.139116835 0.33975332011 0.51573716537 0.69407236469 
0.86392567495 1.0172219679 1.1502619915 1.2630228569 0.26576171152 0.45685295248 0.6552068806 0.84594095064 1.0172219679 
1.1636342747 1.2852923014 1.3852070904 0.22715816343 0.3129712797 0.49462574053 0.49462574053 0.68021497688 0.77059342779 
1.0172219679 1.0172219679 1.0172219679 1.0172219679 2.1243706857 1.5707963268 1.3676273807 1.271087727 1.2156949949 
2.6469669131 2.1243706857 1.7739652728 1.5707963268 1.447813335 1.3676273807 2.8286213739 2.4613776767 2.1243706857 
1.8705049266 1.6937793186 1.5707963268 1.4827341049 2.9144344902 2.6469669131 2.3709992258 2.1243706857 1.9258976586 
1.7739652728 1.6588585487 1.5707963268 1.7563855631 1.8563003522 1.8785697967 1.9779583789 1.9913306621 2.0024758186 
2.1243706857 2.1243706857 2.1243706857 2.1243706857 2.295651703 2.2776669786 2.2630782103 2.2510113037 2.2408671392 
2.486385773 2.4475202889 2.4159740166 2.3899057108 2.3680303173 2.3494282469 2.6847397011 2.6258554882 2.5773755784 
2.5369440334 2.5028148801 2.4736848652 2.448570738 2.8758309421 2.8018393335 2.7393287203 2.6862098746 2.6407557529 
2.6015718084 2.5675431237 2.5377803997 5.8604937156 5.901393709 5.9723133995 5.9473927383 6.0216547488 6.0927478736 
5.9992719463 6.0767621038 6.1501452836 6.2190157008 6.0578962336 6.1383094565 6.2134963469 0 0.064169606361 
6.1241815303 6.206940195 6.2831853072 0.069688960264 0.13304002361 0.19043743361 6.1990255847 0 0.07624511221 
0.14487585072 0.20642320337 0.26153055843 0.3108719077 0 0.084159722458 0.15900377685 0.22528907359 0.28391336087 
0.3357925689 0.38179159818 0.42269159155 5.8604937156 5.9723133995 5.901393709 6.0927478736 6.0216547488 5.9473927383 
6.2190157008 6.1501452836 6.0767621038 5.9992719463 0.064169606361 0 6.2134963469 6.1383094565 6.0578962336 
0.19043743361 0.13304002361 0.069688960264 6.2831853072 6.206940195 6.1241815303 0.3108719077 0.26153055843 0.20642320337 
0.14487585072 0.07624511221 6.2831853072 6.1990255847 0.42269159155 0.38179159818 0.3357925689 0.28391336087 0.22528907359 
0.15900377685 0.084159722458 0 5.6793730533 5.7091357773 5.5901633916 5.743164462 5.6152775188 5.4910209005 
5.7823484065 5.6444075337 5.5096229709 5.3824597928 5.8278025282 5.678536687 5.5314983644 5.3926039573 5.2659633393 
5.8809213739 5.718968232 5.5575666702 5.4046708639 5.2659633393 5.1440684722 5.9434319871 5.7674481418 5.5891129425 
5.4192596322 5.2659633393 5.1329233157 5.0201624502 6.0174235957 5.8263323547 5.6279784266 5.4372443565 5.2659633393 
5.1195510325 4.9978930058 4.8979782167 1.3852070904 1.2852923014 1.2630228569 1.1636342747 1.1502619915 1.139116835 
1.0172219679 1.0172219679 1.0172219679 1.0172219679 0.84594095064 0.86392567495 0.87851444325 0.89058134991 0.90072551443 
0.6552068806 0.69407236469 0.72561863695 0.75168694275 0.77356233629 0.79216440667 0.45685295248 0.51573716537 0.56421707518 
0.60464862014 0.63877777351 0.66790778838 0.69302191562 0.26576171152 0.33975332011 0.40226393329 0.45538277901 0.50083690068 
0.54002084522 0.57404952988 0.60381225391 
_paraPhiHalf 1 1002 double
0 3.1415926536 0 3.1415926536 1.5707963268 1.5707963268 1.5707963268 1.5707963268 2.5880182947 
0.5535743589 2.5880182947 0.5535743589 0 0 0 0 3.1415926536 3.1415926536 
3.1415926536 3.1415926536 3.1415926536 0.17788134 0.38438696014 0.60631181711 0.82323535693 1.0172219679 1.1799687454 
1.3118704726 1.4175000338 1.5022335207 0.17788134 0.38438696014 0.60631181711 0.82323535693 1.0172219679 1.1799687454 
1.3118704726 1.4175000338 1.5022335207 0.093902416448 0.17615329733 0.2478725152 0.31035131605 0.36486382811 0.41257334776 
0.45449736604 0.4915044461 0.52432611754 0.093902416448 0.17615329733 0.2478725152 0.31035131605 0.36486382811 0.41257334776 
0.45449736604 0.4915044461 0.52432611754 2.9637113136 2.7572056934 2.5352808365 2.3183572967 2.1243706857 1.9616239082 
1.829722181 1.7240926197 1.6393591329 2.9637113136 2.7572056934 2.5352808365 2.3183572967 2.1243706857 1.9616239082 
1.829722181 1.7240926197 1.6393591329 3.0476902371 2.9654393563 2.8937201384 2.8312413375 2.7767288255 2.7290193058 
2.6870952876 2.6500882075 2.617266536 3.0476902371 2.9654393563 2.8937201384 2.8312413375 2.7767288255 2.7290193058 
2.6870952876 2.6500882075 2.617266536 0 0 0 0 3.1415926536 3.1415926536 
3.1415926536 3.1415926536 3.1415926536 0.17788134 0.38438696014 0.60631181711 0.82323535693 1.0172219679 1.1799687454 
1.3118704726 1.4175000338 1.5022335207 0.17788134 0.38438696014 0.60631181711 0.82323535693 1.0172219679 1.1799687454 
1.3118704726 1.4175000338 1.5022335207 0.093902416448 0.17615329733 0.2478725152 0.31035131605 0.36486382811 0.41257334776 
0.45449736604 0.4915044461 0.52432611754 0.093902416448 0.17615329733 0.2478725152 0.31035131605 0.36486382811 0.41257334776 
0.45449736604 0.4915044461 0.52432611754 2.9637113136 2.7572056934 2.5352808365 2.3183572967 2.1243706857 1.9616239082 
1.829722181 1.7240926197 1.6393591329 2.9637113136 2.7572056934 2.5352808365 2.3183572967 2.1243706857 1.9616239082 
1.829722181 1.7240926197 1.6393591329 3.0476902371 2.9654393563 2.8937201384 2.8312413375 2.7767288255 2.7290193058 
2.6870952876 2.6500882075 2.617266536 3.0476902371 2.9654393563 2.8937201384 2.8312413375 2.7767288255 2.7290193058 
2.6870952876 2.6500882075 2.617266536 1.5707963268 1.5707963268 1.5707963268 1.5707963268 1.5707963268 1.5707963268 
1.5707963268 1.5707963268 1.5707963268 1.6743954455 1.7840462375 1.8974821136 2.0119052671 2.1243706857 2.232221744 
2.3334263672 2.426721652 2.5115728246 1.4671972081 1.3575464161 1.24411054 1.1296873865 1.0172219679 0.90937090954 
0.80816628637 0.71487100155 0.63001982895 1.6743954455 1.7840462375 1.8974821136 2.0119052671 2.1243706857 2.232221744 
2.3334263672 2.426721652 2.5115728246 1.4671972081 1.3575464161 1.24411054 1.1296873865 1.0172219679 0.90937090954 
0.80816628637 0.71487100155 0.63001982895 1.5707963268 1.5707963268 1.5707963268 1.5707963268 1.5707963268 1.5707963268 
1.5707963268 1.5707963268 1.5707963268 1.6743954455 1.7840462375 1.8974821136 2.0119052671 2.1243706857 2.232221744 
2.3334263672 2.426721652 2.5115728246 1.4671972081 1.3575464161 1.24411054 1.1296873865 1.0172219679 0.90937090954 
0.80816628637 0.71487100155 0.63001982895 1.6743954455 1.7840462375 1.8974821136 2.0119052671 2.1243706857 2.232221744 
2.3334263672 2.426721652 2.5115728246 1.4671972081 1.3575464161 1.24411054 1.1296873865 1.0172219679 0.90937090954 
0.80816628637 0.71487100155 0.63001982895 2.6824132222 2.7864913217 2.8992382033 3.0186096618 3.1415926536 3.0186096618 
2.8992382033 2.7864913217 2.6824132222 0.45917943135 0.35510133185 0.2423544503 0.12298299178 0 0.12298299178 
0.2423544503 0.35510133185 0.45917943135 0.22715816343 0.49462574053 0.3129712797 0.77059342779 0.68021497688 0.49462574053 
1.0172219679 1.0172219679 1.0172219679 1.0172219679 1.2156949949 1.271087727 1.3676273807 1.5707963268 2.1243706857 
1.3676273807 1.447813335 1.5707963268 1.7739652728 2.1243706857 2.6469669131 1.4827341049 1.5707963268 1.6937793186 
1.8705049266 2.1243706857 2.4613776767 2.8286213739 1.5707963268 1.6588585487 1.7739652728 1.9258976586 2.1243706857 
2.3709992258 2.6469669131 2.9144344902 0.26576171152 0.33975332011 0.45685295248 0.40226393329 0.51573716537 0.6552068806 
0.45538277901 0.56421707518 0.69407236469 0.84594095064 0.50083690068 0.60464862014 0.72561863695 0.86392567495 1.0172219679 
0.54002084522 0.63877777351 0.75168694275 0.87851444325 1.0172219679 1.1636342747 0.57404952988 0.66790778838 0.77356233629 
0.89058134991 1.0172219679 1.1502619915 1.2852923014 0.60381225391 0.69302191562 0.79216440667 0.90072551443 1.0172219679 
1.139116835 1.2630228569 1.3852070904 0.71487100155 0.80816628637 0.80816628637 0.90937090954 0.90937090954 0.90937090954 
1.0172219679 1.0172219679 1.0172219679 1.0172219679 1.1296873865 1.1296873865 1.1296873865 1.1296873865 1.1296873865 
1.24411054 1.24411054 1.24411054 1.24411054 1.24411054 1.24411054 1.3575464161 1.3575464161 1.3575464161 
1.3575464161 1.3575464161 1.3575464161 1.3575464161 1.4671972081 1.4671972081 1.4671972081 1.4671972081 1.4671972081 
1.4671972081 1.4671972081 1.4671972081 1.6743954455 1.6743954455 1.7840462375 1.6743954455 1.7840462375 1.8974821136 
1.6743954455 1.7840462375 1.8974821136 2.0119052671 1.6743954455 1.7840462375 1.8974821136 2.0119052671 2.1243706857 
1.6743954455 1.7840462375 1.8974821136 2.0119052671 2.1243706857 2.232221744 1.6743954455 1.7840462375 1.8974821136 
2.0119052671 2.1243706857 2.232221744 2.3334263672 1.6743954455 1.7840462375 1.8974821136 2.0119052671 2.1243706857 
2.232221744 2.3334263672 2.426721652 1.7563855631 1.8785697967 1.8563003522 2.0024758186 1.9913306621 1.9779583789 
2.1243706857 2.1243706857 2.1243706857 2.1243706857 2.2408671392 2.2510113037 2.2630782103 2.2776669786 2.295651703 
2.3494282469 2.3680303173 2.3899057108 2.4159740166 2.4475202889 2.486385773 2.448570738 2.4736848652 2.5028148801 
2.5369440334 2.5773755784 2.6258554882 2.6847397011 2.5377803997 2.5675431237 2.6015718084 2.6407557529 2.6862098746 
2.7393287203 2.8018393335 2.8758309421 2.718901062 2.8307207459 2.7598010554 2.95115522 2.8800620952 2.8058000847 
3.0774230472 3.00855263 2.9351694502 2.8576792927 3.0774230472 3.1415926536 3.0719036933 2.9967168029 2.91630358 
2.95115522 3.00855263 3.0719036933 3.1415926536 3.0653475414 2.9825888767 2.8307207459 2.8800620952 2.9351694502 
2.9967168029 3.0653475414 3.1415926536 3.0574329311 2.718901062 2.7598010554 2.8058000847 2.8576792927 2.91630358 
2.9825888767 3.0574329311 3.1415926536 2.718901062 2.7598010554 2.8307207459 2.8058000847 2.8800620952 2.95115522 
2.8576792927 2.9351694502 3.00855263 3.0774230472 2.91630358 2.9967168029 3.0719036933 3.1415926536 3.0774230472 
2.9825888767 3.0653475414 3.1415926536 3.0719036933 3.00855263 2.95115522 3.0574329311 3.1415926536 3.0653475414 