# vtk DataFile Version 4.2
vtk output
ASCII
DATASET POLYDATA
POINTS 1002 float
32.326 35.2748 38.3756 40.5602 67.76 24.2581 31.6803 38.1776 48.1133 
40.6654 73.6331 36.6457 24.4021 55.9185 32.1581 23.1925 60.6918 39.6439 
42.4722 55.0215 33.6102 40.1057 57.5779 38.9224 35.5192 81.6963 25.9691 
26.5411 26.5521 49.7248 56.5982 77.4524 28.9041 45.1358 23.5632 53.2993 
32.2751 38.0664 37.0241 32.3105 41.3083 35.5772 32.4997 44.952 34.1039 
32.9813 48.9519 32.6695 33.8476 53.1252 31.194 35.0425 57.0521 29.5569 
36.4377 60.3864 27.865 37.9123 63.1637 26.3725 39.3293 65.5939 25.1896 
31.3015 36.3184 37.7135 30.1764 37.7188 37.0312 28.9999 39.4498 36.3334 
27.8658 41.4581 35.6407 26.8849 43.7257 35.0009 26.0974 46.1991 34.4105 
25.4639 48.7415 33.8078 24.9597 51.2379 33.1892 24.6032 53.6431 32.6242 
33.2544 36.1253 38.2039 34.1756 37.2768 37.9717 35.0387 38.7114 37.6257 
35.8763 40.4552 37.1651 36.7588 42.5937 36.6637 37.6763 45.1126 36.1574 
38.6207 47.8084 35.5781 39.7047 50.4453 34.887 41.0155 52.8794 34.1807 
31.806 33.2735 39.333 31.2712 31.3817 40.413 30.6859 29.6902 41.5794 
29.9618 28.2024 42.7516 29.0902 26.9335 43.9005 28.2267 26.0124 45.0819 
27.5491 25.56 46.3369 27.0933 25.5555 47.6153 26.7842 25.9085 48.7913 
33.0533 33.1432 39.6731 33.9682 31.0105 41.169 35.1295 28.9069 42.8509 
36.5274 26.9426 44.6444 38.0552 25.2824 46.4146 39.6613 23.9819 48.0662 
41.3936 23.0452 49.6191 43.1307 22.6136 51.0966 44.4883 22.8229 52.386 
38.8885 67.1078 24.4168 36.9952 66.2996 24.7788 34.9789 65.3825 25.3236 
32.9787 64.3668 26.0499 31.1206 63.1962 26.9965 29.444 61.8461 28.1164 
27.9161 60.3854 29.2418 26.5361 58.8877 30.2683 25.3556 57.3845 31.2274 
41.3794 66.9801 24.7838 42.0979 66.0059 25.4343 42.6978 64.8556 26.1803 
43.1776 63.5561 27.0161 43.501 62.1375 27.9786 43.6022 60.6721 29.0911 
43.4698 59.2443 30.2929 43.1788 57.8619 31.4779 42.8253 56.4666 32.5852 
40.6411 69.4752 23.4407 40.5378 71.2221 22.6297 40.2449 72.9845 21.925 
39.7926 74.8629 21.4122 39.215 76.9239 21.1662 38.5458 78.9409 21.3195 
37.8198 80.4962 21.9896 37.0546 81.3821 23.1225 36.2705 81.7116 24.5174 
42.24 69.3853 23.7679 43.9568 70.9946 23.4465 45.7047 72.5234 23.342 
47.5362 73.9469 23.4909 49.4377 75.1852 23.9553 51.2575 76.1217 24.7675 
52.8519 76.7643 25.7948 54.231 77.203 26.828 55.4771 77.4447 27.8256 
31.275 41.0552 46.6678 31.0571 44.5739 45.199 31.0854 48.7102 43.8047 
31.4459 53.3509 42.5674 32.3114 58.2878 41.5187 33.7673 63.1129 40.6244 
35.5985 67.233 39.7694 37.4556 70.2478 38.8178 39.151 72.2505 37.7432 
30.6721 39.5894 47.6423 29.5851 41.3578 47.0383 28.4255 43.4824 46.3052 
27.2013 45.8912 45.4685 25.9829 48.4987 44.5862 24.9128 51.2351 43.6981 
24.113 53.9757 42.7689 23.6052 56.5333 41.7526 23.3265 58.7771 40.6834 
32.3794 38.6487 47.5662 33.1174 39.3965 46.8418 33.83 40.426 45.9429 
34.4757 41.7827 44.9086 35.0903 43.5921 43.7837 35.6951 45.9671 42.5689 
36.3063 48.8584 41.2903 37.1069 52.0008 40.1224 38.3588 55.0142 39.3041 
31.5653 36.4423 49.3209 31.3708 34.8812 50.5986 30.9311 33.4747 51.8613 
30.2234 32.0902 52.9278 29.4521 30.5908 53.5704 28.8301 29.0132 53.6865 
28.3377 27.6249 53.3122 27.8117 26.7245 52.4784 27.185 26.4049 51.2294 
32.67 35.8012 49.3007 33.8693 33.4347 50.5936 35.2704 31.1735 51.9153 
36.8502 29.1997 53.1813 38.5928 27.6863 54.3726 40.5039 26.58 55.4351 
42.4661 25.6296 56.0639 44.1101 24.7106 55.8718 45.0343 23.957 54.8275 
38.7559 73.4929 37.0961 36.7223 73.2063 37.6742 34.5033 72.5761 38.2589 
32.1804 71.3867 38.6889 30.0324 69.6889 38.9242 28.2206 67.8243 39.0809 
26.6454 66.0295 39.261 25.2346 64.2625 39.4471 24.066 62.4604 39.5802 
41.6748 72.9229 36.9642 42.6839 72.0409 37.3257 43.5445 70.9741 37.7372 
44.1195 69.7645 38.3006 44.3036 68.396 39.0492 43.9865 66.7225 39.7125 
43.1632 64.6556 39.9207 42.0554 62.3208 39.6518 40.9716 59.9203 39.221 
40.9119 74.7871 35.7562 41.0628 75.9747 34.7851 41.0508 77.1695 33.767 
40.7877 78.3393 32.7334 40.1749 79.4612 31.7356 39.1817 80.463 30.7839 
37.9759 81.2256 29.7685 36.8629 81.6826 28.5695 36.0441 81.8359 27.2376 
42.8583 74.4557 35.766 45.3154 75.407 34.9942 47.8653 76.5291 34.4475 
50.3673 77.6979 34.1592 52.8252 78.7349 33.9675 55.1258 79.4904 33.4917 
56.8131 79.7765 32.4594 57.4917 79.442 31.0678 57.2731 78.572 29.7881 
23.7975 56.4627 32.5008 23.1752 57.1516 32.8861 22.5403 57.9839 33.3016 
21.9868 58.9302 33.8632 21.6616 59.8508 34.7406 21.6356 60.5038 35.9055 
21.8601 60.7701 37.1073 22.2391 60.7793 38.1412 22.6968 60.7272 38.9742 
24.9158 59.0971 31.136 25.6696 62.4334 30.0045 26.5711 65.8383 28.7481 
27.5243 69.1636 27.5012 28.6159 72.2306 26.5149 29.9772 74.9803 25.8835 
31.4827 77.4245 25.5161 32.8945 79.4424 25.3939 34.1924 80.8642 25.5668 
23.688 52.912 33.4086 23.0625 49.5201 34.787 22.473 45.9012 36.2231 
22.0241 42.2157 37.7542 22.0284 38.5981 39.5395 22.5873 35.2352 41.5961 
23.4226 32.3338 43.7403 24.3308 29.9597 45.8423 25.3638 28.0487 47.8646 
23.6637 63.5751 38.5806 24.3348 66.5497 37.4327 25.1935 69.5278 36.146 
26.2426 72.3203 34.6657 27.4988 74.7467 33.0508 28.9508 76.8085 31.4512 
30.5479 78.5861 29.9469 32.2236 80.0316 28.5246 33.9042 81.0546 27.1854 
22.5848 57.6456 40.3533 22.1322 54.0942 41.2044 21.8186 50.0275 42.2581 
21.7171 45.5619 43.534 22.0008 41.0441 44.9563 22.7012 36.9231 46.3769 
23.6211 33.4539 47.6395 24.5833 30.6269 48.6306 25.5572 28.3473 49.3133 
43.1544 55.3809 34.0216 43.7204 55.8426 34.6542 44.0313 56.362 35.4918 
43.9775 56.818 36.3844 43.5788 57.1137 37.1564 42.9936 57.2792 37.7432 
42.3513 57.3995 38.1677 41.6516 57.4976 38.4679 40.8805 57.556 38.6993 
44.398 57.7636 32.5733 46.5857 60.1628 31.7132 48.6073 62.389 31.1116 
50.2706 64.8052 30.7057 51.8019 67.4239 30.3752 53.3758 69.7962 30.0677 
54.7652 71.7024 29.7556 55.7218 73.4726 29.4059 56.2884 75.4248 29.0768 
41.3373 51.8919 34.9823 40.6083 47.8954 36.5392 40.4168 43.3606 38.2835 
40.6689 38.8617 40.2413 41.1991 34.8094 42.407 41.9575 31.2877 44.6803 
42.9267 28.3171 46.9326 43.9456 26.0164 49.1245 44.7482 24.4595 51.2665 
43.0605 61.033 39.1326 46.711 63.7638 39.6055 50.0424 65.8155 39.6136 
52.4621 67.6685 38.7113 54.4029 69.5634 37.2217 56.3068 71.2886 35.6147 
57.6977 72.7961 33.8929 58.0206 74.3407 32.025 57.4752 75.9741 30.2834 
38.5721 53.4237 39.2049 38.1146 48.6045 40.3114 38.7032 43.7593 42.0568 
39.7137 39.4545 43.971 40.6445 35.7459 45.8398 41.6348 32.427 47.7635 
42.9064 29.488 49.6917 44.1816 27.0352 51.3535 44.9895 25.0754 52.5619 
37.5602 82.2877 25.5556 40.0427 82.835 25.1624 42.7822 83.4559 24.8589 
45.5452 83.9364 24.8493 48.3371 83.8842 25.3318 51.1391 83.2843 26.1752 
53.5285 82.3859 26.9895 55.1215 81.1564 27.6087 56.0393 79.4533 28.1955 
28.0454 24.8352 51.0066 29.7729 23.3671 52.2824 31.6231 22.3142 53.5432 
33.7518 21.6486 54.8629 36.4481 21.2059 56.1668 39.506 20.9619 57.0398 
42.1888 21.074 57.0466 43.9781 21.6103 56.1865 44.8826 22.4731 54.8187 
31.2589 39.3928 36.304 30.1661 41.0648 35.5836 31.3484 42.9036 34.824 
29.062 43.0137 34.8695 30.3323 44.7913 34.0868 31.6614 46.7801 33.3392 
28.0501 45.2142 34.1881 29.3313 46.9185 33.3622 30.7658 48.8511 32.5756 
32.3186 50.9725 31.8528 27.2214 47.6811 33.5607 28.4687 49.3158 32.6711 
29.894 51.1467 31.8023 31.5606 53.1651 31.0004 33.3404 55.2068 30.2526 
26.5688 50.2932 32.9444 27.8172 51.9293 32.0218 29.2005 53.6529 31.0574 
30.8237 55.482 30.1323 32.6971 57.3216 29.2909 34.6261 58.9936 28.5261 
26.035 52.8329 32.3095 27.3114 54.497 31.3886 28.7129 56.1684 30.3779 
30.2635 57.8207 29.3285 32.0655 59.4092 28.3707 34.0652 60.8616 27.5569 
36.0632 62.1197 26.8819 25.6196 55.1949 31.7151 26.8777 56.8121 30.7857 
28.3061 58.4268 29.7694 29.846 59.9778 28.6545 31.5584 61.3969 27.5868 
33.4942 62.6556 26.7075 35.5459 63.7765 26.0218 37.5334 64.7652 25.5095 
30.6259 34.361 38.663 29.9151 32.5374 39.7254 29.3323 35.8395 37.9582 
29.1494 30.9375 40.8711 28.4508 34.0952 38.9878 28.0037 37.6935 37.2184 
28.3065 29.5693 42.0454 27.5831 32.5966 40.1139 27.0166 36.0824 38.2049 
26.7856 39.8918 36.4897 27.4343 28.4718 43.2117 26.7655 31.3868 41.2911 
26.1474 34.7473 39.3018 25.7717 38.4791 37.4387 25.7885 42.3682 35.8334 
26.6441 27.7621 44.3749 25.9858 30.5018 42.4391 25.38 33.7279 40.4392 
24.8865 37.3255 38.4751 24.7593 41.1274 36.7437 25.0052 44.9868 35.2223 
26.0296 27.4947 45.5666 25.2598 29.98 43.5461 24.6151 32.9977 41.5227 
24.0383 36.4315 39.5107 23.784 40.0902 37.6852 23.9622 43.8585 36.0876 
24.3954 47.6416 34.5948 25.6162 27.6137 46.7701 24.6853 29.8096 44.6846 
23.9093 32.5287 42.5938 23.2119 35.7366 40.5162 22.8255 39.2599 38.5962 
22.9485 42.9281 36.9389 23.3999 46.6559 35.4293 23.9575 50.302 33.9706 
24.3971 30.0206 47.4036 23.436 32.4807 46.7359 23.3334 32.1169 45.3089 
22.4815 35.6087 45.8013 22.3446 34.8398 44.6141 22.3324 34.7743 43.0556 
21.6593 39.6115 44.5769 21.4872 38.4708 43.662 21.4151 37.9698 42.2255 
21.5473 38.1059 40.7246 21.2203 44.3755 43.1548 20.9649 43.1806 42.4096 
20.8949 42.2976 41.1685 20.971 41.9189 39.7433 21.3344 41.9529 38.5764 
21.2566 49.3064 41.7513 20.8892 48.4625 41.0114 20.7852 47.5706 39.912 
20.875 46.7894 38.6276 21.166 46.2382 37.5429 21.7243 45.9459 36.7929 
21.5995 53.7704 40.5716 21.1636 53.3917 39.7566 20.9455 52.8387 38.6906 
20.979 52.0508 37.4879 21.2395 51.1465 36.462 21.7167 50.3416 35.7666 
22.3574 49.7882 35.2602 22.0863 57.547 39.6697 21.6336 57.4646 38.8143 
21.3044 57.2624 37.7474 21.1914 56.7377 36.5469 21.3523 55.8622 35.4789 
21.7777 54.8577 34.7457 22.376 53.975 34.258 23.0318 53.3265 33.8287 
24.3432 59.9068 31.454 23.7343 60.7844 31.8344 25.1675 63.5024 30.2983 
23.1035 61.7027 32.3193 24.6124 64.5431 30.7124 26.1276 67.1315 29.0673 
22.5845 62.6323 33.0772 24.0287 65.5118 31.3599 25.6215 68.2994 29.6131 
27.0865 70.5634 27.9549 22.3375 63.4138 34.2127 23.5617 66.3573 32.4006 
25.0951 69.2625 30.5187 26.6101 71.7302 28.7353 28.1743 73.5655 27.1838 
22.4014 63.8315 35.5476 23.3628 66.9078 33.7927 24.6991 69.9178 31.8513 
26.1765 72.5388 29.9252 27.7504 74.5576 28.2243 29.5507 76.1234 26.7778 
[...]
POINT_DATA 1002
FIELD FieldData 4
_paraPhi 1 1002 double
6.2831853072 3.1415926536 6.2831853072 3.1415926536 4.7123889804 4.7123889804 1.5707963268 1.5707963268 3.6951670125 
5.7296109483 2.5880182947 0.5535743589 6.2831853072 6.2831853072 6.2831853072 6.2831853072 3.1415926536 3.1415926536 
3.1415926536 3.1415926536 3.1415926536 6.1053039672 5.898798347 5.6768734901 5.4599499503 5.2659633393 5.1032165617 
4.9713148346 4.8656852733 4.7809517865 0.17788134 0.38438696014 0.60631181711 0.82323535693 1.0172219679 1.1799687454 
1.3118704726 1.4175000338 1.5022335207 6.1892828907 6.1070320098 6.035312792 5.9728339911 5.9183214791 5.8706119594 
5.8286879411 5.7916808611 5.7588591896 0.093902416448 0.17615329733 0.2478725152 0.31035131605 0.36486382811 0.41257334776 
0.45449736604 0.4915044461 0.52432611754 3.3194739936 3.5259796137 3.7479044707 3.9648280105 4.1588146215 4.321561399 
4.4534631262 4.5590926874 4.6438261743 2.9637113136 2.7572056934 2.5352808365 2.3183572967 2.1243706857 1.9616239082 
1.829722181 1.7240926197 1.6393591329 3.23549507 3.3177459509 3.3894651688 3.4519439696 3.5064564817 3.5541660013 
3.5960900196 3.6330970997 3.6659187711 3.0476902371 2.9654393563 2.8937201384 2.8312413375 2.7767288255 2.7290193058 
2.6870952876 2.6500882075 2.617266536 6.2831853072 6.2831853072 6.2831853072 6.2831853072 3.1415926536 3.1415926536 
3.1415926536 3.1415926536 3.1415926536 6.1053039672 5.898798347 5.6768734901 5.4599499503 5.2659633393 5.1032165617 
4.9713148346 4.8656852733 4.7809517865 0.17788134 0.38438696014 0.60631181711 0.82323535693 1.0172219679 1.1799687454 
1.3118704726 1.4175000338 1.5022335207 6.1892828907 6.1070320098 6.035312792 5.9728339911 5.9183214791 5.8706119594 
5.8286879411 5.7916808611 5.7588591896 0.093902416448 0.17615329733 0.2478725152 0.31035131605 0.36486382811 0.41257334776 
0.45449736604 0.4915044461 0.52432611754 3.3194739936 3.5259796137 3.7479044707 3.9648280105 4.1588146215 4.321561399 
4.4534631262 4.5590926874 4.6438261743 2.9637113136 2.7572056934 2.5352808365 2.3183572967 2.1243706857 1.9616239082 
1.829722181 1.7240926197 1.6393591329 3.23549507 3.3177459509 3.3894651688 3.4519439696 3.5064564817 3.5541660013 
3.5960900196 3.6330970997 3.6659187711 3.0476902371 2.9654393563 2.8937201384 2.8312413375 2.7767288255 2.7290193058 
2.6870952876 2.6500882075 2.617266536 4.7123889804 4.7123889804 4.7123889804 4.7123889804 4.7123889804 4.7123889804 
4.7123889804 4.7123889804 4.7123889804 4.6087898617 4.4991390697 4.3857031936 4.2712800401 4.1588146215 4.0509635631 
3.94975894 3.8564636551 3.7716124825 4.8159880991 4.9256388911 5.0390747672 5.1534979207 5.2659633393 5.3738143976 
5.4750190208 5.5683143056 5.6531654782 4.6087898617 4.4991390697 4.3857031936 4.2712800401 4.1588146215 4.0509635631 
3.94975894 3.8564636551 3.7716124825 4.8159880991 4.9256388911 5.0390747672 5.1534979207 5.2659633393 5.3738143976 
5.4750190208 5.5683143056 5.6531654782 1.5707963268 1.5707963268 1.5707963268 1.5707963268 1.5707963268 1.5707963268 
1.5707963268 1.5707963268 1.5707963268 1.6743954455 1.7840462375 1.8974821136 2.0119052671 2.1243706857 2.232221744 
2.3334263672 2.426721652 2.5115728246 1.4671972081 1.3575464161 1.24411054 1.1296873865 1.0172219679 0.90937090954 
0.80816628637 0.71487100155 0.63001982895 1.6743954455 1.7840462375 1.8974821136 2.0119052671 2.1243706857 2.232221744 
2.3334263672 2.426721652 2.5115728246 1.4671972081 1.3575464161 1.24411054 1.1296873865 1.0172219679 0.90937090954 
0.80816628637 0.71487100155 0.63001982895 3.6007720849 3.4966939854 3.3839471039 3.2645756454 3.1415926536 3.0186096618 
2.8992382033 2.7864913217 2.6824132222 5.8240058758 5.9280839753 6.0408308569 6.1602023154 6.2831853072 0.12298299178 
0.2423544503 0.35510133185 0.45917943135 6.0560271438 5.7885595667 5.9702140275 5.5125918794 5.6029703303 5.7885595667 
5.2659633393 5.2659633393 5.2659633393 5.2659633393 5.0674903122 5.0120975802 4.9155579264 4.7123889804 4.1588146215 
4.9155579264 4.8353719722 4.7123889804 4.5092200343 4.1588146215 3.6362183941 4.8004512023 4.7123889804 4.5894059886 
4.4126803806 4.1588146215 3.8218076305 3.4545639333 4.7123889804 4.6243267584 4.5092200343 4.3572876485 4.1588146215 
3.9121860814 3.6362183941 3.368750817 6.0174235957 5.9434319871 5.8263323547 5.8809213739 5.7674481418 5.6279784266 
5.8278025282 5.718968232 5.5891129425 5.4372443565 5.7823484065 5.678536687 5.5575666702 5.4192596322 5.2659633393 
5.743164462 5.6444075337 5.5314983644 5.4046708639 5.2659633393 5.1195510325 5.7091357773 5.6152775188 5.5096229709 
5.3926039573 5.2659633393 5.1329233157 4.9978930058 5.6793730533 5.5901633916 5.4910209005 5.3824597928 5.2659633393 
5.1440684722 5.0201624502 4.8979782167 5.5683143056 5.4750190208 5.4750190208 5.3738143976 5.3738143976 5.3738143976 
5.2659633393 5.2659633393 5.2659633393 5.2659633393 5.1534979207 5.1534979207 5.1534979207 5.1534979207 5.1534979207 
5.0390747672 5.0390747672 5.0390747672 5.0390747672 5.0390747672 5.0390747672 4.9256388911 4.9256388911 4.9256388911 
4.9256388911 4.9256388911 4.9256388911 4.9256388911 4.8159880991 4.8159880991 4.8159880991 4.8159880991 4.8159880991 
4.8159880991 4.8159880991 4.8159880991 4.6087898617 4.6087898617 4.4991390697 4.6087898617 4.4991390697 4.3857031936 
4.6087898617 4.4991390697 4.3857031936 4.2712800401 4.6087898617 4.4991390697 4.3857031936 4.2712800401 4.1588146215 
4.6087898617 4.4991390697 4.3857031936 4.2712800401 4.1588146215 4.0509635631 4.6087898617 4.4991390697 4.3857031936 
4.2712800401 4.1588146215 4.0509635631 3.94975894 4.6087898617 4.4991390697 4.3857031936 4.2712800401 4.1588146215 
4.0509635631 3.94975894 3.8564636551 4.526799744 4.4046155105 4.426884955 4.2807094886 4.2918546451 4.3052269283 
4.1588146215 4.1588146215 4.1588146215 4.1588146215 4.042318168 4.0321740035 4.0201070968 4.0055183285 3.9875336042 
3.9337570603 3.9151549899 3.8932795963 3.8672112905 3.8356650183 3.7967995342 3.8346145692 3.809500442 3.7803704271 
3.7462412737 3.7058097288 3.657329819 3.5984456061 3.7454049075 3.7156421835 3.6816134988 3.6424295543 3.5969754326 
3.5438565869 3.4813459737 3.4073543651 3.5642842451 3.4524645613 3.5233842518 3.3320300872 3.403123212 3.4773852225 
3.20576226 3.2746326772 3.348015857 3.4255060145 3.0774230472 3.1415926536 3.2112816139 3.2864685043 3.3668817272 
2.95115522 3.00855263 3.0719036933 3.1415926536 3.2178377658 3.3005964304 2.8307207459 2.8800620952 2.9351694502 
2.9967168029 3.0653475414 3.1415926536 3.225752376 2.718901062 2.7598010554 2.8058000847 2.8576792927 2.91630358 
2.9825888767 3.0574329311 3.1415926536 3.5642842451 3.5233842518 3.4524645613 3.4773852225 3.403123212 3.3320300872 
3.4255060145 3.348015857 3.2746326772 3.20576226 3.3668817272 3.2864685043 3.2112816139 3.1415926536 3.0774230472 
3.3005964304 3.2178377658 3.1415926536 3.0719036933 3.00855263 2.95115522 3.225752376 3.1415926536 3.0653475414 
2.9967168029 2.9351694502 2.8800620952 2.8307207459 3.1415926536 3.0574329311 2.9825888767 2.91630358 2.8576792927 
2.8058000847 2.7598010554 2.718901062 4.526799744 4.426884955 4.4046155105 4.3052269283 4.2918546451 4.2807094886 
4.1588146215 4.1588146215 4.1588146215 4.1588146215 3.9875336042 4.0055183285 4.0201070968 4.0321740035 4.042318168 
3.7967995342 3.8356650183 3.8672112905 3.8932795963 3.9151549899 3.9337570603 3.5984456061 3.657329819 3.7058097288 
3.7462412737 3.7803704271 3.809500442 3.8346145692 3.4073543651 3.4813459737 3.5438565869 3.5969754326 3.6424295543 
3.6816134988 3.7156421835 3.7454049075 4.7123889804 4.8004512023 4.6243267584 4.9155579264 4.7123889804 4.5092200343 
5.0674903122 4.8353719722 4.5894059886 4.3572876485 5.2659633393 5.0120975802 4.7123889804 4.4126803806 4.1588146215 
5.5125918794 5.2659633393 4.9155579264 4.5092200343 4.1588146215 3.9121860814 5.7885595667 5.6029703303 5.2659633393 
4.7123889804 4.1588146215 3.8218076305 3.6362183941 6.0560271438 5.9702140275 5.7885595667 5.2659633393 4.1588146215 
3.6362183941 3.4545639333 3.368750817 0.22715816343 0.49462574053 0.3129712797 0.77059342779 0.68021497688 0.49462574053 
1.0172219679 1.0172219679 1.0172219679 1.0172219679 1.2156949949 1.271087727 1.3676273807 1.5707963268 2.1243706857 
1.3676273807 1.447813335 1.5707963268 1.7739652728 2.1243706857 2.6469669131 1.4827341049 1.5707963268 1.6937793186 
1.8705049266 2.1243706857 2.4613776767 2.8286213739 1.5707963268 1.6588585487 1.7739652728 1.9258976586 2.1243706857 
2.3709992258 2.6469669131 2.9144344902 1.7563855631 1.8785697967 1.8563003522 2.0024758186 1.9913306621 1.9779583789 
2.1243706857 2.1243706857 2.1243706857 2.1243706857 2.2408671392 2.2510113037 2.2630782103 2.2776669786 2.295651703 
2.3494282469 2.3680303173 2.3899057108 2.4159740166 2.4475202889 2.486385773 2.448570738 2.4736848652 2.5028148801 
2.5369440334 2.5773755784 2.6258554882 2.6847397011 2.5377803997 2.5675431237 2.6015718084 2.6407557529 2.6862098746 
2.7393287203 2.8018393335 2.8758309421 1.6743954455 1.6743954455 1.7840462375 1.6743954455 1.7840462375 1.8974821136 
1.6743954455 1.7840462375 1.8974821136 2.0119052671 1.6743954455 1.7840462375 1.8974821136 2.0119052671 2.1243706857 
1.6743954455 1.7840462375 1.8974821136 2.0119052671 2.1243706857 2.232221744 1.6743954455 1.7840462375 1.8974821136 
2.0119052671 2.1243706857 2.232221744 2.3334263672 1.6743954455 1.7840462375 1.8974821136 2.0119052671 2.1243706857 
2.232221744 2.3334263672 2.426721652 1.4671972081 1.3575464161 1.4671972081 1.24411054 1.3575464161 1.4671972081 
1.1296873865 1.24411054 1.3575464161 1.4671972081 1.0172219679 1.1296873865 1.24411054 1.3575464161 1.4671972081 
0.90937090954 1.0172219679 1.1296873865 1.24411054 1.3575464161 1.4671972081 0.80816628637 0.90937090954 1.0172219679 
1.1296873865 1.24411054 1.3575464161 1.4671972081 0.71487100155 0.80816628637 0.90937090954 1.0172219679 1.1296873865 
1.24411054 1.3575464161 1.4671972081 0.60381225391 0.57404952988 0.69302191562 0.54002084522 0.66790778838 0.79216440667 
0.50083690068 0.63877777351 0.77356233629 0.90072551443 0.45538277901 0.60464862014 0.75168694275 0.89058134991 1.0172219679 
0.40226393329 0.56421707518 0.72561863695 0.87851444325 1.0172219679 1.139116835 0.33975332011 0.51573716537 0.69407236469 
0.86392567495 1.0172219679 1.1502619915 1.2630228569 0.26576171152 0.45685295248 0.6552068806 0.84594095064 1.0172219679 
1.1636342747 1.2852923014 1.3852070904 0.22715816343 0.3129712797 0.49462574053 0.49462574053 0.68021497688 0.77059342779 
1.0172219679 1.0172219679 1.0172219679 1.0172219679 2.1243706857 1.5707963268 1.3676273807 1.271087727 1.2156949949 
2.6469669131 2.1243706857 1.7739652728 1.5707963268 1.447813335 1.3676273807 2.8286213739 2.4613776767 2.1243706857 
1.8705049266 1.6937793186 1.5707963268 1.4827341049 2.9144344902 2.6469669131 2.3709992258 2.1243706857 1.9258976586 
1.7739652728 1.6588585487 1.5707963268 1.7563855631 1.8563003522 1.8785697967 1.9779583789 1.9913306621 2.0024758186 
2.1243706857 2.1243706857 2.1243706857 2.1243706857 2.295651703 2.2776669786 2.2630782103 2.2510113037 2.2408671392 
2.486385773 2.4475202889 2.4159740166 2.3899057108 2.3680303173 2.3494282469 2.6847397011 2.6258554882 2.5773755784 
2.5369440334 2.5028148801 2.4736848652 2.448570738 2.8758309421 2.8018393335 2.7393287203 2.6862098746 2.6407557529 
2.6015718084 2.5675431237 2.5377803997 5.8604937156 5.901393709 5.9723133995 5.9473927383 6.0216547488 6.0927478736 
5.9992719463 6.0767621038 6.1501452836 6.2190157008 6.0578962336 6.1383094565 6.2134963469 0 0.064169606361 
6.1241815303 6.206940195 6.2831853072 0.069688960264 0.13304002361 0.19043743361 6.1990255847 0 0.07624511221 
0.14487585072 0.20642320337 0.26153055843 0.3108719077 0 0.084159722458 0.15900377685 0.22528907359 0.28391336087 
0.3357925689 0.38179159818 0.42269159155 5.8604937156 5.9723133995 5.901393709 6.0927478736 6.0216547488 5.9473927383 
6.2190157008 6.1501452836 6.0767621038 5.9992719463 0.064169606361 0 6.2134963469 6.1383094565 6.0578962336 
0.19043743361 0.13304002361 0.069688960264 6.2831853072 6.206940195 6.1241815303 0.3108719077 0.26153055843 0.20642320337 
0.14487585072 0.07624511221 6.2831853072 6.1990255847 0.42269159155 0.38179159818 0.3357925689 0.28391336087 0.22528907359 
0.15900377685 0.084159722458 0 5.6793730533 5.7091357773 5.5901633916 5.743164462 5.6152775188 5.4910209005 
5.7823484065 5.6444075337 5.5096229709 5.3824597928 5.8278025282 5.678536687 5.5314983644 5.3926039573 5.2659633393 
5.8809213739 5.718968232 5.5575666702 5.4046708639 5.2659633393 5.1440684722 5.9434319871 5.7674481418 5.5891129425 
5.4192596322 5.2659633393 5.1329233157 5.0201624502 6.0174235957 5.8263323547 5.6279784266 5.4372443565 5.2659633393 
5.1195510325 4.9978930058 4.8979782167 1.3852070904 1.2852923014 1.2630228569 1.1636342747 1.1502619915 1.139116835 
1.0172219679 1.0172219679 1.0172219679 1.0172219679 0.84594095064 0.86392567495 0.87851444325 0.89058134991 0.90072551443 
0.6552068806 0.69407236469 0.72561863695 0.75168694275 0.77356233629 0.79216440667 0.45685295248 0.51573716537 0.56421707518 
0.60464862014 0.63877777351 0.66790778838 0.69302191562 0.26576171152 0.33975332011 0.40226393329 0.45538277901 0.50083690068 
0.54002084522 0.57404952988 0.60381225391 
_paraPhiHalf 1 1002 double
0 3.1415926536 0 3.1415926536 1.5707963268 1.5707963268 1.5707963268 1.5707963268 2.5880182947 
0.5535743589 2.5880182947 0.5535743589 0 0 0 0 3.1415926536 3.1415926536 
3.1415926536 3.1415926536 3.1415926536 0.17788134 0.38438696014 0.60631181711 0.82323535693 1.0172219679 1.1799687454 
1.3118704726 1.4175000338 1.5022335207 0.17788134 0.38438696014 0.60631181711 0.82323535693 1.0172219679 1.1799687454 
1.3118704726 1.4175000338 1.5022335207 0.093902416448 0.17615329733 0.2478725152 0.31035131605 0.36486382811 0.41257334776 
0.45449736604 0.4915044461 0.52432611754 0.093902416448 0.17615329733 0.2478725152 0.31035131605 0.36486382811 0.41257334776 
0.45449736604 0.4915044461 0.52432611754 2.9637113136 2.7572056934 2.5352808365 2.3183572967 2.1243706857 1.9616239082 
1.829722181 1.7240926197 1.6393591329 2.9637113136 2.7572056934 2.5352808365 2.3183572967 2.1243706857 1.9616239082 
1.829722181 1.7240926197 1.6393591329 3.0476902371 2.9654393563 2.8937201384 2.8312413375 2.7767288255 2.7290193058 
2.6870952876 2.6500882075 2.617266536 3.0476902371 2.9654393563 2.8937201384 2.8312413375 2.7767288255 2.7290193058 
2.6870952876 2.6500882075 2.617266536 0 0 0 0 3.1415926536 3.1415926536 
3.1415926536 3.1415926536 3.1415926536 0.17788134 0.38438696014 0.60631181711 0.82323535693 1.0172219679 1.1799687454 
1.3118704726 1.4175000338 1.5022335207 0.17788134 0.38438696014 0.60631181711 0.82323535693 1.0172219679 1.1799687454 
1.3118704726 1.4175000338 1.5022335207 0.093902416448 0.17615329733 0.2478725152 0.31035131605 0.36486382811 0.41257334776 
0.45449736604 0.4915044461 0.52432611754 0.093902416448 0.17615329733 0.2478725152 0.31035131605 0.36486382811 0.41257334776 
0.45449736604 0.4915044461 0.52432611754 2.9637113136 2.7572056934 2.5352808365 2.3183572967 2.1243706857 1.9616239082 
1.829722181 1.7240926197 1.6393591329 2.9637113136 2.7572056934 2.5352808365 2.3183572967 2.1243706857 1.9616239082 
1.829722181 1.7240926197 1.6393591329 3.0476902371 2.9654393563 2.8937201384 2.8312413375 2.7767288255 2.7290193058 
2.6870952876 2.6500882075 2.617266536 3.0476902371 2.9654393563 2.8937201384 2.8312413375 2.7767288255 2.7290193058 
2.6870952876 2.6500882075 2.617266536 1.5707963268 1.5707963268 1.5707963268 1.5707963268 1.5707963268 1.5707963268 
1.5707963268 1.5707963268 1.5707963268 1.6743954455 1.7840462375 1.8974821136 2.0119052671 2.1243706857 2.232221744 
2.3334263672 2.426721652 2.5115728246 1.4671972081 1.3575464161 1.24411054 1.1296873865 1.0172219679 0.90937090954 
0.80816628637 0.71487100155 0.63001982895 1.6743954455 1.7840462375 1.8974821136 2.0119052671 2.1243706857 2.232221744 
2.3334263672 2.426721652 2.5115728246 1.4671972081 1.3575464161 1.24411054 1.1296873865 1.0172219679 0.90937090954 
0.80816628637 0.71487100155 0.63001982895 1.5707963268 1.5707963268 1.5707963268 1.5707963268 1.5707963268 1.5707963268 
1.5707963268 1.5707963268 1.5707963268 1.6743954455 1.7840462375 1.8974821136 2.0119052671 2.1243706857 2.232221744 
2.3334263672 2.426721652 2.5115728246 1.4671972081 1.3575464161 1.24411054 1.1296873865 1.0172219679 0.90937090954 
0.80816628637 0.71487100155 0.63001982895 1.6743954455 1.7840462375 1.8974821136 2.0119052671 2.1243706857 2.232221744 
2.3334263672 2.426721652 2.5115728246 1.4671972081 1.3575464161 1.24411054 1.1296873865 1.0172219679 0.90937090954 
0.80816628637 0.71487100155 0.63001982895 2.6824132222 2.7864913217 2.8992382033 3.0186096618 3.1415926536 3.0186096618 
2.8992382033 2.7864913217 2.6824132222 0.45917943135 0.35510133185 0.2423544503 0.12298299178 0 0.12298299178 
0.2423544503 0.35510133185 0.45917943135 0.22715816343 0.49462574053 0.3129712797 0.77059342779 0.68021497688 0.49462574053 
1.0172219679 1.0172219679 1.0172219679 1.0172219679 1.2156949949 1.271087727 1.3676273807 1.5707963268 2.1243706857 
1.3676273807 1.447813335 1.5707963268 1.7739652728 2.1243706857 2.6469669131 1.4827341049 1.5707963268 1.6937793186 
1.8705049266 2.1243706857 2.4613776767 2.8286213739 1.5707963268 1.6588585487 1.7739652728 1.9258976586 2.1243706857 
2.3709992258 2.6469669131 2.9144344902 0.26576171152 0.33975332011 0.45685295248 0.40226393329 0.51573716537 0.6552068806 
0.45538277901 0.56421707518 0.69407236469 0.84594095064 0.50083690068 0.60464862014 0.72561863695 0.86392567495 1.0172219679 
0.54002084522 0.63877777351 0.75168694275 0.87851444325 1.0172219679 1.1636342747 0.57404952988 0.66790778838 0.77356233629 
0.89058134991 1.0172219679 1.1502619915 1.2852923014 0.60381225391 0.69302191562 0.79216440667 0.90072551443 1.0172219679 
1.139116835 1.2630228569 1.3852070904 0.71487100155 0.80816628637 0.80816628637 0.90937090954 0.90937090954 0.90937090954 
1.0172219679 1.0172219679 1.0172219679 1.0172219679 1.1296873865 1.1296873865 1.1296873865 1.1296873865 1.1296873865 
1.24411054 1.24411054 1.24411054 1.24411054 1.24411054 1.24411054 1.3575464161 1.3575464161 1.3575464161 
1.3575464161 1.3575464161 1.3575464161 1.3575464161 1.4671972081 1.4671972081 1.4671972081 1.4671972081 1.4671972081 
1.4671972081 1.4671972081 1.4671972081 1.6743954455 1.6743954455 1.7840462375 1.6743954455 1.7840462375 1.8974821136 
1.6743954455 1.7840462375 1.8974821136 2.0119052671 1.6743954455 1.7840462375 1.8974821136 2.0119052671 2.1243706857 
1.6743954455 1.7840462375 1.8974821136 2.0119052671 2.1243706857 2.232221744 1.6743954455 1.7840462375 1.8974821136 
2.0119052671 2.1243706857 2.232221744 2.3334263672 1.6743954455 1.7840462375 1.8974821136 2.0119052671 2.1243706857 
2.232221744 2.3334263672 2.426721652 1.7563855631 1.8785697967 1.8563003522 2.0024758186 1.9913306621 1.9779583789 
2.1243706857 2.1243706857 2.1243706857 2.1243706857 2.2408671392 2.2510113037 2.2630782103 2.2776669786 2.295651703 
2.3494282469 2.3680303173 2.3899057108 2.4159740166 2.4475202889 2.486385773 2.448570738 2.4736848652 2.5028148801 
2.5369440334 2.5773755784 2.6258554882 2.6847397011 2.5377803997 2.5675431237 2.6015718084 2.6407557529 2.6862098746 
2.7393287203 2.8018393335 2.8758309421 2.718901062 2.8307207459 2.7598010554 2.95115522 2.8800620952 2.8058000847 
3.0774230472 3.00855263 2.9351694502 2.8576792927 3.0774230472 3.1415926536 3.0719036933 2.9967168029 2.91630358 
2.95115522 3.00855263 3.0719036933 3.1415926536 3.0653475414 2.9825888767 2.8307207459 2.8800620952 2.9351694502 
2.9967168029 3.0653475414 3.1415926536 3.0574329311 2.718901062 2.7598010554 2.8058000847 2.8576792927 2.91630358 
2.9825888767 3.0574329311 3.1415926536 2.718901062 2.7598010554 2.8307207459 2.8058000847 2.8800620952 2.95115522 
2.8576792927 2.9351694502 3.00855263 3.0774230472 2.91630358 2.9967168029 3.0719036933 3.1415926536 3.0774230472 
2.9825888767 3.0653475414 3.1415926536 3.0719036933 3.00855263 2.95115522 3.0574329311 3.1415926536 3.0653475414 