# vtk DataFile Version 4.2
vtk output
ASCII
DATASET POLYDATA
POINTS 100 float
36.4481 21.2059 56.1668 36.448 21.2168 56.1402 36.4484 21.2532 56.0722 
36.4472 21.3161 55.9634 36.4414 21.4073 55.8147 36.4272 21.529 55.6274 
36.4007 21.6832 55.4032 36.3581 21.872 55.1439 36.2961 22.0968 54.8517 
36.2126 22.3585 54.529 36.1065 22.6569 54.1784 35.978 22.9914 53.8025 
35.8284 23.3605 53.4041 35.6598 23.7622 52.9856 35.4751 24.1942 52.5495 
35.2774 24.6544 52.098 35.0696 25.1409 51.633 34.8545 25.6522 51.1563 
34.6342 26.1876 50.6692 34.4104 26.7471 50.1732 34.1842 27.3312 49.6693 
33.9566 27.9412 49.1587 33.7283 28.5785 48.6427 33.4999 29.2447 48.1224 
33.2728 29.9412 47.5993 33.0485 30.6693 47.0749 32.8289 31.4295 46.5507 
32.6165 32.2221 46.0283 32.414 33.0469 45.5092 32.224 33.9032 44.9948 
32.0487 34.7904 44.486 31.8899 35.7076 43.9836 31.7487 36.6543 43.4882 
31.6254 37.6302 42.9996 31.5193 38.6352 42.518 31.4295 39.6699 42.0428 
31.3546 40.7345 41.5738 31.2937 41.8295 41.1108 31.2462 42.9549 40.6539 
31.2126 44.11 40.2034 31.1947 45.293 39.7601 31.1957 46.501 39.3252 
31.2201 47.7296 38.9004 31.2734 48.9731 38.4872 31.3619 50.2246 38.0875 
31.4915 51.4761 37.7028 31.6679 52.7193 37.3345 31.8951 53.9455 36.983 
32.1753 55.1466 36.6483 32.5083 56.3153 36.3296 32.8913 57.4457 36.025 
33.3191 58.5336 35.7322 33.7842 59.5764 35.4483 34.2778 60.5734 35.17 
34.79 61.5256 34.894 35.3108 62.4354 34.6173 35.8314 63.3063 34.3373 
36.3442 64.1421 34.0524 36.8436 64.9472 33.7614 37.3267 65.7256 33.4643 
37.7927 66.4806 33.1618 38.243 67.2151 32.8554 38.6806 67.9311 32.5468 
39.1096 68.6296 32.2383 39.5342 69.3111 31.9319 39.9583 69.9758 31.6293 
40.3849 70.6235 31.3319 40.8153 71.2538 31.0404 41.2492 71.8669 30.755 
41.6849 72.4629 30.4751 42.1192 73.0427 30.2001 42.548 73.6072 29.9287 
42.9671 74.1578 29.6599 43.3725 74.696 29.3927 43.7607 75.2234 29.1266 
44.1298 75.7412 28.8617 44.479 76.2506 28.5983 44.8089 76.7522 28.3378 
45.1213 77.2463 28.0815 45.4187 77.7326 27.8315 45.704 78.2106 27.5897 
45.9795 78.6795 27.358 46.2471 79.1381 27.1382 46.5075 79.5854 26.9314 
46.7599 80.02 26.7385 47.0026 80.4409 26.5596 47.2326 80.8468 26.3944 
47.4464 81.2364 26.2425 47.6402 81.6083 26.103 47.8107 81.9609 25.9751 
47.9556 82.2922 25.858 48.0737 82.6 25.7515 48.1655 82.8818 25.6553 
48.2327 83.1347 25.5699 48.2787 83.3556 25.4959 48.3076 83.5415 25.4343 
48.324 83.6895 25.3862 48.3322 83.7971 25.3526 48.3358 83.8624 25.3343 
48.3371 83.8842 25.3318 
LINES 1 101
100 0 1 2 3 4 5 6 7 8 9 10 11 12 13 14 15 16 17 18 19 20 21 22 23 24 25 26 27 28 29 30 31 32 33 34 35 36 37 38 39 40 41 42 43 44 45 46 47 48 49 50 51 52 53 54 55 56 57 58 59 60 61 62 63 64 65 66 67 68 69 70 71 72 73 74 75 76 77 78 79 80 81 82 83 84 85 86 87 88 89 90 91 92 93 94 95 96 97 98 99 

POINT_DATA 100
FIELD FieldData 3
_theta 1 100 double
0 0.031733259127 0.063466518254 0.095199777382 0.12693303651 0.15866629564 0.19039955476 0.22213281389 0.25386607302 
0.28559933214 0.31733259127 0.3490658504 0.38079910953 0.41253236865 0.44426562778 0.47599888691 0.50773214603 0.53946540516 
0.57119866429 0.60293192342 0.63466518254 0.66639844167 0.6981317008 0.72986495992 0.76159821905 0.79333147818 0.82506473731 
0.85679799643 0.88853125556 0.92026451469 0.95199777382 0.98373103294 1.0154642921 1.0471975512 1.0789308103 1.1106640695 
1.1423973286 1.1741305877 1.2058638468 1.237597106 1.2693303651 1.3010636242 1.3327968833 1.3645301425 1.3962634016 
1.4279966607 1.4597299198 1.491463179 1.5231964381 1.5549296972 1.5866629564 1.6183962155 1.6501294746 1.6818627337 
1.7135959929 1.745329252 1.7770625111 1.8087957702 1.8405290294 1.8722622885 1.9039955476 1.9357288068 1.9674620659 
1.999195325 2.0309285841 2.0626618433 2.0943951024 2.1261283615 2.1578616206 2.1895948798 2.2213281389 2.253061398 
2.2847946572 2.3165279163 2.3482611754 2.3799944345 2.4117276937 2.4434609528 2.4751942119 2.506927471 2.5386607302 
2.5703939893 2.6021272484 2.6338605076 2.6655937667 2.6973270258 2.7290602849 2.7607935441 2.7925268032 2.8242600623 
2.8559933214 2.8877265806 2.9194598397 2.9511930988 2.982926358 3.0146596171 3.0463928762 3.0781261353 3.1098593945 
3.1415926536 
_radius 1 100 double
9.2711533389e-14 0.70906899212 1.4085620676 2.089252471 2.7427440478 3.3618136389 3.9406650124 4.475075789 4.9624295957 
5.4016385687 5.7929743008 6.1378357005 6.4384874417 6.6978014551 6.9190268607 7.1056032912 7.2610220184 7.3887315945 
7.4920813011 7.5742959014 7.6384763929 7.6876203924 7.7246507904 7.7524341824 7.7737662137 7.7913043649 7.8074415107 
7.8241327835 7.8427075253 7.8637105744 7.8868180983 7.9108618113 7.9339750929 7.9538515186 7.968087076 7.9745656895 
7.9718437066 7.9594902072 7.9383437479 7.9106516221 7.8800660531 7.8514845101 7.8307383991 7.8241529081 7.8380168948 
7.8780139178 7.9486754729 8.0529241434 8.1917674983 8.3641719821 8.5670989581 8.7956559378 9.0433290187 9.3023007675 
9.5638803162 9.8190567435 10.059143863 10.27644191 10.464821315 10.620141846 10.740449784 10.825934085 10.87865962 
10.902125169 10.900712919 10.87910318 10.841722838 10.792281116 10.733426711 10.666542616 10.591683248 10.507652029 
10.412211758 10.302409815 10.174984606 10.026803132 9.8552689249 9.6586404675 9.4362135622 9.1883439311 8.916312943 
8.622063916 8.3078542238 7.9758769039 7.6279046672 7.265001598 6.8873369715 6.4941241583 6.0836957059 5.6537118587 
5.2014833668 4.7243727976 4.2202261769 3.6877822556 3.1270104091 2.5393377372 1.9277383681 1.2966716769 0.65187095752 
7.1973674022e-14 
_area 1 100 double
0 1.4232362327 5.6287987517 12.427792778 21.517444552 32.499698693 44.907346718 58.236123714 71.979560363 
85.662208404 98.866830559 111.25245487 122.56242407 132.62387604 141.34159961 148.68943937 154.70148803 159.46380613 
163.10609876 165.79219108 167.70841974 169.04998566 170.0064595 170.74840159 171.41690722 172.11682943 172.91329611 
173.83084817 174.8551085 175.93755945 177.00409311 177.9674616 178.74292639 179.26554538 179.5065823 179.48533122 
179.27180652 178.97705618 178.73285824 178.66919984 178.89989947 179.52069104 180.61624472 182.27090379 184.58125031 
187.67004573 191.69704955 196.85466927 203.33577872 211.28414998 220.76058379 231.73135002 244.05634265 257.46951282 
271.56584848 285.81266858 299.59321515 312.27631456 323.29542067 332.21790243 338.78988507 342.94975087 344.81135358 
344.6240814 342.72027386 339.46122702 335.19140771 330.20656223 324.73590552 318.93426966 312.87967612 306.57464466 
299.95257764 292.89153236 285.23636764 276.82750256 267.53160247 257.26772424 246.02282675 233.85328723 220.87323614 
207.23434921 193.10344857 178.64325612 163.99898901 149.29114125 134.6139588 120.03942608 105.62683224 91.437358796 
77.55175142 64.087744807 51.2132168 39.151384007 28.17563181 18.593465523 10.721157218 4.8525402105 1.2267241261 
4.5474735089e-13 
