# vtk DataFile Version 5.1
vtk output
ASCII
DATASET POLYDATA
POINTS 1002 float
-5.50577 -0.187246 -4.09728 5.53403 0.190549 -2.75366 -4.90025 0.0386764 4.6872 
4.36232 0.072234 4.45548 0.461532 6.22404 -2.35366 0.86034 7.47728 3.78681 
-0.574435 -6.11297 -2.19131 -0.0699074 -7.33946 3.79583 9.18973 4.73454 -0.883824 
-10.9986 4.7729 -2.07524 9.81161 -4.97193 -1.5423 -7.88761 -4.43864 -1.29806 
-4.59886 -0.186036 -3.9736 -3.5768 -0.164889 -3.70579 -2.46897 -0.158564 -3.30631 
-1.31129 -0.154831 -2.85601 -0.112936 -0.0935944 -2.45827 1.12737 0.0249562 -2.17879 
2.36673 0.122153 -2.06268 3.53413 0.160155 -2.15107 4.59088 0.172578 -2.41783 
-5.23145 0.412643 -3.9685 -4.86303 1.06021 -3.72507 -4.3922 1.71839 -3.35991 
-3.81338 2.36703 -2.90143 -3.1096 3.03293 -2.42409 -2.28679 3.73238 -2.03505 
-1.42919 4.42109 -1.84123 -0.658693 5.05887 -1.88844 -0.035292 5.65638 -2.10812 
-5.19857 -0.78413 -4.11627 -4.85151 -1.41433 -4.0696 -4.45097 -2.0764 -3.92814 
-3.98829 -2.75814 -3.69526 -3.47228 -3.4304 -3.42085 -2.91972 -4.06299 -3.16079 
-2.34207 -4.64448 -2.92256 -1.74892 -5.17768 -2.68087 -1.15403 -5.66624 -2.43049 
-6.25347 0.235472 -4.09183 -7.0893 0.772274 -4.06386 -7.96621 1.3835 -4.02922 
-8.82284 1.99897 -4.004 -9.68024 2.64328 -4.01285 -10.578 3.41012 -4.01898 
-11.3584 4.21523 -3.87543 -11.724 4.77841 -3.45783 -11.5541 4.93272 -2.80716 
-6.16858 -0.542131 -4.12324 -6.79932 -0.936898 -4.03324 -7.38018 -1.40159 -3.90484 
-7.91373 -1.9605 -3.85054 -8.36948 -2.60994 -3.85427 -8.65559 -3.30752 -3.71955 
-8.6964 -3.94253 -3.28676 -8.51672 -4.36357 -2.62285 -8.21574 -4.50374 -1.91846 
5.30233 0.74274 -2.65521 4.98634 1.36335 -2.50788 4.56839 2.02959 -2.34034 
4.03761 2.69781 -2.21519 3.41061 3.343 -2.19292 2.74793 3.97271 -2.27907 
2.11894 4.59356 -2.41093 1.54391 5.19084 -2.49946 0.997944 5.74085 -2.48359 
5.12345 -0.361775 -2.57631 4.59645 -0.974979 -2.3366 3.97846 -1.65685 -2.12112 
3.32295 -2.35628 -1.99962 2.6633 -3.02178 -1.95617 1.98538 -3.67872 -1.94443 
1.28092 -4.35972 -1.97216 0.590725 -5.02156 -2.05624 -0.0342995 -5.60759 -2.15276 
6.31184 0.57052 -3.0041 7.09081 1.03251 -3.14722 7.86621 1.56486 -3.22728 
8.67255 2.15825 -3.39273 9.48818 2.84794 -3.63559 10.1231 3.62548 -3.6438 
10.3441 4.31975 -3.15776 10.131 4.72463 -2.32723 9.67961 4.81611 -1.50558 
6.23786 -0.139594 -3.01302 7.00448 -0.537172 -3.25888 7.78753 -1.02596 -3.439 
8.50489 -1.57607 -3.55543 9.11664 -2.12961 -3.65193 9.64462 -2.70933 -3.67453 
10.0596 -3.37908 -3.45563 10.2486 -4.07728 -2.92806 10.1466 -4.63993 -2.22699 
-4.04763 0.0738197 4.87398 -3.11074 0.121245 5.09046 -2.09862 0.158754 5.40365 
-1.02784 0.167208 5.76134 0.0548651 0.16446 5.9761 1.07908 0.173973 5.93388 
2.01072 0.176996 5.70516 2.86567 0.149747 5.37891 3.65434 0.106474 4.96075 
-4.58772 0.708143 4.82317 -4.17069 1.45095 4.89975 -3.65892 2.24701 4.94948 
-3.05674 3.10437 5.03136 -2.36182 4.02907 5.14101 -1.60449 4.95849 5.16847 
-0.857698 5.79098 5.00737 -0.186823 6.4783 4.6691 0.38418 7.03346 4.24066 
-4.62757 -0.594457 4.66087 -4.28293 -1.27114 4.6759 -3.86231 -2.0092 4.73025 
-3.37824 -2.84034 4.80548 -2.86639 -3.73765 4.87417 -2.35548 -4.61107 4.89297 
-1.83384 -5.40436 4.80523 -1.27311 -6.12381 4.57523 -0.674118 -6.77446 4.21941 
-5.58597 0.415023 4.59584 -6.34365 0.803306 4.46025 -7.14998 1.17946 4.13887 
-7.94738 1.56107 3.46947 -8.65401 1.97033 2.43998 -9.2405 2.38351 1.27117 
-9.77352 2.81514 0.218956 -10.303 3.36417 -0.650577 -10.7541 4.06027 -1.40431 
-5.5677 -0.370921 4.3854 -6.231 -0.786869 3.91912 -6.86484 -1.21707 3.3406 
-7.41775 -1.67334 2.71221 -7.79565 -2.12155 2.01449 -7.94502 -2.51293 1.22471 
-7.93756 -2.88754 0.435889 -7.8983 -3.34253 -0.238118 -7.88636 -3.89077 -0.794966 
4.16433 0.761396 4.60749 3.92382 1.5199 4.72011 3.64289 2.32513 4.80116 
3.31762 3.15891 4.8569 2.93285 4.01418 4.86689 2.49249 4.85924 4.79997 
2.03994 5.63756 4.65129 1.61929 6.32579 4.43191 1.23422 6.93863 4.14271 
4.10164 -0.594779 4.60494 3.78366 -1.33012 4.732 3.40891 -2.13709 4.82822 
2.97561 -2.99892 4.88224 2.48717 -3.88162 4.89991 1.95994 -4.76073 4.89253 
1.41779 -5.60542 4.82212 0.885488 -6.34821 4.61486 0.385211 -6.92708 4.25178 
4.92737 0.472295 3.97263 5.51177 0.903879 3.39779 6.11934 1.34539 2.77324 
6.75632 1.81074 2.13281 7.39551 2.32579 1.48799 7.97076 2.85592 0.875071 
8.43111 3.34343 0.361212 8.77739 3.80262 -0.0470392 9.02971 4.27493 -0.434695 
4.9033 -0.362787 3.95095 5.48539 -0.826402 3.3164 6.11034 -1.32276 2.58905 
6.76105 -1.85254 1.80959 7.38795 -2.3808 1.02723 7.98067 -2.88106 0.343445 
8.59329 -3.40234 -0.164537 9.20436 -3.98566 -0.56995 9.65707 -4.55292 -1.01598 
0.406247 6.87256 -2.28818 0.355356 7.54623 -1.98675 0.326984 8.14486 -1.42462 
0.333237 8.59242 -0.702607 0.393349 8.88556 0.0585695 0.521903 9.01633 0.842319 
0.686394 8.9155 1.66846 0.817378 8.5579 2.48295 0.872415 8.036 3.20145 
1.25102 6.47623 -2.65865 2.09529 6.6443 -2.83766 3.03926 6.66115 -2.79392 
4.08401 6.52005 -2.5782 5.18653 6.31228 -2.34563 6.29465 6.13954 -2.15105 
7.3311 5.98 -1.90639 8.18908 5.71599 -1.56473 8.80292 5.28481 -1.1959 
-0.439076 6.3027 -2.019 -1.53633 6.32641 -1.6917 -2.79609 6.33817 -1.47124 
-4.13067 6.42511 -1.44399 -5.47854 6.62852 -1.64418 -6.84288 6.8206 -1.99343 
-8.19916 6.75978 -2.30242 -9.42171 6.32083 -2.41384 -10.3695 5.596 -2.31347 
1.54597 7.50697 3.51814 2.29029 7.41375 3.13758 3.1155 7.1996 2.63886 
4.01316 6.88058 2.05676 4.95658 6.46875 1.44614 5.92479 5.99678 0.847111 
6.87589 5.55075 0.298946 7.74537 5.20965 -0.15956 8.50784 4.96279 -0.536082 
0.145511 7.6777 3.63372 -0.741836 7.71427 3.35461 -1.83001 7.52408 2.9283 
-3.11466 7.12344 2.35051 -4.54531 6.60002 1.63965 -6.01328 6.05836 0.844139 
-7.41173 5.59149 0.0291172 -8.71523 5.25124 -0.752579 -9.92943 5.00761 -1.46488 
-0.512184 -6.70653 -1.99368 -0.409101 -7.37222 -1.65142 -0.273655 -8.05967 -1.12323 
-0.118537 -8.63432 -0.422912 0.0385586 -8.93753 0.359809 0.158703 -8.9234 1.1193 
0.195832 -8.68102 1.82675 0.142849 -8.30997 2.51498 0.0387347 -7.85378 3.18662 
0.357156 -6.24986 -1.97267 1.40084 -6.37936 -1.78149 2.55293 -6.48094 -1.66031 
3.78442 -6.55849 -1.66003 5.02033 -6.64549 -1.79167 6.20121 -6.71757 -1.97502 
7.32849 -6.63924 -2.07243 8.37635 -6.28802 -2.00197 9.2369 -5.68848 -1.79517 
-1.45694 -6.32443 -2.31242 -2.38912 -6.54513 -2.40177 -3.33329 -6.75509 -2.45277 
-4.25117 -6.89 -2.44395 -5.10625 -6.87994 -2.35246 -5.86479 -6.69826 -2.1912 
-6.51477 -6.34198 -1.992 -7.06515 -5.81204 -1.7695 -7.52132 -5.14873 -1.53264 
0.84922 -7.64322 3.60575 1.8688 -7.90429 3.29873 2.96573 -8.04128 2.8536 
4.13442 -7.98237 2.28109 5.34716 -7.72327 1.61591 6.50352 -7.32288 0.903715 
7.50033 -6.83402 0.199995 8.34246 -6.26986 -0.449476 9.10328 -5.63861 -1.02939 
-0.902562 -7.34113 3.55323 -1.78777 -7.31753 3.26033 -2.70466 -7.25172 2.91858 
-3.63423 -7.05373 2.44898 -4.53189 -6.63978 1.78431 -5.34064 -6.0637 1.00428 
-6.0543 -5.49778 0.272779 -6.71169 -5.06231 -0.334822 -7.32875 -4.73827 -0.846396 
9.77646 4.14067 -0.943579 10.3592 3.36547 -1.01786 10.8852 2.41769 -1.09751 
11.2706 1.33005 -1.19965 11.4823 0.159798 -1.36087 11.5394 -1.00707 -1.56093 
11.4133 -2.09856 -1.70762 11.0488 -3.10928 -1.73762 10.4779 -4.06802 -1.66786 
-11.852 4.04488 -2.18447 -12.5207 3.1732 -2.15068 -12.8026 2.15641 -1.95912 
-12.5161 1.05128 -1.68217 -11.6912 -0.050691 -1.46797 -10.6421 -1.08981 -1.40739 
-9.71387 -2.05697 -1.44175 -9.00534 -2.95085 -1.45656 -8.42492 -3.75179 -1.4034 
-4.21779 0.435381 -3.75758 -3.74784 1.08932 -3.42466 -3.10056 0.465766 -3.42365 
-3.1851 1.73399 -2.98988 -2.5346 1.11481 -3.04113 -1.90357 0.464436 -2.99575 
-2.51676 2.38022 -2.51841 -1.8734 1.75779 -2.59154 -1.23817 1.11349 -2.60601 
-0.651609 0.468341 -2.5526 -1.73169 3.08249 -2.12065 -1.1191 2.4369 -2.18137 
-0.487012 1.78904 -2.20323 0.103146 1.13725 -2.20467 0.636159 0.543217 -2.20278 
-0.886013 3.82581 -1.90714 -0.31121 3.1853 -1.94364 0.298099 2.52374 -1.93652 
0.895261 1.85378 -1.92794 1.43871 1.22066 -1.97034 1.92933 0.653724 -2.03695 
-0.107363 4.52788 -1.93883 0.448502 3.93206 -1.94848 1.03326 3.28781 -1.90894 
1.63749 2.61202 -1.85974 2.21222 1.93922 -1.87978 2.72576 1.3069 -1.98329 
3.16976 0.71858 -2.09409 0.516451 5.15831 -2.17736 1.0676 4.59814 -2.17128 
1.64279 3.98812 -2.09897 2.25909 3.3413 -2.00711 2.87991 2.67312 -1.97649 
3.44477 2.00234 -2.05549 3.92088 1.3494 -2.20255 4.30155 0.73474 -2.33632 
-6.01462 0.906515 -3.98015 -6.87738 1.52574 -3.98414 -5.64605 1.6208 -3.7414 
-7.75237 2.20847 -3.98718 -6.48421 2.30779 -3.76534 -5.13267 2.33856 -3.35571 
-8.58767 2.88507 -3.99273 -7.3049 3.03504 -3.78287 -5.89295 3.07035 -3.35761 
-4.47234 3.04259 -2.85037 -9.40865 3.62275 -4.00021 -8.06885 3.75394 -3.77355 
-6.61341 3.80629 -3.33102 -5.12453 3.78571 -2.7872 -3.66738 3.74177 -2.32169 
-10.1785 4.48332 -3.92739 -8.77025 4.56502 -3.7122 -7.25942 4.54241 -3.25108 
-5.73387 4.49388 -2.68419 -4.22443 4.45021 -2.20047 -2.76292 4.42416 -1.91687 
-10.6823 5.25821 -3.62547 -9.31583 5.45105 -3.50891 -7.79019 5.38737 -3.0961 
-6.25742 5.22766 -2.5369 -4.75308 5.11534 -2.05621 -3.26809 5.07617 -1.7912 
-1.86804 5.06973 -1.75592 -10.7313 5.64479 -3.04869 -9.54775 6.11508 -3.06662 
-8.12321 6.2307 -2.79623 -6.63985 6.06489 -2.3265 -5.18811 5.84052 -1.88299 
-3.75134 5.71911 -1.64493 -2.34971 5.69566 -1.6476 -1.08422 5.69214 -1.83387 
-9.21287 5.91339 -1.60902 -7.90989 6.21605 -0.795193 -8.20146 6.73044 -1.62787 
-6.51326 6.57416 0.0586867 -6.8549 7.08536 -0.758173 -6.96285 7.22497 -1.48731 
-5.03312 7.00959 0.875798 -5.42384 7.43104 0.0880108 -5.62489 7.60917 -0.666143 
-5.62938 7.30676 -1.26165 -3.53137 7.49087 1.58926 -3.93504 7.80973 0.817326 
-4.21326 7.95644 0.053505 -4.32231 7.74457 -0.621278 -4.28636 7.15758 -1.12285 
-2.12838 7.9365 2.17108 -2.48003 8.22735 1.39265 -2.7867 8.33154 0.618237 
-2.96808 8.17355 -0.114222 -3.01883 7.70803 -0.739097 -2.95676 7.03205 -1.19383 
-0.916056 8.21739 2.62949 -1.1737 8.58232 1.8421 -1.45395 8.71756 1.04398 
-1.66483 8.60455 0.273454 -1.76609 8.25333 -0.444503 -1.7689 7.68539 -1.05251 
[...]
POINT_DATA 1002
FIELD FieldData 4
_paraPhi 1 1002 double
6.2831853072 3.1415926536 6.2831853072 3.1415926536 4.7123889804 4.7123889804 1.5707963268 1.5707963268 3.6951670125 
5.7296109483 2.5880182947 0.5535743589 6.2831853072 6.2831853072 6.2831853072 6.2831853072 3.1415926536 3.1415926536 
3.1415926536 3.1415926536 3.1415926536 6.1053039672 5.898798347 5.6768734901 5.4599499503 5.2659633393 5.1032165617 
4.9713148346 4.8656852733 4.7809517865 0.17788134 0.38438696014 0.60631181711 0.82323535693 1.0172219679 1.1799687454 
1.3118704726 1.4175000338 1.5022335207 6.1892828907 6.1070320098 6.035312792 5.9728339911 5.9183214791 5.8706119594 
5.8286879411 5.7916808611 5.7588591896 0.093902416448 0.17615329733 0.2478725152 0.31035131605 0.36486382811 0.41257334776 
0.45449736604 0.4915044461 0.52432611754 3.3194739936 3.5259796137 3.7479044707 3.9648280105 4.1588146215 4.321561399 
4.4534631262 4.5590926874 4.6438261743 2.9637113136 2.7572056934 2.5352808365 2.3183572967 2.1243706857 1.9616239082 
1.829722181 1.7240926197 1.6393591329 3.23549507 3.3177459509 3.3894651688 3.4519439696 3.5064564817 3.5541660013 
3.5960900196 3.6330970997 3.6659187711 3.0476902371 2.9654393563 2.8937201384 2.8312413375 2.7767288255 2.7290193058 
2.6870952876 2.6500882075 2.617266536 6.2831853072 6.2831853072 6.2831853072 6.2831853072 3.1415926536 3.1415926536 
3.1415926536 3.1415926536 3.1415926536 6.1053039672 5.898798347 5.6768734901 5.4599499503 5.2659633393 5.1032165617 
4.9713148346 4.8656852733 4.7809517865 0.17788134 0.38438696014 0.60631181711 0.82323535693 1.0172219679 1.1799687454 
1.3118704726 1.4175000338 1.5022335207 6.1892828907 6.1070320098 6.035312792 5.9728339911 5.9183214791 5.8706119594 
5.8286879411 5.7916808611 5.7588591896 0.093902416448 0.17615329733 0.2478725152 0.31035131605 0.36486382811 0.41257334776 
0.45449736604 0.4915044461 0.52432611754 3.3194739936 3.5259796137 3.7479044707 3.9648280105 4.1588146215 4.321561399 
4.4534631262 4.5590926874 4.6438261743 2.9637113136 2.7572056934 2.5352808365 2.3183572967 2.1243706857 1.9616239082 
1.829722181 1.7240926197 1.6393591329 3.23549507 3.3177459509 3.3894651688 3.4519439696 3.5064564817 3.5541660013 
3.5960900196 3.6330970997 3.6659187711 3.0476902371 2.9654393563 2.8937201384 2.8312413375 2.7767288255 2.7290193058 
2.6870952876 2.6500882075 2.617266536 4.7123889804 4.7123889804 4.7123889804 4.7123889804 4.7123889804 4.7123889804 
4.7123889804 4.7123889804 4.7123889804 4.6087898617 4.4991390697 4.3857031936 4.2712800401 4.1588146215 4.0509635631 
3.94975894 3.8564636551 3.7716124825 4.8159880991 4.9256388911 5.0390747672 5.1534979207 5.2659633393 5.3738143976 
5.4750190208 5.5683143056 5.6531654782 4.6087898617 4.4991390697 4.3857031936 4.2712800401 4.1588146215 4.0509635631 
3.94975894 3.8564636551 3.7716124825 4.8159880991 4.9256388911 5.0390747672 5.1534979207 5.2659633393 5.3738143976 
5.4750190208 5.5683143056 5.6531654782 1.5707963268 1.5707963268 1.5707963268 1.5707963268 1.5707963268 1.5707963268 
1.5707963268 1.5707963268 1.5707963268 1.6743954455 1.7840462375 1.8974821136 2.0119052671 2.1243706857 2.232221744 
2.3334263672 2.426721652 2.5115728246 1.4671972081 1.3575464161 1.24411054 1.1296873865 1.0172219679 0.90937090954 
0.80816628637 0.71487100155 0.63001982895 1.6743954455 1.7840462375 1.8974821136 2.0119052671 2.1243706857 2.232221744 
2.3334263672 2.426721652 2.5115728246 1.4671972081 1.3575464161 1.24411054 1.1296873865 1.0172219679 0.90937090954 
0.80816628637 0.71487100155 0.63001982895 3.6007720849 3.4966939854 3.3839471039 3.2645756454 3.1415926536 3.0186096618 
2.8992382033 2.7864913217 2.6824132222 5.8240058758 5.9280839753 6.0408308569 6.1602023154 6.2831853072 0.12298299178 
0.2423544503 0.35510133185 0.45917943135 6.0560271438 5.7885595667 5.9702140275 5.5125918794 5.6029703303 5.7885595667 
5.2659633393 5.2659633393 5.2659633393 5.2659633393 5.0674903122 5.0120975802 4.9155579264 4.7123889804 4.1588146215 
4.9155579264 4.8353719722 4.7123889804 4.5092200343 4.1588146215 3.6362183941 4.8004512023 4.7123889804 4.5894059886 
4.4126803806 4.1588146215 3.8218076305 3.4545639333 4.7123889804 4.6243267584 4.5092200343 4.3572876485 4.1588146215 
3.9121860814 3.6362183941 3.368750817 6.0174235957 5.9434319871 5.8263323547 5.8809213739 5.7674481418 5.6279784266 
5.8278025282 5.718968232 5.5891129425 5.4372443565 5.7823484065 5.678536687 5.5575666702 5.4192596322 5.2659633393 
5.743164462 5.6444075337 5.5314983644 5.4046708639 5.2659633393 5.1195510325 5.7091357773 5.6152775188 5.5096229709 
5.3926039573 5.2659633393 5.1329233157 4.9978930058 5.6793730533 5.5901633916 5.4910209005 5.3824597928 5.2659633393 
5.1440684722 5.0201624502 4.8979782167 5.5683143056 5.4750190208 5.4750190208 5.3738143976 5.3738143976 5.3738143976 
5.2659633393 5.2659633393 5.2659633393 5.2659633393 5.1534979207 5.1534979207 5.1534979207 5.1534979207 5.1534979207 
5.0390747672 5.0390747672 5.0390747672 5.0390747672 5.0390747672 5.0390747672 4.9256388911 4.9256388911 4.9256388911 
4.9256388911 4.9256388911 4.9256388911 4.9256388911 4.8159880991 4.8159880991 4.8159880991 4.8159880991 4.8159880991 
4.8159880991 4.8159880991 4.8159880991 4.6087898617 4.6087898617 4.4991390697 4.6087898617 4.4991390697 4.3857031936 
4.6087898617 4.4991390697 4.3857031936 4.2712800401 4.6087898617 4.4991390697 4.3857031936 4.2712800401 4.1588146215 
4.6087898617 4.4991390697 4.3857031936 4.2712800401 4.1588146215 4.0509635631 4.6087898617 4.4991390697 4.3857031936 
4.2712800401 4.1588146215 4.0509635631 3.94975894 4.6087898617 4.4991390697 4.3857031936 4.2712800401 4.1588146215 
4.0509635631 3.94975894 3.8564636551 4.526799744 4.4046155105 4.426884955 4.2807094886 4.2918546451 4.3052269283 
4.1588146215 4.1588146215 4.1588146215 4.1588146215 4.042318168 4.0321740035 4.0201070968 4.0055183285 3.9875336042 
3.9337570603 3.9151549899 3.8932795963 3.8672112905 3.8356650183 3.7967995342 3.8346145692 3.809500442 3.7803704271 
3.7462412737 3.7058097288 3.657329819 3.5984456061 3.7454049075 3.7156421835 3.6816134988 3.6424295543 3.5969754326 
3.5438565869 3.4813459737 3.4073543651 3.5642842451 3.4524645613 3.5233842518 3.3320300872 3.403123212 3.4773852225 
3.20576226 3.2746326772 3.348015857 3.4255060145 3.0774230472 3.1415926536 3.2112816139 3.2864685043 3.3668817272 
2.95115522 3.00855263 3.0719036933 3.1415926536 3.2178377658 3.3005964304 2.8307207459 2.8800620952 2.9351694502 
2.9967168029 3.0653475414 3.1415926536 3.225752376 2.718901062 2.7598010554 2.8058000847 2.8576792927 2.91630358 
2.9825888767 3.0574329311 3.1415926536 3.5642842451 3.5233842518 3.4524645613 3.4773852225 3.403123212 3.3320300872 
3.4255060145 3.348015857 3.2746326772 3.20576226 3.3668817272 3.2864685043 3.2112816139 3.1415926536 3.0774230472 
3.3005964304 3.2178377658 3.1415926536 3.0719036933 3.00855263 2.95115522 3.225752376 3.1415926536 3.0653475414 
2.9967168029 2.9351694502 2.8800620952 2.8307207459 3.1415926536 3.0574329311 2.9825888767 2.91630358 2.8576792927 
2.8058000847 2.7598010554 2.718901062 4.526799744 4.426884955 4.4046155105 4.3052269283 4.2918546451 4.2807094886 
4.1588146215 4.1588146215 4.1588146215 4.1588146215 3.9875336042 4.0055183285 4.0201070968 4.0321740035 4.042318168 
3.7967995342 3.8356650183 3.8672112905 3.8932795963 3.9151549899 3.9337570603 3.5984456061 3.657329819 3.7058097288 
3.7462412737 3.7803704271 3.809500442 3.8346145692 3.4073543651 3.4813459737 3.5438565869 3.5969754326 3.6424295543 
3.6816134988 3.7156421835 3.7454049075 4.7123889804 4.8004512023 4.6243267584 4.9155579264 4.7123889804 4.5092200343 
5.0674903122 4.8353719722 4.5894059886 4.3572876485 5.2659633393 5.0120975802 4.7123889804 4.4126803806 4.1588146215 
5.5125918794 5.2659633393 4.9155579264 4.5092200343 4.1588146215 3.9121860814 5.7885595667 5.6029703303 5.2659633393 
4.7123889804 4.1588146215 3.8218076305 3.6362183941 6.0560271438 5.9702140275 5.7885595667 5.2659633393 4.1588146215 
3.6362183941 3.4545639333 3.368750817 0.22715816343 0.49462574053 0.3129712797 0.77059342779 0.68021497688 0.49462574053 
1.0172219679 1.0172219679 1.0172219679 1.0172219679 1.2156949949 1.271087727 1.3676273807 1.5707963268 2.1243706857 
1.3676273807 1.447813335 1.5707963268 1.7739652728 2.1243706857 2.6469669131 1.4827341049 1.5707963268 1.6937793186 
1.8705049266 2.1243706857 2.4613776767 2.8286213739 1.5707963268 1.6588585487 1.7739652728 1.9258976586 2.1243706857 
2.3709992258 2.6469669131 2.9144344902 1.7563855631 1.8785697967 1.8563003522 2.0024758186 1.9913306621 1.9779583789 
2.1243706857 2.1243706857 2.1243706857 2.1243706857 2.2408671392 2.2510113037 2.2630782103 2.2776669786 2.295651703 
2.3494282469 2.3680303173 2.3899057108 2.4159740166 2.4475202889 2.486385773 2.448570738 2.4736848652 2.5028148801 
2.5369440334 2.5773755784 2.6258554882 2.6847397011 2.5377803997 2.5675431237 2.6015718084 2.6407557529 2.6862098746 
2.7393287203 2.8018393335 2.8758309421 1.6743954455 1.6743954455 1.7840462375 1.6743954455 1.7840462375 1.8974821136 
1.6743954455 1.7840462375 1.8974821136 2.0119052671 1.6743954455 1.7840462375 1.8974821136 2.0119052671 2.1243706857 
1.6743954455 1.7840462375 1.8974821136 2.0119052671 2.1243706857 2.232221744 1.6743954455 1.7840462375 1.8974821136 
2.0119052671 2.1243706857 2.232221744 2.3334263672 1.6743954455 1.7840462375 1.8974821136 2.0119052671 2.1243706857 
2.232221744 2.3334263672 2.426721652 1.4671972081 1.3575464161 1.4671972081 1.24411054 1.3575464161 1.4671972081 
1.1296873865 1.24411054 1.3575464161 1.4671972081 1.0172219679 1.1296873865 1.24411054 1.3575464161 1.4671972081 
0.90937090954 1.0172219679 1.1296873865 1.24411054 1.3575464161 1.4671972081 0.80816628637 0.90937090954 1.0172219679 
1.1296873865 1.24411054 1.3575464161 1.4671972081 0.71487100155 0.80816628637 0.90937090954 1.0172219679 1.1296873865 
1.24411054 1.3575464161 1.4671972081 0.60381225391 0.57404952988 0.69302191562 0.54002084522 0.66790778838 0.79216440667 
0.50083690068 0.63877777351 0.77356233629 0.90072551443 0.45538277901 0.60464862014 0.75168694275 0.89058134991 1.0172219679 
0.40226393329 0.56421707518 0.72561863695 0.87851444325 1.0172219679 1.139116835 0.33975332011 0.51573716537 0.69407236469 
0.86392567495 1.0172219679 1.1502619915 1.2630228569 0.26576171152 0.45685295248 0.6552068806 0.84594095064 1.0172219679 
1.1636342747 1.2852923014 1.3852070904 0.22715816343 0.3129712797 0.49462574053 0.49462574053 0.68021497688 0.77059342779 
1.0172219679 1.0172219679 1.0172219679 1.0172219679 2.1243706857 1.5707963268 1.3676273807 1.271087727 1.2156949949 
2.6469669131 2.1243706857 1.7739652728 1.5707963268 1.447813335 1.3676273807 2.8286213739 2.4613776767 2.1243706857 
1.8705049266 1.6937793186 1.5707963268 1.4827341049 2.9144344902 2.6469669131 2.3709992258 2.1243706857 1.9258976586 
1.7739652728 1.6588585487 1.5707963268 1.7563855631 1.8563003522 1.8785697967 1.9779583789 1.9913306621 2.0024758186 
2.1243706857 2.1243706857 2.1243706857 2.1243706857 2.295651703 2.2776669786 2.2630782103 2.2510113037 2.2408671392 
2.486385773 2.4475202889 2.4159740166 2.3899057108 2.3680303173 2.3494282469 2.6847397011 2.6258554882 2.5773755784 
2.5369440334 2.5028148801 2.4736848652 2.448570738 2.8758309421 2.8018393335 2.7393287203 2.6862098746 2.6407557529 
2.6015718084 2.5675431237 2.5377803997 5.8604937156 5.901393709 5.9723133995 5.9473927383 6.0216547488 6.0927478736 
5.9992719463 6.0767621038 6.1501452836 6.2190157008 6.0578962336 6.1383094565 6.2134963469 0 0.064169606361 
6.1241815303 6.206940195 6.2831853072 0.069688960264 0.13304002361 0.19043743361 6.1990255847 0 0.07624511221 
0.14487585072 0.20642320337 0.26153055843 0.3108719077 0 0.084159722458 0.15900377685 0.22528907359 0.28391336087 
0.3357925689 0.38179159818 0.42269159155 5.8604937156 5.9723133995 5.901393709 6.0927478736 6.0216547488 5.9473927383 
6.2190157008 6.1501452836 6.0767621038 5.9992719463 0.064169606361 0 6.2134963469 6.1383094565 6.0578962336 
0.19043743361 0.13304002361 0.069688960264 6.2831853072 6.206940195 6.1241815303 0.3108719077 0.26153055843 0.20642320337 
0.14487585072 0.07624511221 6.2831853072 6.1990255847 0.42269159155 0.38179159818 0.3357925689 0.28391336087 0.22528907359 
0.15900377685 0.084159722458 0 5.6793730533 5.7091357773 5.5901633916 5.743164462 5.6152775188 5.4910209005 
5.7823484065 5.6444075337 5.5096229709 5.3824597928 5.8278025282 5.678536687 5.5314983644 5.3926039573 5.2659633393 
5.8809213739 5.718968232 5.5575666702 5.4046708639 5.2659633393 5.1440684722 5.9434319871 5.7674481418 5.5891129425 
5.4192596322 5.2659633393 5.1329233157 5.0201624502 6.0174235957 5.8263323547 5.6279784266 5.4372443565 5.2659633393 
5.1195510325 4.9978930058 4.8979782167 1.3852070904 1.2852923014 1.2630228569 1.1636342747 1.1502619915 1.139116835 
1.0172219679 1.0172219679 1.0172219679 1.0172219679 0.84594095064 0.86392567495 0.87851444325 0.89058134991 0.90072551443 
0.6552068806 0.69407236469 0.72561863695 0.75168694275 0.77356233629 0.79216440667 0.45685295248 0.51573716537 0.56421707518 
0.60464862014 0.63877777351 0.66790778838 0.69302191562 0.26576171152 0.33975332011 0.40226393329 0.45538277901 0.50083690068 
0.54002084522 0.57404952988 0.60381225391 
_paraPhiHalf 1 1002 double
0 3.1415926536 0 3.1415926536 1.5707963268 1.5707963268 1.5707963268 1.5707963268 2.5880182947 
0.5535743589 2.5880182947 0.5535743589 0 0 0 0 3.1415926536 3.1415926536 
3.1415926536 3.1415926536 3.1415926536 0.17788134 0.38438696014 0.60631181711 0.82323535693 1.0172219679 1.1799687454 
1.3118704726 1.4175000338 1.5022335207 0.17788134 0.38438696014 0.60631181711 0.82323535693 1.0172219679 1.1799687454 
1.3118704726 1.4175000338 1.5022335207 0.093902416448 0.17615329733 0.2478725152 0.31035131605 0.36486382811 0.41257334776 
0.45449736604 0.4915044461 0.52432611754 0.093902416448 0.17615329733 0.2478725152 0.31035131605 0.36486382811 0.41257334776 
0.45449736604 0.4915044461 0.52432611754 2.9637113136 2.7572056934 2.5352808365 2.3183572967 2.1243706857 1.9616239082 
1.829722181 1.7240926197 1.6393591329 2.9637113136 2.7572056934 2.5352808365 2.3183572967 2.1243706857 1.9616239082 
1.829722181 1.7240926197 1.6393591329 3.0476902371 2.9654393563 2.8937201384 2.8312413375 2.7767288255 2.7290193058 
2.6870952876 2.6500882075 2.617266536 3.0476902371 2.9654393563 2.8937201384 2.8312413375 2.7767288255 2.7290193058 
2.6870952876 2.6500882075 2.617266536 0 0 0 0 3.1415926536 3.1415926536 
3.1415926536 3.1415926536 3.1415926536 0.17788134 0.38438696014 0.60631181711 0.82323535693 1.0172219679 1.1799687454 
1.3118704726 1.4175000338 1.5022335207 0.17788134 0.38438696014 0.60631181711 0.82323535693 1.0172219679 1.1799687454 
1.3118704726 1.4175000338 1.5022335207 0.093902416448 0.17615329733 0.2478725152 0.31035131605 0.36486382811 0.41257334776 
0.45449736604 0.4915044461 0.52432611754 0.093902416448 0.17615329733 0.2478725152 0.31035131605 0.36486382811 0.41257334776 
0.45449736604 0.4915044461 0.52432611754 2.9637113136 2.7572056934 2.5352808365 2.3183572967 2.1243706857 1.9616239082 
1.829722181 1.7240926197 1.6393591329 2.9637113136 2.7572056934 2.5352808365 2.3183572967 2.1243706857 1.9616239082 
1.829722181 1.7240926197 1.6393591329 3.0476902371 2.9654393563 2.8937201384 2.8312413375 2.7767288255 2.7290193058 
2.6870952876 2.6500882075 2.617266536 3.0476902371 2.9654393563 2.8937201384 2.8312413375 2.7767288255 2.7290193058 
2.6870952876 2.6500882075 2.617266536 1.5707963268 1.5707963268 1.5707963268 1.5707963268 1.5707963268 1.5707963268 
1.5707963268 1.5707963268 1.5707963268 1.6743954455 1.7840462375 1.8974821136 2.0119052671 2.1243706857 2.232221744 
2.3334263672 2.426721652 2.5115728246 1.4671972081 1.3575464161 1.24411054 1.1296873865 1.0172219679 0.90937090954 
0.80816628637 0.71487100155 0.63001982895 1.6743954455 1.7840462375 1.8974821136 2.0119052671 2.1243706857 2.232221744 
2.3334263672 2.426721652 2.5115728246 1.4671972081 1.3575464161 1.24411054 1.1296873865 1.0172219679 0.90937090954 
0.80816628637 0.71487100155 0.63001982895 1.5707963268 1.5707963268 1.5707963268 1.5707963268 1.5707963268 1.5707963268 
1.5707963268 1.5707963268 1.5707963268 1.6743954455 1.7840462375 1.8974821136 2.0119052671 2.1243706857 2.232221744 
2.3334263672 2.426721652 2.5115728246 1.4671972081 1.3575464161 1.24411054 1.1296873865 1.0172219679 0.90937090954 
0.80816628637 0.71487100155 0.63001982895 1.6743954455 1.7840462375 1.8974821136 2.0119052671 2.1243706857 2.232221744 
2.3334263672 2.426721652 2.5115728246 1.4671972081 1.3575464161 1.24411054 1.1296873865 1.0172219679 0.90937090954 
0.80816628637 0.71487100155 0.63001982895 2.6824132222 2.7864913217 2.8992382033 3.0186096618 3.1415926536 3.0186096618 
2.8992382033 2.7864913217 2.6824132222 0.45917943135 0.35510133185 0.2423544503 0.12298299178 0 0.12298299178 
0.2423544503 0.35510133185 0.45917943135 0.22715816343 0.49462574053 0.3129712797 0.77059342779 0.68021497688 0.49462574053 
1.0172219679 1.0172219679 1.0172219679 1.0172219679 1.2156949949 1.271087727 1.3676273807 1.5707963268 2.1243706857 
1.3676273807 1.447813335 1.5707963268 1.7739652728 2.1243706857 2.6469669131 1.4827341049 1.5707963268 1.6937793186 
1.8705049266 2.1243706857 2.4613776767 2.8286213739 1.5707963268 1.6588585487 1.7739652728 1.9258976586 2.1243706857 
2.3709992258 2.6469669131 2.9144344902 0.26576171152 0.33975332011 0.45685295248 0.40226393329 0.51573716537 0.6552068806 
0.45538277901 0.56421707518 0.69407236469 0.84594095064 0.50083690068 0.60464862014 0.72561863695 0.86392567495 1.0172219679 
0.54002084522 0.63877777351 0.75168694275 0.87851444325 1.0172219679 1.1636342747 0.57404952988 0.66790778838 0.77356233629 
0.89058134991 1.0172219679 1.1502619915 1.2852923014 0.60381225391 0.69302191562 0.79216440667 0.90072551443 1.0172219679 
1.139116835 1.2630228569 1.3852070904 0.71487100155 0.80816628637 0.80816628637 0.90937090954 0.90937090954 0.90937090954 
1.0172219679 1.0172219679 1.0172219679 1.0172219679 1.1296873865 1.1296873865 1.1296873865 1.1296873865 1.1296873865 
1.24411054 1.24411054 1.24411054 1.24411054 1.24411054 1.24411054 1.3575464161 1.3575464161 1.3575464161 
1.3575464161 1.3575464161 1.3575464161 1.3575464161 1.4671972081 1.4671972081 1.4671972081 1.4671972081 1.4671972081 
1.4671972081 1.4671972081 1.4671972081 1.6743954455 1.6743954455 1.7840462375 1.6743954455 1.7840462375 1.8974821136 
1.6743954455 1.7840462375 1.8974821136 2.0119052671 1.6743954455 1.7840462375 1.8974821136 2.0119052671 2.1243706857 
1.6743954455 1.7840462375 1.8974821136 2.0119052671 2.1243706857 2.232221744 1.6743954455 1.7840462375 1.8974821136 
2.0119052671 2.1243706857 2.232221744 2.3334263672 1.6743954455 1.7840462375 1.8974821136 2.0119052671 2.1243706857 
2.232221744 2.3334263672 2.426721652 1.7563855631 1.8785697967 1.8563003522 2.0024758186 1.9913306621 1.9779583789 
2.1243706857 2.1243706857 2.1243706857 2.1243706857 2.2408671392 2.2510113037 2.2630782103 2.2776669786 2.295651703 
2.3494282469 2.3680303173 2.3899057108 2.4159740166 2.4475202889 2.486385773 2.448570738 2.4736848652 2.5028148801 
2.5369440334 2.5773755784 2.6258554882 2.6847397011 2.5377803997 2.5675431237 2.6015718084 2.6407557529 2.6862098746 
2.7393287203 2.8018393335 2.8758309421 2.718901062 2.8307207459 2.7598010554 2.95115522 2.8800620952 2.8058000847 
3.0774230472 3.00855263 2.9351694502 2.8576792927 3.0774230472 3.1415926536 3.0719036933 2.9967168029 2.91630358 
2.95115522 3.00855263 3.0719036933 3.1415926536 3.0653475414 2.9825888767 2.8307207459 2.8800620952 2.9351694502 
2.9967168029 3.0653475414 3.1415926536 3.0574329311 2.718901062 2.7598010554 2.8058000847 2.8576792927 2.91630358 
2.9825888767 3.0574329311 3.1415926536 2.718901062 2.7598010554 2.8307207459 2.8058000847 2.8800620952 2.95115522 
2.8576792927 2.9351694502 3.00855263 3.0774230472 2.91630358 2.9967168029 3.0719036933 3.1415926536 3.0774230472 
2.9825888767 3.0653475414 3.1415926536 3.0719036933 3.00855263 2.95115522 3.0574329311 3.1415926536 3.0653475414 