# vtk DataFile Version 5.1
vtk output
ASCII
DATASET POLYDATA
POINTS 1002 float
-5.44008 -0.28186 -3.67617 5.2461 0.252666 -4.27694 -5.51695 0.363957 3.89712 
5.73558 -0.342081 3.66288 0.162592 6.54369 -3.24254 -0.493455 5.99959 2.66045 
0.175701 -6.64159 -3.37942 0.140373 -6.13682 2.65358 9.66991 4.34789 0.209347 
-9.12008 4.3793 0.681183 9.92292 -4.435 0.122679 -10.5629 -4.4935 0.60829 
-4.49184 -0.255705 -3.80137 -3.45581 -0.223723 -4.01533 -2.34203 -0.177585 -4.29308 
-1.16731 -0.106905 -4.56353 0.0299244 -0.0213031 -4.78794 1.20383 0.0531343 -4.96204 
2.32819 0.109177 -5.03037 3.3891 0.160418 -4.91507 4.3676 0.211338 -4.63052 
-5.07739 0.32017 -3.6392 -4.6325 0.981166 -3.62478 -4.11033 1.71083 -3.65071 
-3.5199 2.4994 -3.72006 -2.88428 3.3028 -3.80769 -2.24042 4.07691 -3.87052 
-1.61301 4.80715 -3.86551 -1.00165 5.48073 -3.75895 -0.404664 6.0672 -3.54224 
-5.15724 -0.877087 -3.77476 -4.771 -1.53891 -3.8779 -4.27719 -2.25591 -3.98966 
-3.68594 -3.01072 -4.10863 -3.02203 -3.77588 -4.21004 -2.32206 -4.50934 -4.24247 
-1.62562 -5.17337 -4.16606 -0.965369 -5.75347 -3.98228 -0.362124 -6.24565 -3.71364 
-6.15943 0.0682874 -3.55476 -6.88933 0.456407 -3.39076 -7.58378 0.884221 -3.13039 
-8.19041 1.34473 -2.75034 -8.65842 1.81806 -2.28095 -8.9575 2.29826 -1.7595 
-9.10497 2.81022 -1.18691 -9.15684 3.3636 -0.562325 -9.15889 3.91093 0.077814 
-6.22828 -0.673797 -3.66398 -7.06317 -1.10531 -3.65484 -7.90917 -1.56904 -3.57349 
-8.7311 -2.06503 -3.33748 -9.47923 -2.58486 -2.90521 -10.0781 -3.0853 -2.28968 
-10.4716 -3.52161 -1.5446 -10.6632 -3.89534 -0.754795 -10.6852 -4.2238 -0.0147408 
4.95217 0.886613 -4.42622 4.5927 1.56377 -4.58636 4.16978 2.27661 -4.72964 
3.68556 3.02112 -4.79072 3.14666 3.7759 -4.71757 2.56484 4.5003 -4.52884 
1.95196 5.15663 -4.2771 1.32679 5.72019 -3.97942 0.720612 6.18033 -3.62983 
4.96849 -0.410966 -4.36101 4.63004 -1.12071 -4.42412 4.21906 -1.84449 -4.39688 
3.71849 -2.58732 -4.25862 3.12707 -3.36679 -4.07055 2.4815 -4.14967 -3.90564 
1.83886 -4.87717 -3.78186 1.23691 -5.53354 -3.6761 0.683883 -6.12674 -3.55286 
5.93717 0.673548 -4.01412 6.66383 1.10759 -3.77187 7.38391 1.55481 -3.5069 
8.05015 2.02879 -3.11926 8.63505 2.5206 -2.59522 9.13037 2.99677 -2.05025 
9.5148 3.43735 -1.55145 9.74407 3.83029 -1.02979 9.78942 4.14402 -0.425936 
5.93602 -0.127583 -3.94029 6.64464 -0.556829 -3.55325 7.34663 -1.0261 -3.12237 
8.02945 -1.52944 -2.64941 8.6846 -2.07532 -2.16197 9.27509 -2.66349 -1.71775 
9.72749 -3.24984 -1.33111 9.97963 -3.76369 -0.932534 10.0287 -4.1593 -0.447753 
-4.60868 0.318103 4.00955 -3.59923 0.231066 4.05558 -2.49544 0.134833 3.98738 
-1.31112 0.049075 3.82753 -0.0664889 -0.0451297 3.67012 1.21259 -0.160752 3.5746 
2.48229 -0.267485 3.52554 3.68316 -0.33156 3.51403 4.77143 -0.351263 3.56125 
-5.24064 0.949814 4.00844 -4.89625 1.57852 4.11391 -4.46942 2.25369 4.17089 
-3.96434 2.9526 4.12748 -3.40801 3.62691 3.97706 -2.82923 4.24285 3.76688 
-2.24144 4.79304 3.53142 -1.64979 5.27084 3.26447 -1.06267 5.66991 2.96545 
-5.19514 -0.24998 3.84412 -4.79455 -0.927101 3.73324 -4.32288 -1.63596 3.55855 
-3.77217 -2.34078 3.33649 -3.11529 -3.04205 3.09876 -2.36149 -3.7521 2.8806 
-1.59634 -4.44337 2.7246 -0.916224 -5.07586 2.65991 -0.347763 -5.64004 2.65985 
-6.23167 0.746268 3.80555 -6.94144 1.15601 3.65033 -7.60928 1.60669 3.44682 
-8.22549 2.10532 3.22699 -8.79133 2.6417 3.0033 -9.26168 3.19333 2.73103 
-9.54367 3.71087 2.34178 -9.58186 4.11064 1.82476 -9.41164 4.32969 1.24417 
-6.23699 -0.0200688 3.74856 -7.02055 -0.493534 3.59511 -7.81957 -1.02232 3.41119 
-8.57785 -1.57343 3.16357 -9.28923 -2.16833 2.86726 -9.9613 -2.82989 2.56077 
-10.5117 -3.48076 2.22193 -10.805 -3.99239 1.7835 -10.7967 -4.3153 1.22757 
5.38038 0.232184 3.49189 4.92914 0.856629 3.34088 4.37242 1.53585 3.22218 
3.71395 2.25012 3.11353 2.98566 2.96018 2.99004 2.23551 3.6492 2.87135 
1.49751 4.32103 2.79795 0.786794 4.9565 2.76799 0.116995 5.52039 2.73598 
5.4497 -0.940035 3.753 5.0773 -1.59731 3.80897 4.6059 -2.29241 3.81961 
4.03817 -3.00538 3.79541 3.39664 -3.70821 3.73925 2.71293 -4.35146 3.62386 
2.01751 -4.89901 3.43134 1.34063 -5.3634 3.18675 0.709638 -5.77408 2.92441 
6.47462 0.0425083 3.66622 7.2547 0.477718 3.63589 8.03467 0.962768 3.53387 
8.74739 1.48491 3.33548 9.32952 2.02145 3.05158 9.74732 2.56277 2.69158 
9.98294 3.10514 2.22058 10.0273 3.6146 1.60948 9.90402 4.03786 0.905887 
6.50656 -0.691935 3.86039 7.30347 -1.09152 4.0439 8.0996 -1.54913 4.10485 
8.86305 -2.06112 3.96194 9.54067 -2.6086 3.60755 10.046 -3.15145 3.06168 
10.305 -3.63362 2.34499 10.3225 -4.01217 1.53334 10.1703 -4.2759 0.7582 
0.167914 6.99773 -2.73945 0.152337 7.42727 -2.13875 0.0985155 7.79609 -1.47712 
0.00197701 8.03533 -0.775418 -0.122672 8.05731 -0.0353663 -0.253616 7.8304 0.712366 
-0.37034 7.42472 1.39496 -0.453316 6.94833 1.9503 -0.492177 6.46681 2.36454 
1.09108 6.74685 -3.13135 2.11275 6.90233 -2.96822 3.19324 6.99461 -2.76129 
4.31293 6.99237 -2.49666 5.43986 6.84796 -2.14935 6.49982 6.53103 -1.72208 
7.4355 6.0627 -1.24713 8.25949 5.5049 -0.754088 9.00417 4.92019 -0.26218 
-0.735161 6.58199 -3.0168 -1.68839 6.5655 -2.72432 -2.69877 6.47554 -2.36462 
-3.77546 6.2969 -1.93815 -4.88436 6.03684 -1.44941 -5.94236 5.73002 -0.928708 
-6.89117 5.41163 -0.431756 -7.73183 5.08957 0.000864483 -8.47732 4.7497 0.366671 
0.476128 6.03159 2.4207 1.54924 6.06623 2.18287 2.69954 6.08393 1.95575 
3.8977 6.05648 1.73135 5.09634 5.97231 1.51023 6.23294 5.82685 1.30621 
7.27115 5.59652 1.10377 8.20454 5.25917 0.85679 9.01526 4.82893 0.547725 
-1.45216 6.26404 2.72791 -2.46883 6.54582 2.76045 -3.50242 6.80404 2.74454 
-4.52083 6.94981 2.65523 -5.51052 6.90015 2.46454 -6.45779 6.64324 2.17584 
-7.32476 6.21979 1.82741 -8.06205 5.67023 1.45471 -8.65111 5.03696 1.07105 
0.180831 -7.13666 -2.95406 0.170101 -7.56861 -2.36125 0.147117 -7.86311 -1.62698 
0.127119 -7.99537 -0.842026 0.118379 -7.99405 -0.0810559 0.109707 -7.86901 0.656085 
0.092916 -7.58923 1.36481 0.083318 -7.15829 1.96898 0.0998512 -6.64693 2.39634 
1.02483 -6.65381 -3.09327 1.97267 -6.56309 -2.69767 3.02343 -6.37618 -2.20819 
4.14542 -6.13915 -1.68836 5.28681 -5.90428 -1.22741 6.40773 -5.6822 -0.875906 
7.47134 -5.4437 -0.615216 8.42893 -5.15964 -0.390647 9.24613 -4.82098 -0.153087 
-0.677458 -6.85808 -3.3544 -1.64845 -6.96577 -3.21343 -2.73774 -6.92296 -2.93457 
-3.92907 -6.72833 -2.54211 -5.2001 -6.4232 -2.08134 -6.5032 -6.06407 -1.57306 
-7.74862 -5.69118 -1.02049 -8.85449 -5.31333 -0.445336 -9.79262 -4.91766 0.110896 
0.98299 -6.36642 2.78501 1.94515 -6.52407 2.87047 3.02438 -6.58217 2.86723 
4.16776 -6.53179 2.75017 5.3171 -6.37101 2.50742 6.4464 -6.10173 2.13239 
7.52485 -5.74531 1.64413 8.49188 -5.33662 1.10194 9.29594 -4.89771 0.577975 
-0.733476 -6.15767 2.38103 -1.73518 -6.10896 2.07772 -2.87458 -6.01217 1.7696 
-4.10473 -5.92673 1.51815 -5.36462 -5.88147 1.36635 -6.63027 -5.82383 1.28097 
-7.86142 -5.67035 1.18927 -8.96351 -5.38176 1.04955 -9.86371 -4.97433 0.854949 
10.4129 3.65185 0.279328 11.1425 2.86395 0.332469 11.8108 1.99065 0.352394 
12.3402 1.03979 0.328796 12.595 0.0190521 0.264752 12.4645 -1.04834 0.178468 
11.9942 -2.09842 0.0995479 11.3439 -3.04183 0.0577713 10.6379 -3.82067 0.0676995 
-9.77102 3.69069 0.598589 -10.4815 2.90876 0.481996 -11.2549 2.0302 0.371893 
-12.0449 1.05275 0.328809 -12.6932 0.00635219 0.3905 -12.9667 -1.05359 0.529429 
-12.7474 -2.07874 0.665705 -12.1456 -3.0231 0.729346 -11.3702 -3.83674 0.702385 
-4.07588 0.381857 -3.81924 -3.58239 1.09056 -3.87761 -2.98574 0.452506 -4.09758 
-3.01408 1.87512 -3.98209 -2.44317 1.21175 -4.22424 -1.81575 0.542396 -4.42479 
-2.38665 2.70249 -4.10698 -1.83535 2.03941 -4.38043 -1.22833 1.3437 -4.5932 
-0.591241 0.650272 -4.72256 -1.73673 3.51432 -4.19885 -1.18874 2.87791 -4.50788 
-0.597594 2.18441 -4.75647 0.0244709 1.46592 -4.89894 0.636624 0.747781 -4.94995 
-1.09671 4.2809 -4.21134 -0.536311 3.67644 -4.53878 0.0523245 3.00358 -4.8279 
0.660833 2.28607 -5.01844 1.26287 1.54785 -5.08126 1.82332 0.811468 -5.06776 
-0.471335 4.99753 -4.12104 0.107803 4.4264 -4.45011 0.706804 3.77655 -4.75203 
1.30871 3.06984 -4.99194 1.89909 2.33126 -5.10309 2.45224 1.58326 -5.08537 
2.94986 0.849718 -5.00841 0.140333 5.64127 -3.92164 0.736303 5.11842 -4.25663 
1.35059 4.50187 -4.55207 1.95544 3.81106 -4.80796 2.53717 3.07466 -4.97143 
3.08098 2.3245 -4.99029 3.57079 1.58594 -4.89662 4.00012 0.875588 -4.76483 
-5.76256 0.717437 -3.47609 -6.44675 1.15388 -3.25847 -5.26973 1.43122 -3.41099 
-7.07952 1.62995 -2.93189 -5.89865 1.9214 -3.12984 -4.6933 2.21632 -3.38704 
-7.60425 2.12864 -2.48943 -6.4683 2.44785 -2.74357 -5.26649 2.75838 -3.05248 
-4.04788 3.04927 -3.41598 -7.98328 2.62477 -1.98076 -6.92722 2.98466 -2.27067 
-5.78131 3.32779 -2.63598 -4.56521 3.62642 -3.04771 -3.35977 3.87809 -3.47342 
-8.22238 3.12795 -1.43958 -7.25888 3.50804 -1.75614 -6.1977 3.89285 -2.16093 
-5.02838 4.21769 -2.61673 -3.81899 4.47091 -3.07672 -2.66821 4.66708 -3.5062 
-8.36318 3.67025 -0.857787 -7.4862 4.03241 -1.20531 -6.51195 4.42669 -1.63715 
-5.41238 4.78363 -2.12508 -4.23032 5.05918 -2.61222 -3.0724 5.26014 -3.06404 
-1.99868 5.40049 -3.45579 -8.44453 4.23514 -0.242025 -7.63906 4.57225 -0.610286 
-6.73918 4.93259 -1.05388 -5.71658 5.28853 -1.55908 -4.586 5.59307 -2.06965 
-3.43971 5.81995 -2.53887 -2.35955 5.96956 -2.94948 -1.35331 6.04951 -3.28813 
-7.94589 5.4609 0.720378 -7.27724 6.12724 1.06866 -7.1188 5.81565 0.2995 
-6.46278 6.69216 1.41011 -6.35853 6.48146 0.602328 -6.18013 6.12233 -0.193236 
-5.54714 7.11402 1.73122 -5.47627 7.04844 0.908337 -5.33347 6.77845 0.0698425 
-5.13349 6.42273 -0.735858 -4.58155 7.3295 1.99818 -4.53233 7.46093 1.20198 
-4.40549 7.34626 0.352472 -4.22748 7.07383 -0.490892 -4.01041 6.71516 -1.27277 
-3.57942 7.29207 2.1838 -3.55258 7.62296 1.4576 -3.43918 7.72978 0.637537 
-3.27309 7.61724 -0.205507 -3.07943 7.33582 -1.01719 -2.88152 6.93921 -1.74843 
-2.54087 7.05953 2.29461 -2.52855 7.51281 1.6642 -2.43282 7.82858 0.909642 
-2.28213 7.93322 0.0989849 -2.10929 7.80272 -0.705842 -1.94266 7.48241 -1.46322 
[...]
POINT_DATA 1002
FIELD FieldData 4
_paraPhi 1 1002 double
6.2831853072 3.1415926536 6.2831853072 3.1415926536 4.7123889804 4.7123889804 1.5707963268 1.5707963268 3.6951670125 
5.7296109483 2.5880182947 0.5535743589 6.2831853072 6.2831853072 6.2831853072 6.2831853072 3.1415926536 3.1415926536 
3.1415926536 3.1415926536 3.1415926536 6.1053039672 5.898798347 5.6768734901 5.4599499503 5.2659633393 5.1032165617 
4.9713148346 4.8656852733 4.7809517865 0.17788134 0.38438696014 0.60631181711 0.82323535693 1.0172219679 1.1799687454 
1.3118704726 1.4175000338 1.5022335207 6.1892828907 6.1070320098 6.035312792 5.9728339911 5.9183214791 5.8706119594 
5.8286879411 5.7916808611 5.7588591896 0.093902416448 0.17615329733 0.2478725152 0.31035131605 0.36486382811 0.41257334776 
0.45449736604 0.4915044461 0.52432611754 3.3194739936 3.5259796137 3.7479044707 3.9648280105 4.1588146215 4.321561399 
4.4534631262 4.5590926874 4.6438261743 2.9637113136 2.7572056934 2.5352808365 2.3183572967 2.1243706857 1.9616239082 
1.829722181 1.7240926197 1.6393591329 3.23549507 3.3177459509 3.3894651688 3.4519439696 3.5064564817 3.5541660013 
3.5960900196 3.6330970997 3.6659187711 3.0476902371 2.9654393563 2.8937201384 2.8312413375 2.7767288255 2.7290193058 
2.6870952876 2.6500882075 2.617266536 6.2831853072 6.2831853072 6.2831853072 6.2831853072 3.1415926536 3.1415926536 
3.1415926536 3.1415926536 3.1415926536 6.1053039672 5.898798347 5.6768734901 5.4599499503 5.2659633393 5.1032165617 
4.9713148346 4.8656852733 4.7809517865 0.17788134 0.38438696014 0.60631181711 0.82323535693 1.0172219679 1.1799687454 
1.3118704726 1.4175000338 1.5022335207 6.1892828907 6.1070320098 6.035312792 5.9728339911 5.9183214791 5.8706119594 
5.8286879411 5.7916808611 5.7588591896 0.093902416448 0.17615329733 0.2478725152 0.31035131605 0.36486382811 0.41257334776 
0.45449736604 0.4915044461 0.52432611754 3.3194739936 3.5259796137 3.7479044707 3.9648280105 4.1588146215 4.321561399 
4.4534631262 4.5590926874 4.6438261743 2.9637113136 2.7572056934 2.5352808365 2.3183572967 2.1243706857 1.9616239082 
1.829722181 1.7240926197 1.6393591329 3.23549507 3.3177459509 3.3894651688 3.4519439696 3.5064564817 3.5541660013 
3.5960900196 3.6330970997 3.6659187711 3.0476902371 2.9654393563 2.8937201384 2.8312413375 2.7767288255 2.7290193058 
2.6870952876 2.6500882075 2.617266536 4.7123889804 4.7123889804 4.7123889804 4.7123889804 4.7123889804 4.7123889804 
4.7123889804 4.7123889804 4.7123889804 4.6087898617 4.4991390697 4.3857031936 4.2712800401 4.1588146215 4.0509635631 
3.94975894 3.8564636551 3.7716124825 4.8159880991 4.9256388911 5.0390747672 5.1534979207 5.2659633393 5.3738143976 
5.4750190208 5.5683143056 5.6531654782 4.6087898617 4.4991390697 4.3857031936 4.2712800401 4.1588146215 4.0509635631 
3.94975894 3.8564636551 3.7716124825 4.8159880991 4.9256388911 5.0390747672 5.1534979207 5.2659633393 5.3738143976 
5.4750190208 5.5683143056 5.6531654782 1.5707963268 1.5707963268 1.5707963268 1.5707963268 1.5707963268 1.5707963268 
1.5707963268 1.5707963268 1.5707963268 1.6743954455 1.7840462375 1.8974821136 2.0119052671 2.1243706857 2.232221744 
2.3334263672 2.426721652 2.5115728246 1.4671972081 1.3575464161 1.24411054 1.1296873865 1.0172219679 0.90937090954 
0.80816628637 0.71487100155 0.63001982895 1.6743954455 1.7840462375 1.8974821136 2.0119052671 2.1243706857 2.232221744 
2.3334263672 2.426721652 2.5115728246 1.4671972081 1.3575464161 1.24411054 1.1296873865 1.0172219679 0.90937090954 
0.80816628637 0.71487100155 0.63001982895 3.6007720849 3.4966939854 3.3839471039 3.2645756454 3.1415926536 3.0186096618 
2.8992382033 2.7864913217 2.6824132222 5.8240058758 5.9280839753 6.0408308569 6.1602023154 6.2831853072 0.12298299178 
0.2423544503 0.35510133185 0.45917943135 6.0560271438 5.7885595667 5.9702140275 5.5125918794 5.6029703303 5.7885595667 
5.2659633393 5.2659633393 5.2659633393 5.2659633393 5.0674903122 5.0120975802 4.9155579264 4.7123889804 4.1588146215 
4.9155579264 4.8353719722 4.7123889804 4.5092200343 4.1588146215 3.6362183941 4.8004512023 4.7123889804 4.5894059886 
4.4126803806 4.1588146215 3.8218076305 3.4545639333 4.7123889804 4.6243267584 4.5092200343 4.3572876485 4.1588146215 
3.9121860814 3.6362183941 3.368750817 6.0174235957 5.9434319871 5.8263323547 5.8809213739 5.7674481418 5.6279784266 
5.8278025282 5.718968232 5.5891129425 5.4372443565 5.7823484065 5.678536687 5.5575666702 5.4192596322 5.2659633393 
5.743164462 5.6444075337 5.5314983644 5.4046708639 5.2659633393 5.1195510325 5.7091357773 5.6152775188 5.5096229709 
5.3926039573 5.2659633393 5.1329233157 4.9978930058 5.6793730533 5.5901633916 5.4910209005 5.3824597928 5.2659633393 
5.1440684722 5.0201624502 4.8979782167 5.5683143056 5.4750190208 5.4750190208 5.3738143976 5.3738143976 5.3738143976 
5.2659633393 5.2659633393 5.2659633393 5.2659633393 5.1534979207 5.1534979207 5.1534979207 5.1534979207 5.1534979207 
5.0390747672 5.0390747672 5.0390747672 5.0390747672 5.0390747672 5.0390747672 4.9256388911 4.9256388911 4.9256388911 
4.9256388911 4.9256388911 4.9256388911 4.9256388911 4.8159880991 4.8159880991 4.8159880991 4.8159880991 4.8159880991 
4.8159880991 4.8159880991 4.8159880991 4.6087898617 4.6087898617 4.4991390697 4.6087898617 4.4991390697 4.3857031936 
4.6087898617 4.4991390697 4.3857031936 4.2712800401 4.6087898617 4.4991390697 4.3857031936 4.2712800401 4.1588146215 
4.6087898617 4.4991390697 4.3857031936 4.2712800401 4.1588146215 4.0509635631 4.6087898617 4.4991390697 4.3857031936 
4.2712800401 4.1588146215 4.0509635631 3.94975894 4.6087898617 4.4991390697 4.3857031936 4.2712800401 4.1588146215 
4.0509635631 3.94975894 3.8564636551 4.526799744 4.4046155105 4.426884955 4.2807094886 4.2918546451 4.3052269283 
4.1588146215 4.1588146215 4.1588146215 4.1588146215 4.042318168 4.0321740035 4.0201070968 4.0055183285 3.9875336042 
3.9337570603 3.9151549899 3.8932795963 3.8672112905 3.8356650183 3.7967995342 3.8346145692 3.809500442 3.7803704271 
3.7462412737 3.7058097288 3.657329819 3.5984456061 3.7454049075 3.7156421835 3.6816134988 3.6424295543 3.5969754326 
3.5438565869 3.4813459737 3.4073543651 3.5642842451 3.4524645613 3.5233842518 3.3320300872 3.403123212 3.4773852225 
3.20576226 3.2746326772 3.348015857 3.4255060145 3.0774230472 3.1415926536 3.2112816139 3.2864685043 3.3668817272 
2.95115522 3.00855263 3.0719036933 3.1415926536 3.2178377658 3.3005964304 2.8307207459 2.8800620952 2.9351694502 
2.9967168029 3.0653475414 3.1415926536 3.225752376 2.718901062 2.7598010554 2.8058000847 2.8576792927 2.91630358 
2.9825888767 3.0574329311 3.1415926536 3.5642842451 3.5233842518 3.4524645613 3.4773852225 3.403123212 3.3320300872 
3.4255060145 3.348015857 3.2746326772 3.20576226 3.3668817272 3.2864685043 3.2112816139 3.1415926536 3.0774230472 
3.3005964304 3.2178377658 3.1415926536 3.0719036933 3.00855263 2.95115522 3.225752376 3.1415926536 3.0653475414 
2.9967168029 2.9351694502 2.8800620952 2.8307207459 3.1415926536 3.0574329311 2.9825888767 2.91630358 2.8576792927 
2.8058000847 2.7598010554 2.718901062 4.526799744 4.426884955 4.4046155105 4.3052269283 4.2918546451 4.2807094886 
4.1588146215 4.1588146215 4.1588146215 4.1588146215 3.9875336042 4.0055183285 4.0201070968 4.0321740035 4.042318168 
3.7967995342 3.8356650183 3.8672112905 3.8932795963 3.9151549899 3.9337570603 3.5984456061 3.657329819 3.7058097288 
3.7462412737 3.7803704271 3.809500442 3.8346145692 3.4073543651 3.4813459737 3.5438565869 3.5969754326 3.6424295543 
3.6816134988 3.7156421835 3.7454049075 4.7123889804 4.8004512023 4.6243267584 4.9155579264 4.7123889804 4.5092200343 
5.0674903122 4.8353719722 4.5894059886 4.3572876485 5.2659633393 5.0120975802 4.7123889804 4.4126803806 4.1588146215 
5.5125918794 5.2659633393 4.9155579264 4.5092200343 4.1588146215 3.9121860814 5.7885595667 5.6029703303 5.2659633393 
4.7123889804 4.1588146215 3.8218076305 3.6362183941 6.0560271438 5.9702140275 5.7885595667 5.2659633393 4.1588146215 
3.6362183941 3.4545639333 3.368750817 0.22715816343 0.49462574053 0.3129712797 0.77059342779 0.68021497688 0.49462574053 
1.0172219679 1.0172219679 1.0172219679 1.0172219679 1.2156949949 1.271087727 1.3676273807 1.5707963268 2.1243706857 
1.3676273807 1.447813335 1.5707963268 1.7739652728 2.1243706857 2.6469669131 1.4827341049 1.5707963268 1.6937793186 
1.8705049266 2.1243706857 2.4613776767 2.8286213739 1.5707963268 1.6588585487 1.7739652728 1.9258976586 2.1243706857 
2.3709992258 2.6469669131 2.9144344902 1.7563855631 1.8785697967 1.8563003522 2.0024758186 1.9913306621 1.9779583789 
2.1243706857 2.1243706857 2.1243706857 2.1243706857 2.2408671392 2.2510113037 2.2630782103 2.2776669786 2.295651703 
2.3494282469 2.3680303173 2.3899057108 2.4159740166 2.4475202889 2.486385773 2.448570738 2.4736848652 2.5028148801 
2.5369440334 2.5773755784 2.6258554882 2.6847397011 2.5377803997 2.5675431237 2.6015718084 2.6407557529 2.6862098746 
2.7393287203 2.8018393335 2.8758309421 1.6743954455 1.6743954455 1.7840462375 1.6743954455 1.7840462375 1.8974821136 
1.6743954455 1.7840462375 1.8974821136 2.0119052671 1.6743954455 1.7840462375 1.8974821136 2.0119052671 2.1243706857 
1.6743954455 1.7840462375 1.8974821136 2.0119052671 2.1243706857 2.232221744 1.6743954455 1.7840462375 1.8974821136 
2.0119052671 2.1243706857 2.232221744 2.3334263672 1.6743954455 1.7840462375 1.8974821136 2.0119052671 2.1243706857 
2.232221744 2.3334263672 2.426721652 1.4671972081 1.3575464161 1.4671972081 1.24411054 1.3575464161 1.4671972081 
1.1296873865 1.24411054 1.3575464161 1.4671972081 1.0172219679 1.1296873865 1.24411054 1.3575464161 1.4671972081 
0.90937090954 1.0172219679 1.1296873865 1.24411054 1.3575464161 1.4671972081 0.80816628637 0.90937090954 1.0172219679 
1.1296873865 1.24411054 1.3575464161 1.4671972081 0.71487100155 0.80816628637 0.90937090954 1.0172219679 1.1296873865 
1.24411054 1.3575464161 1.4671972081 0.60381225391 0.57404952988 0.69302191562 0.54002084522 0.66790778838 0.79216440667 
0.50083690068 0.63877777351 0.77356233629 0.90072551443 0.45538277901 0.60464862014 0.75168694275 0.89058134991 1.0172219679 
0.40226393329 0.56421707518 0.72561863695 0.87851444325 1.0172219679 1.139116835 0.33975332011 0.51573716537 0.69407236469 
0.86392567495 1.0172219679 1.1502619915 1.2630228569 0.26576171152 0.45685295248 0.6552068806 0.84594095064 1.0172219679 
1.1636342747 1.2852923014 1.3852070904 0.22715816343 0.3129712797 0.49462574053 0.49462574053 0.68021497688 0.77059342779 
1.0172219679 1.0172219679 1.0172219679 1.0172219679 2.1243706857 1.5707963268 1.3676273807 1.271087727 1.2156949949 
2.6469669131 2.1243706857 1.7739652728 1.5707963268 1.447813335 1.3676273807 2.8286213739 2.4613776767 2.1243706857 
1.8705049266 1.6937793186 1.5707963268 1.4827341049 2.9144344902 2.6469669131 2.3709992258 2.1243706857 1.9258976586 
1.7739652728 1.6588585487 1.5707963268 1.7563855631 1.8563003522 1.8785697967 1.9779583789 1.9913306621 2.0024758186 
2.1243706857 2.1243706857 2.1243706857 2.1243706857 2.295651703 2.2776669786 2.2630782103 2.2510113037 2.2408671392 
2.486385773 2.4475202889 2.4159740166 2.3899057108 2.3680303173 2.3494282469 2.6847397011 2.6258554882 2.5773755784 
2.5369440334 2.5028148801 2.4736848652 2.448570738 2.8758309421 2.8018393335 2.7393287203 2.6862098746 2.6407557529 
2.6015718084 2.5675431237 2.5377803997 5.8604937156 5.901393709 5.9723133995 5.9473927383 6.0216547488 6.0927478736 
5.9992719463 6.0767621038 6.1501452836 6.2190157008 6.0578962336 6.1383094565 6.2134963469 0 0.064169606361 
6.1241815303 6.206940195 6.2831853072 0.069688960264 0.13304002361 0.19043743361 6.1990255847 0 0.07624511221 
0.14487585072 0.20642320337 0.26153055843 0.3108719077 0 0.084159722458 0.15900377685 0.22528907359 0.28391336087 
0.3357925689 0.38179159818 0.42269159155 5.8604937156 5.9723133995 5.901393709 6.0927478736 6.0216547488 5.9473927383 
6.2190157008 6.1501452836 6.0767621038 5.9992719463 0.064169606361 0 6.2134963469 6.1383094565 6.0578962336 
0.19043743361 0.13304002361 0.069688960264 6.2831853072 6.206940195 6.1241815303 0.3108719077 0.26153055843 0.20642320337 
0.14487585072 0.07624511221 6.2831853072 6.1990255847 0.42269159155 0.38179159818 0.3357925689 0.28391336087 0.22528907359 
0.15900377685 0.084159722458 0 5.6793730533 5.7091357773 5.5901633916 5.743164462 5.6152775188 5.4910209005 
5.7823484065 5.6444075337 5.5096229709 5.3824597928 5.8278025282 5.678536687 5.5314983644 5.3926039573 5.2659633393 
5.8809213739 5.718968232 5.5575666702 5.4046708639 5.2659633393 5.1440684722 5.9434319871 5.7674481418 5.5891129425 
5.4192596322 5.2659633393 5.1329233157 5.0201624502 6.0174235957 5.8263323547 5.6279784266 5.4372443565 5.2659633393 
5.1195510325 4.9978930058 4.8979782167 1.3852070904 1.2852923014 1.2630228569 1.1636342747 1.1502619915 1.139116835 
1.0172219679 1.0172219679 1.0172219679 1.0172219679 0.84594095064 0.86392567495 0.87851444325 0.89058134991 0.90072551443 
0.6552068806 0.69407236469 0.72561863695 0.75168694275 0.77356233629 0.79216440667 0.45685295248 0.51573716537 0.56421707518 
0.60464862014 0.63877777351 0.66790778838 0.69302191562 0.26576171152 0.33975332011 0.40226393329 0.45538277901 0.50083690068 
0.54002084522 0.57404952988 0.60381225391 
_paraPhiHalf 1 1002 double
0 3.1415926536 0 3.1415926536 1.5707963268 1.5707963268 1.5707963268 1.5707963268 2.5880182947 
0.5535743589 2.5880182947 0.5535743589 0 0 0 0 3.1415926536 3.1415926536 
3.1415926536 3.1415926536 3.1415926536 0.17788134 0.38438696014 0.60631181711 0.82323535693 1.0172219679 1.1799687454 
1.3118704726 1.4175000338 1.5022335207 0.17788134 0.38438696014 0.60631181711 0.82323535693 1.0172219679 1.1799687454 
1.3118704726 1.4175000338 1.5022335207 0.093902416448 0.17615329733 0.2478725152 0.31035131605 0.36486382811 0.41257334776 
0.45449736604 0.4915044461 0.52432611754 0.093902416448 0.17615329733 0.2478725152 0.31035131605 0.36486382811 0.41257334776 
0.45449736604 0.4915044461 0.52432611754 2.9637113136 2.7572056934 2.5352808365 2.3183572967 2.1243706857 1.9616239082 
1.829722181 1.7240926197 1.6393591329 2.9637113136 2.7572056934 2.5352808365 2.3183572967 2.1243706857 1.9616239082 
1.829722181 1.7240926197 1.6393591329 3.0476902371 2.9654393563 2.8937201384 2.8312413375 2.7767288255 2.7290193058 
2.6870952876 2.6500882075 2.617266536 3.0476902371 2.9654393563 2.8937201384 2.8312413375 2.7767288255 2.7290193058 
2.6870952876 2.6500882075 2.617266536 0 0 0 0 3.1415926536 3.1415926536 
3.1415926536 3.1415926536 3.1415926536 0.17788134 0.38438696014 0.60631181711 0.82323535693 1.0172219679 1.1799687454 
1.3118704726 1.4175000338 1.5022335207 0.17788134 0.38438696014 0.60631181711 0.82323535693 1.0172219679 1.1799687454 
1.3118704726 1.4175000338 1.5022335207 0.093902416448 0.17615329733 0.2478725152 0.31035131605 0.36486382811 0.41257334776 
0.45449736604 0.4915044461 0.52432611754 0.093902416448 0.17615329733 0.2478725152 0.31035131605 0.36486382811 0.41257334776 
0.45449736604 0.4915044461 0.52432611754 2.9637113136 2.7572056934 2.5352808365 2.3183572967 2.1243706857 1.9616239082 
1.829722181 1.7240926197 1.6393591329 2.9637113136 2.7572056934 2.5352808365 2.3183572967 2.1243706857 1.9616239082 
1.829722181 1.7240926197 1.6393591329 3.0476902371 2.9654393563 2.8937201384 2.8312413375 2.7767288255 2.7290193058 
2.6870952876 2.6500882075 2.617266536 3.0476902371 2.9654393563 2.8937201384 2.8312413375 2.7767288255 2.7290193058 
2.6870952876 2.6500882075 2.617266536 1.5707963268 1.5707963268 1.5707963268 1.5707963268 1.5707963268 1.5707963268 
1.5707963268 1.5707963268 1.5707963268 1.6743954455 1.7840462375 1.8974821136 2.0119052671 2.1243706857 2.232221744 
2.3334263672 2.426721652 2.5115728246 1.4671972081 1.3575464161 1.24411054 1.1296873865 1.0172219679 0.90937090954 
0.80816628637 0.71487100155 0.63001982895 1.6743954455 1.7840462375 1.8974821136 2.0119052671 2.1243706857 2.232221744 
2.3334263672 2.426721652 2.5115728246 1.4671972081 1.3575464161 1.24411054 1.1296873865 1.0172219679 0.90937090954 
0.80816628637 0.71487100155 0.63001982895 1.5707963268 1.5707963268 1.5707963268 1.5707963268 1.5707963268 1.5707963268 
1.5707963268 1.5707963268 1.5707963268 1.6743954455 1.7840462375 1.8974821136 2.0119052671 2.1243706857 2.232221744 
2.3334263672 2.426721652 2.5115728246 1.4671972081 1.3575464161 1.24411054 1.1296873865 1.0172219679 0.90937090954 
0.80816628637 0.71487100155 0.63001982895 1.6743954455 1.7840462375 1.8974821136 2.0119052671 2.1243706857 2.232221744 
2.3334263672 2.426721652 2.5115728246 1.4671972081 1.3575464161 1.24411054 1.1296873865 1.0172219679 0.90937090954 
0.80816628637 0.71487100155 0.63001982895 2.6824132222 2.7864913217 2.8992382033 3.0186096618 3.1415926536 3.0186096618 
2.8992382033 2.7864913217 2.6824132222 0.45917943135 0.35510133185 0.2423544503 0.12298299178 0 0.12298299178 
0.2423544503 0.35510133185 0.45917943135 0.22715816343 0.49462574053 0.3129712797 0.77059342779 0.68021497688 0.49462574053 
1.0172219679 1.0172219679 1.0172219679 1.0172219679 1.2156949949 1.271087727 1.3676273807 1.5707963268 2.1243706857 
1.3676273807 1.447813335 1.5707963268 1.7739652728 2.1243706857 2.6469669131 1.4827341049 1.5707963268 1.6937793186 
1.8705049266 2.1243706857 2.4613776767 2.8286213739 1.5707963268 1.6588585487 1.7739652728 1.9258976586 2.1243706857 
2.3709992258 2.6469669131 2.9144344902 0.26576171152 0.33975332011 0.45685295248 0.40226393329 0.51573716537 0.6552068806 
0.45538277901 0.56421707518 0.69407236469 0.84594095064 0.50083690068 0.60464862014 0.72561863695 0.86392567495 1.0172219679 
0.54002084522 0.63877777351 0.75168694275 0.87851444325 1.0172219679 1.1636342747 0.57404952988 0.66790778838 0.77356233629 
0.89058134991 1.0172219679 1.1502619915 1.2852923014 0.60381225391 0.69302191562 0.79216440667 0.90072551443 1.0172219679 
1.139116835 1.2630228569 1.3852070904 0.71487100155 0.80816628637 0.80816628637 0.90937090954 0.90937090954 0.90937090954 
1.0172219679 1.0172219679 1.0172219679 1.0172219679 1.1296873865 1.1296873865 1.1296873865 1.1296873865 1.1296873865 
1.24411054 1.24411054 1.24411054 1.24411054 1.24411054 1.24411054 1.3575464161 1.3575464161 1.3575464161 
1.3575464161 1.3575464161 1.3575464161 1.3575464161 1.4671972081 1.4671972081 1.4671972081 1.4671972081 1.4671972081 
1.4671972081 1.4671972081 1.4671972081 1.6743954455 1.6743954455 1.7840462375 1.6743954455 1.7840462375 1.8974821136 
1.6743954455 1.7840462375 1.8974821136 2.0119052671 1.6743954455 1.7840462375 1.8974821136 2.0119052671 2.1243706857 
1.6743954455 1.7840462375 1.8974821136 2.0119052671 2.1243706857 2.232221744 1.6743954455 1.7840462375 1.8974821136 
2.0119052671 2.1243706857 2.232221744 2.3334263672 1.6743954455 1.7840462375 1.8974821136 2.0119052671 2.1243706857 
2.232221744 2.3334263672 2.426721652 1.7563855631 1.8785697967 1.8563003522 2.0024758186 1.9913306621 1.9779583789 
2.1243706857 2.1243706857 2.1243706857 2.1243706857 2.2408671392 2.2510113037 2.2630782103 2.2776669786 2.295651703 
2.3494282469 2.3680303173 2.3899057108 2.4159740166 2.4475202889 2.486385773 2.448570738 2.4736848652 2.5028148801 
2.5369440334 2.5773755784 2.6258554882 2.6847397011 2.5377803997 2.5675431237 2.6015718084 2.6407557529 2.6862098746 
2.7393287203 2.8018393335 2.8758309421 2.718901062 2.8307207459 2.7598010554 2.95115522 2.8800620952 2.8058000847 
3.0774230472 3.00855263 2.9351694502 2.8576792927 3.0774230472 3.1415926536 3.0719036933 2.9967168029 2.91630358 
2.95115522 3.00855263 3.0719036933 3.1415926536 3.0653475414 2.9825888767 2.8307207459 2.8800620952 2.9351694502 
2.9967168029 3.0653475414 3.1415926536 3.0574329311 2.718901062 2.7598010554 2.8058000847 2.8576792927 2.91630358 
2.9825888767 3.0574329311 3.1415926536 2.718901062 2.7598010554 2.8307207459 2.8058000847 2.8800620952 2.95115522 
2.8576792927 2.9351694502 3.00855263 3.0774230472 2.91630358 2.9967168029 3.0719036933 3.1415926536 3.0774230472 
2.9825888767 3.0653475414 3.1415926536 3.0719036933 3.00855263 2.95115522 3.0574329311 3.1415926536 3.0653475414 