# vtk DataFile Version 5.1
vtk output
ASCII
DATASET POLYDATA
POINTS 1002 float
-5.49263 -0.206168 -4.01306 5.47644 0.202973 -3.05832 -5.02359 0.103733 4.52919 
4.63697 -0.0106289 4.29696 0.401744 6.28797 -2.53143 0.589581 7.18174 3.56154 
-0.424408 -6.2187 -2.42893 -0.0278512 -7.09893 3.56738 9.28577 4.65721 -0.66519 
-10.6229 4.69418 -1.52395 9.83388 -4.86454 -1.2093 -8.42267 -4.44961 -0.916792 
-4.57746 -0.19997 -3.93916 -3.5526 -0.176655 -3.7677 -2.44359 -0.162368 -3.50367 
-1.28249 -0.145245 -3.19752 -0.0843641 -0.0791362 -2.9242 1.14266 0.0305918 -2.73544 
2.35902 0.119558 -2.65621 3.50512 0.160208 -2.70387 4.54623 0.18033 -2.86037 
-5.20064 0.394149 -3.90264 -4.81692 1.0444 -3.70501 -4.33583 1.71688 -3.41807 
-3.75468 2.39351 -3.06515 -3.06454 3.0869 -2.70081 -2.27752 3.80128 -2.40215 
-1.46595 4.4983 -2.24608 -0.727283 5.14324 -2.26254 -0.109166 5.73854 -2.39495 
-5.1903 -0.802722 -4.04797 -4.83541 -1.43925 -4.03126 -4.41622 -2.1123 -3.94045 
-3.92782 -2.80866 -3.77794 -3.38223 -3.4995 -3.57869 -2.80018 -4.15226 -3.37713 
-2.19878 -4.75025 -3.17126 -1.59221 -5.29283 -2.94116 -0.995652 -5.78212 -2.68712 
-6.23466 0.202035 -3.98441 -7.0493 0.709101 -3.92924 -7.88972 1.28364 -3.84945 
-8.69635 1.86812 -3.75327 -9.47588 2.47823 -3.66647 -10.2539 3.18775 -3.56709 
-10.9078 3.93422 -3.33772 -11.2106 4.49545 -2.87873 -11.075 4.72836 -2.23016 
-6.18052 -0.568464 -4.03139 -6.85209 -0.97058 -3.95756 -7.48597 -1.43508 -3.83857 
-8.0772 -1.98141 -3.74793 -8.59143 -2.60493 -3.66446 -8.94009 -3.26308 -3.43358 
-9.05144 -3.85835 -2.93833 -8.94601 -4.26993 -2.24924 -8.70964 -4.44775 -1.53772 
5.2323 0.771515 -3.00941 4.90761 1.40343 -2.92358 4.48867 2.079 -2.8182 
3.9672 2.76247 -2.73029 3.35782 3.42958 -2.69785 2.71131 4.07823 -2.72902 
2.08554 4.70617 -2.78417 1.50049 5.29671 -2.79545 0.942477 5.82875 -2.71284 
5.09246 -0.371613 -2.93325 4.60316 -1.00413 -2.75411 4.02658 -1.69438 -2.57628 
3.40206 -2.40249 -2.45142 2.75605 -3.09078 -2.37905 2.08461 -3.77291 -2.33667 
1.39251 -4.46321 -2.3341 0.719962 -5.12395 -2.38021 0.109337 -5.71142 -2.43278 
6.23691 0.591126 -3.20611 7.00541 1.04752 -3.27215 7.76975 1.56285 -3.28321 
8.54807 2.13236 -3.33804 9.31756 2.78247 -3.42752 9.92456 3.49973 -3.32509 
10.1782 4.14327 -2.8365 10.0536 4.54576 -2.06774 9.70157 4.68169 -1.28965 
6.17749 -0.137192 -3.19848 6.93251 -0.541104 -3.31776 7.69935 -1.02599 -3.37568 
8.4098 -1.56674 -3.37423 9.03023 -2.11875 -3.35394 9.57072 -2.70016 -3.28317 
9.99319 -3.35323 -3.03073 10.1948 -4.01456 -2.52895 10.1231 -4.5438 -1.87114 
-4.15984 0.122676 4.7011 -3.20844 0.143209 4.88349 -2.17799 0.153969 5.1204 
-1.08449 0.143582 5.37458 0.0305943 0.122542 5.5149 1.10579 0.107028 5.46203 
2.10503 0.0880996 5.26924 3.02917 0.0534858 5.00593 3.87776 0.0149264 4.68085 
-4.7183 0.756477 4.66022 -4.3158 1.47646 4.74258 -3.82102 2.24834 4.79376 
-3.23826 3.07401 4.85059 -2.57106 3.94864 4.90822 -1.84944 4.81537 4.88815 
-1.13445 5.59139 4.71218 -0.479416 6.23681 4.38817 0.0948107 6.76075 3.98561 
-4.74109 -0.525562 4.49752 -4.38526 -1.20234 4.48737 -3.95442 -1.93455 4.49591 
-3.45703 -2.74042 4.51168 -2.91617 -3.59853 4.51909 -2.35668 -4.43928 4.49049 
-1.78634 -5.21216 4.3891 -1.20173 -5.91422 4.19217 -0.608847 -6.54757 3.9075 
-5.71511 0.481272 4.43778 -6.46321 0.873847 4.29826 -7.24184 1.2649 4.00046 
-8.003 1.66992 3.42098 -8.68147 2.1046 2.55265 -9.24473 2.54548 1.56314 
-9.72755 2.99429 0.64352 -10.1588 3.51346 -0.155509 -10.4856 4.11416 -0.874613 
-5.70156 -0.30075 4.25803 -6.38891 -0.728202 3.85432 -7.05579 -1.17812 3.35472 
-7.64977 -1.65336 2.80248 -8.09437 -2.1309 2.18504 -8.34828 -2.57632 1.49192 
-8.45239 -3.00618 0.793097 -8.47965 -3.4725 0.166206 -8.46843 -3.97567 -0.39046 
4.40754 0.655553 4.38437 4.12489 1.38725 4.44426 3.7888 2.16727 4.48537 
3.39689 2.97715 4.50823 2.94341 3.80338 4.49152 2.44109 4.61724 4.41424 
1.93145 5.37426 4.28062 1.45279 6.05194 4.09913 1.01077 6.65498 3.86136 
4.37125 -0.66383 4.43455 4.04239 -1.38356 4.54739 3.64831 -2.16815 4.6265 
3.18812 -3.00021 4.66487 2.66906 -3.84694 4.66778 2.11053 -4.67887 4.6388 
1.53774 -5.46414 4.54397 0.976516 -6.15125 4.32924 0.450096 -6.69648 3.9863 
5.23682 0.386338 3.91134 5.86035 0.818647 3.44541 6.50241 1.26887 2.92537 
7.15453 1.74557 2.37335 7.78231 2.26492 1.80071 8.32608 2.79729 1.23837 
8.74148 3.29577 0.733085 9.02737 3.76502 0.284264 9.20457 4.22752 -0.166579 
5.22395 -0.428617 3.93284 5.849 -0.879426 3.4619 6.5082 -1.36803 2.89221 
7.18145 -1.89426 2.24006 7.81849 -2.42636 1.54329 8.39373 -2.93514 0.887091 
8.93564 -3.4486 0.337369 9.42798 -3.99096 -0.149293 9.75971 -4.49752 -0.661142 
0.35858 6.89759 -2.37843 0.314752 7.52244 -2.01715 0.28129 8.07511 -1.43512 
0.266985 8.481 -0.717169 0.290145 8.71991 0.0397823 0.366799 8.77914 0.816328 
0.475047 8.61735 1.61376 0.563239 8.23598 2.37642 0.599496 7.72216 3.03406 
1.21903 6.53035 -2.75319 2.09878 6.6959 -2.86377 3.07005 6.72784 -2.7874 
4.1298 6.61451 -2.5619 5.23719 6.41941 -2.30638 6.33568 6.21784 -2.06525 
7.35198 5.99654 -1.77454 8.20316 5.67377 -1.4026 8.84317 5.21189 -1.00916 
-0.498293 6.35856 -2.21856 -1.56674 6.37423 -1.89822 -2.77662 6.36564 -1.64992 
-4.05963 6.39947 -1.54282 -5.3597 6.51018 -1.60523 -6.66278 6.60248 -1.78049 
-7.93756 6.49015 -1.92829 -9.08373 6.07458 -1.9309 -9.99107 5.42674 -1.77745 
1.332 7.2119 3.29865 2.14208 7.14425 2.94664 3.03231 6.97647 2.50224 
3.99007 6.71576 1.99167 4.98453 6.36946 1.45896 5.98642 5.96279 0.93893 
6.95494 5.55991 0.459912 7.8372 5.21956 0.0437103 8.60932 4.93602 -0.31932 
-0.174024 7.39497 3.45256 -1.08724 7.48058 3.23578 -2.16449 7.38007 2.89155 
-3.39589 7.08872 2.41145 -4.73835 6.66005 1.80463 -6.10218 6.17534 1.11048 
-7.39434 5.71715 0.388776 -8.5846 5.33504 -0.311122 -9.67377 5.01348 -0.957691 
-0.373581 -6.79256 -2.18576 -0.293261 -7.4115 -1.79339 -0.189501 -8.02036 -1.22398 
-0.0694054 -8.50653 -0.506735 0.0545226 -8.74883 0.271636 0.148904 -8.71252 1.02666 
0.175249 -8.46266 1.73437 0.130943 -8.07964 2.40578 0.050958 -7.61241 3.02856 
0.490691 -6.33065 -2.19679 1.51521 -6.41611 -1.96473 2.64703 -6.45998 -1.76989 
3.85662 -6.47462 -1.66569 5.07362 -6.49725 -1.67882 6.24251 -6.51049 -1.7552 
7.35706 -6.40013 -1.78099 8.38686 -6.06235 -1.67971 9.23875 -5.51498 -1.46675 
-1.30104 -6.43116 -2.52082 -2.24099 -6.62926 -2.5641 -3.21418 -6.78866 -2.54913 
-4.18675 -6.85767 -2.46358 -5.12502 -6.78859 -2.29824 -5.99247 -6.57142 -2.06757 
-6.76154 -6.21182 -1.7977 -7.42301 -5.7123 -1.50467 -7.97558 -5.10251 -1.20394 
0.875974 -7.38786 3.44161 1.88407 -7.62825 3.21308 2.97746 -7.74946 2.85632 
4.14109 -7.69225 2.3749 5.34115 -7.45282 1.79421 6.4921 -7.07865 1.14945 
7.50523 -6.61628 0.488821 8.37235 -6.08321 -0.139192 9.14181 -5.49043 -0.707918 
-0.868745 -7.10444 3.31879 -1.77725 -7.07581 3.02381 -2.73865 -7.00381 2.68878 
-3.72833 -6.82833 2.26281 -4.69843 -6.48812 1.70072 -5.59856 -6.01573 1.05962 
-6.41572 -5.53229 0.456077 -7.16205 -5.1262 -0.057948 -7.83574 -4.78548 -0.506127 
9.90374 4.04291 -0.698997 10.5158 3.26517 -0.747794 11.0704 2.33228 -0.807527 
11.4846 1.272 -0.89396 11.7048 0.131649 -1.03575 11.7244 -1.01532 -1.21305 
11.5295 -2.09853 -1.34619 11.1078 -3.09579 -1.37854 10.5099 -4.01855 -1.32075 
-11.4358 3.97404 -1.62786 -12.1128 3.12031 -1.62414 -12.493 2.13117 -1.49292 
-12.4219 1.05157 -1.27997 -11.8916 -0.0392823 -1.09627 -11.107 -1.08257 -1.02003 
-10.3206 -2.06133 -1.02026 -9.6334 -2.9653 -1.01938 -9.01398 -3.76878 -0.982241 
-4.18941 0.424676 -3.76991 -3.71475 1.08957 -3.51525 -3.07759 0.463114 -3.55843 
-3.1509 1.76222 -3.18832 -2.51631 1.1342 -3.27775 -1.88601 0.480028 -3.28156 
-2.49074 2.44467 -2.83612 -1.86579 1.81412 -2.94932 -1.2362 1.15953 -3.00345 
-0.639536 0.504727 -2.98659 -1.7327 3.16885 -2.53629 -1.13303 2.5251 -2.64667 
-0.509129 1.86812 -2.71388 0.0874112 1.20299 -2.74353 0.636252 0.58413 -2.75221 
-0.928152 3.91683 -2.36798 -0.35623 3.28353 -2.46267 0.248944 2.6197 -2.5148 
0.848375 1.94023 -2.54604 1.40355 1.2861 -2.59252 1.90813 0.685273 -2.64311 
-0.180158 4.62181 -2.37527 0.380362 4.03092 -2.4488 0.967971 3.38556 -2.47756 
1.57173 2.70358 -2.48618 2.1496 2.01763 -2.52444 2.67106 1.36217 -2.6037 
3.12578 0.744808 -2.67696 0.441227 5.2549 -2.52621 1.00134 4.7022 -2.58835 
1.58435 4.09087 -2.58959 2.19836 3.43525 -2.56728 2.81136 2.75343 -2.57548 
3.37201 2.06677 -2.64245 3.85086 1.3967 -2.74136 4.24126 0.76291 -2.82202 
-5.96421 0.8687 -3.87934 -6.79125 1.45137 -3.839 -5.57079 1.58288 -3.67532 
-7.6178 2.09277 -3.77612 -6.3671 2.23052 -3.63824 -5.0448 2.31411 -3.36197 
-8.39099 2.73379 -3.69207 -7.13758 2.9176 -3.57501 -5.76766 3.00795 -3.29659 
-4.38745 3.04392 -2.96349 -9.12358 3.42316 -3.59632 -7.84053 3.60009 -3.47297 
-6.44699 3.71059 -3.19201 -5.01267 3.75385 -2.8393 -3.60586 3.76903 -2.55204 
-9.78728 4.21225 -3.42983 -8.46798 4.35362 -3.32099 -7.04707 4.4125 -3.03305 
-5.59277 4.43864 -2.6707 -4.14334 4.45435 -2.37572 -2.74398 4.47275 -2.23474 
-10.2185 4.94062 -3.07193 -8.9499 5.16732 -3.04819 -7.53454 5.19523 -2.80431 
-6.08841 5.13885 -2.45454 -4.64853 5.10411 -2.16741 -3.22895 5.11296 -2.04576 
-1.89417 5.13588 -2.09589 -10.2739 5.36286 -2.48736 -9.16601 5.80652 -2.57536 
-7.84641 5.97108 -2.44776 -6.4552 5.90962 -2.17302 -5.06768 5.79103 -1.92032 
-3.68902 5.73928 -1.82371 -2.35168 5.75044 -1.90797 -1.13804 5.76362 -2.12472 
-8.95947 5.82289 -1.14314 -7.78336 6.19829 -0.422423 -7.98492 6.54748 -1.24239 
-6.50316 6.59776 0.328971 -6.75563 6.96458 -0.486073 -6.80631 7.00444 -1.22849 
-5.13593 7.03048 1.04688 -5.43433 7.35452 0.252076 -5.56661 7.44302 -0.518946 
-5.5302 7.12995 -1.15649 -3.74141 7.4586 1.67105 -4.0545 7.73997 0.894256 
-4.25171 7.83441 0.113298 -4.30335 7.61042 -0.595201 -4.23117 7.0691 -1.15283 
-2.41859 7.80762 2.17363 -2.69454 8.10647 1.40564 -2.91719 8.21119 0.622097 
-3.02908 8.06229 -0.132479 -3.03095 7.63359 -0.794716 -2.94171 7.01349 -1.30475 
-1.24102 7.98582 2.56252 -1.44467 8.36842 1.80652 -1.64973 8.53976 1.01711 
[...]
POINT_DATA 1002
FIELD FieldData 4
_paraPhi 1 1002 double
6.2831853072 3.1415926536 6.2831853072 3.1415926536 4.7123889804 4.7123889804 1.5707963268 1.5707963268 3.6951670125 
5.7296109483 2.5880182947 0.5535743589 6.2831853072 6.2831853072 6.2831853072 6.2831853072 3.1415926536 3.1415926536 
3.1415926536 3.1415926536 3.1415926536 6.1053039672 5.898798347 5.6768734901 5.4599499503 5.2659633393 5.1032165617 
4.9713148346 4.8656852733 4.7809517865 0.17788134 0.38438696014 0.60631181711 0.82323535693 1.0172219679 1.1799687454 
1.3118704726 1.4175000338 1.5022335207 6.1892828907 6.1070320098 6.035312792 5.9728339911 5.9183214791 5.8706119594 
5.8286879411 5.7916808611 5.7588591896 0.093902416448 0.17615329733 0.2478725152 0.31035131605 0.36486382811 0.41257334776 
0.45449736604 0.4915044461 0.52432611754 3.3194739936 3.5259796137 3.7479044707 3.9648280105 4.1588146215 4.321561399 
4.4534631262 4.5590926874 4.6438261743 2.9637113136 2.7572056934 2.5352808365 2.3183572967 2.1243706857 1.9616239082 
1.829722181 1.7240926197 1.6393591329 3.23549507 3.3177459509 3.3894651688 3.4519439696 3.5064564817 3.5541660013 
3.5960900196 3.6330970997 3.6659187711 3.0476902371 2.9654393563 2.8937201384 2.8312413375 2.7767288255 2.7290193058 
2.6870952876 2.6500882075 2.617266536 6.2831853072 6.2831853072 6.2831853072 6.2831853072 3.1415926536 3.1415926536 
3.1415926536 3.1415926536 3.1415926536 6.1053039672 5.898798347 5.6768734901 5.4599499503 5.2659633393 5.1032165617 
4.9713148346 4.8656852733 4.7809517865 0.17788134 0.38438696014 0.60631181711 0.82323535693 1.0172219679 1.1799687454 
1.3118704726 1.4175000338 1.5022335207 6.1892828907 6.1070320098 6.035312792 5.9728339911 5.9183214791 5.8706119594 
5.8286879411 5.7916808611 5.7588591896 0.093902416448 0.17615329733 0.2478725152 0.31035131605 0.36486382811 0.41257334776 
0.45449736604 0.4915044461 0.52432611754 3.3194739936 3.5259796137 3.7479044707 3.9648280105 4.1588146215 4.321561399 
4.4534631262 4.5590926874 4.6438261743 2.9637113136 2.7572056934 2.5352808365 2.3183572967 2.1243706857 1.9616239082 
1.829722181 1.7240926197 1.6393591329 3.23549507 3.3177459509 3.3894651688 3.4519439696 3.5064564817 3.5541660013 
3.5960900196 3.6330970997 3.6659187711 3.0476902371 2.9654393563 2.8937201384 2.8312413375 2.7767288255 2.7290193058 
2.6870952876 2.6500882075 2.617266536 4.7123889804 4.7123889804 4.7123889804 4.7123889804 4.7123889804 4.7123889804 
4.7123889804 4.7123889804 4.7123889804 4.6087898617 4.4991390697 4.3857031936 4.2712800401 4.1588146215 4.0509635631 
3.94975894 3.8564636551 3.7716124825 4.8159880991 4.9256388911 5.0390747672 5.1534979207 5.2659633393 5.3738143976 
5.4750190208 5.5683143056 5.6531654782 4.6087898617 4.4991390697 4.3857031936 4.2712800401 4.1588146215 4.0509635631 
3.94975894 3.8564636551 3.7716124825 4.8159880991 4.9256388911 5.0390747672 5.1534979207 5.2659633393 5.3738143976 
5.4750190208 5.5683143056 5.6531654782 1.5707963268 1.5707963268 1.5707963268 1.5707963268 1.5707963268 1.5707963268 
1.5707963268 1.5707963268 1.5707963268 1.6743954455 1.7840462375 1.8974821136 2.0119052671 2.1243706857 2.232221744 
2.3334263672 2.426721652 2.5115728246 1.4671972081 1.3575464161 1.24411054 1.1296873865 1.0172219679 0.90937090954 
0.80816628637 0.71487100155 0.63001982895 1.6743954455 1.7840462375 1.8974821136 2.0119052671 2.1243706857 2.232221744 
2.3334263672 2.426721652 2.5115728246 1.4671972081 1.3575464161 1.24411054 1.1296873865 1.0172219679 0.90937090954 
0.80816628637 0.71487100155 0.63001982895 3.6007720849 3.4966939854 3.3839471039 3.2645756454 3.1415926536 3.0186096618 
2.8992382033 2.7864913217 2.6824132222 5.8240058758 5.9280839753 6.0408308569 6.1602023154 6.2831853072 0.12298299178 
0.2423544503 0.35510133185 0.45917943135 6.0560271438 5.7885595667 5.9702140275 5.5125918794 5.6029703303 5.7885595667 
5.2659633393 5.2659633393 5.2659633393 5.2659633393 5.0674903122 5.0120975802 4.9155579264 4.7123889804 4.1588146215 
4.9155579264 4.8353719722 4.7123889804 4.5092200343 4.1588146215 3.6362183941 4.8004512023 4.7123889804 4.5894059886 
4.4126803806 4.1588146215 3.8218076305 3.4545639333 4.7123889804 4.6243267584 4.5092200343 4.3572876485 4.1588146215 
3.9121860814 3.6362183941 3.368750817 6.0174235957 5.9434319871 5.8263323547 5.8809213739 5.7674481418 5.6279784266 
5.8278025282 5.718968232 5.5891129425 5.4372443565 5.7823484065 5.678536687 5.5575666702 5.4192596322 5.2659633393 
5.743164462 5.6444075337 5.5314983644 5.4046708639 5.2659633393 5.1195510325 5.7091357773 5.6152775188 5.5096229709 
5.3926039573 5.2659633393 5.1329233157 4.9978930058 5.6793730533 5.5901633916 5.4910209005 5.3824597928 5.2659633393 
5.1440684722 5.0201624502 4.8979782167 5.5683143056 5.4750190208 5.4750190208 5.3738143976 5.3738143976 5.3738143976 
5.2659633393 5.2659633393 5.2659633393 5.2659633393 5.1534979207 5.1534979207 5.1534979207 5.1534979207 5.1534979207 
5.0390747672 5.0390747672 5.0390747672 5.0390747672 5.0390747672 5.0390747672 4.9256388911 4.9256388911 4.9256388911 
4.9256388911 4.9256388911 4.9256388911 4.9256388911 4.8159880991 4.8159880991 4.8159880991 4.8159880991 4.8159880991 
4.8159880991 4.8159880991 4.8159880991 4.6087898617 4.6087898617 4.4991390697 4.6087898617 4.4991390697 4.3857031936 
4.6087898617 4.4991390697 4.3857031936 4.2712800401 4.6087898617 4.4991390697 4.3857031936 4.2712800401 4.1588146215 
4.6087898617 4.4991390697 4.3857031936 4.2712800401 4.1588146215 4.0509635631 4.6087898617 4.4991390697 4.3857031936 
4.2712800401 4.1588146215 4.0509635631 3.94975894 4.6087898617 4.4991390697 4.3857031936 4.2712800401 4.1588146215 
4.0509635631 3.94975894 3.8564636551 4.526799744 4.4046155105 4.426884955 4.2807094886 4.2918546451 4.3052269283 
4.1588146215 4.1588146215 4.1588146215 4.1588146215 4.042318168 4.0321740035 4.0201070968 4.0055183285 3.9875336042 
3.9337570603 3.9151549899 3.8932795963 3.8672112905 3.8356650183 3.7967995342 3.8346145692 3.809500442 3.7803704271 
3.7462412737 3.7058097288 3.657329819 3.5984456061 3.7454049075 3.7156421835 3.6816134988 3.6424295543 3.5969754326 
3.5438565869 3.4813459737 3.4073543651 3.5642842451 3.4524645613 3.5233842518 3.3320300872 3.403123212 3.4773852225 
3.20576226 3.2746326772 3.348015857 3.4255060145 3.0774230472 3.1415926536 3.2112816139 3.2864685043 3.3668817272 
2.95115522 3.00855263 3.0719036933 3.1415926536 3.2178377658 3.3005964304 2.8307207459 2.8800620952 2.9351694502 
2.9967168029 3.0653475414 3.1415926536 3.225752376 2.718901062 2.7598010554 2.8058000847 2.8576792927 2.91630358 
2.9825888767 3.0574329311 3.1415926536 3.5642842451 3.5233842518 3.4524645613 3.4773852225 3.403123212 3.3320300872 
3.4255060145 3.348015857 3.2746326772 3.20576226 3.3668817272 3.2864685043 3.2112816139 3.1415926536 3.0774230472 
3.3005964304 3.2178377658 3.1415926536 3.0719036933 3.00855263 2.95115522 3.225752376 3.1415926536 3.0653475414 
2.9967168029 2.9351694502 2.8800620952 2.8307207459 3.1415926536 3.0574329311 2.9825888767 2.91630358 2.8576792927 
2.8058000847 2.7598010554 2.718901062 4.526799744 4.426884955 4.4046155105 4.3052269283 4.2918546451 4.2807094886 
4.1588146215 4.1588146215 4.1588146215 4.1588146215 3.9875336042 4.0055183285 4.0201070968 4.0321740035 4.042318168 
3.7967995342 3.8356650183 3.8672112905 3.8932795963 3.9151549899 3.9337570603 3.5984456061 3.657329819 3.7058097288 
3.7462412737 3.7803704271 3.809500442 3.8346145692 3.4073543651 3.4813459737 3.5438565869 3.5969754326 3.6424295543 
3.6816134988 3.7156421835 3.7454049075 4.7123889804 4.8004512023 4.6243267584 4.9155579264 4.7123889804 4.5092200343 
5.0674903122 4.8353719722 4.5894059886 4.3572876485 5.2659633393 5.0120975802 4.7123889804 4.4126803806 4.1588146215 
5.5125918794 5.2659633393 4.9155579264 4.5092200343 4.1588146215 3.9121860814 5.7885595667 5.6029703303 5.2659633393 
4.7123889804 4.1588146215 3.8218076305 3.6362183941 6.0560271438 5.9702140275 5.7885595667 5.2659633393 4.1588146215 
3.6362183941 3.4545639333 3.368750817 0.22715816343 0.49462574053 0.3129712797 0.77059342779 0.68021497688 0.49462574053 
1.0172219679 1.0172219679 1.0172219679 1.0172219679 1.2156949949 1.271087727 1.3676273807 1.5707963268 2.1243706857 
1.3676273807 1.447813335 1.5707963268 1.7739652728 2.1243706857 2.6469669131 1.4827341049 1.5707963268 1.6937793186 
1.8705049266 2.1243706857 2.4613776767 2.8286213739 1.5707963268 1.6588585487 1.7739652728 1.9258976586 2.1243706857 
2.3709992258 2.6469669131 2.9144344902 1.7563855631 1.8785697967 1.8563003522 2.0024758186 1.9913306621 1.9779583789 
2.1243706857 2.1243706857 2.1243706857 2.1243706857 2.2408671392 2.2510113037 2.2630782103 2.2776669786 2.295651703 
2.3494282469 2.3680303173 2.3899057108 2.4159740166 2.4475202889 2.486385773 2.448570738 2.4736848652 2.5028148801 
2.5369440334 2.5773755784 2.6258554882 2.6847397011 2.5377803997 2.5675431237 2.6015718084 2.6407557529 2.6862098746 
2.7393287203 2.8018393335 2.8758309421 1.6743954455 1.6743954455 1.7840462375 1.6743954455 1.7840462375 1.8974821136 
1.6743954455 1.7840462375 1.8974821136 2.0119052671 1.6743954455 1.7840462375 1.8974821136 2.0119052671 2.1243706857 
1.6743954455 1.7840462375 1.8974821136 2.0119052671 2.1243706857 2.232221744 1.6743954455 1.7840462375 1.8974821136 
2.0119052671 2.1243706857 2.232221744 2.3334263672 1.6743954455 1.7840462375 1.8974821136 2.0119052671 2.1243706857 
2.232221744 2.3334263672 2.426721652 1.4671972081 1.3575464161 1.4671972081 1.24411054 1.3575464161 1.4671972081 
1.1296873865 1.24411054 1.3575464161 1.4671972081 1.0172219679 1.1296873865 1.24411054 1.3575464161 1.4671972081 
0.90937090954 1.0172219679 1.1296873865 1.24411054 1.3575464161 1.4671972081 0.80816628637 0.90937090954 1.0172219679 
1.1296873865 1.24411054 1.3575464161 1.4671972081 0.71487100155 0.80816628637 0.90937090954 1.0172219679 1.1296873865 
1.24411054 1.3575464161 1.4671972081 0.60381225391 0.57404952988 0.69302191562 0.54002084522 0.66790778838 0.79216440667 
0.50083690068 0.63877777351 0.77356233629 0.90072551443 0.45538277901 0.60464862014 0.75168694275 0.89058134991 1.0172219679 
0.40226393329 0.56421707518 0.72561863695 0.87851444325 1.0172219679 1.139116835 0.33975332011 0.51573716537 0.69407236469 
0.86392567495 1.0172219679 1.1502619915 1.2630228569 0.26576171152 0.45685295248 0.6552068806 0.84594095064 1.0172219679 
1.1636342747 1.2852923014 1.3852070904 0.22715816343 0.3129712797 0.49462574053 0.49462574053 0.68021497688 0.77059342779 
1.0172219679 1.0172219679 1.0172219679 1.0172219679 2.1243706857 1.5707963268 1.3676273807 1.271087727 1.2156949949 
2.6469669131 2.1243706857 1.7739652728 1.5707963268 1.447813335 1.3676273807 2.8286213739 2.4613776767 2.1243706857 
1.8705049266 1.6937793186 1.5707963268 1.4827341049 2.9144344902 2.6469669131 2.3709992258 2.1243706857 1.9258976586 
1.7739652728 1.6588585487 1.5707963268 1.7563855631 1.8563003522 1.8785697967 1.9779583789 1.9913306621 2.0024758186 
2.1243706857 2.1243706857 2.1243706857 2.1243706857 2.295651703 2.2776669786 2.2630782103 2.2510113037 2.2408671392 
2.486385773 2.4475202889 2.4159740166 2.3899057108 2.3680303173 2.3494282469 2.6847397011 2.6258554882 2.5773755784 
2.5369440334 2.5028148801 2.4736848652 2.448570738 2.8758309421 2.8018393335 2.7393287203 2.6862098746 2.6407557529 
2.6015718084 2.5675431237 2.5377803997 5.8604937156 5.901393709 5.9723133995 5.9473927383 6.0216547488 6.0927478736 
5.9992719463 6.0767621038 6.1501452836 6.2190157008 6.0578962336 6.1383094565 6.2134963469 0 0.064169606361 
6.1241815303 6.206940195 6.2831853072 0.069688960264 0.13304002361 0.19043743361 6.1990255847 0 0.07624511221 
0.14487585072 0.20642320337 0.26153055843 0.3108719077 0 0.084159722458 0.15900377685 0.22528907359 0.28391336087 
0.3357925689 0.38179159818 0.42269159155 5.8604937156 5.9723133995 5.901393709 6.0927478736 6.0216547488 5.9473927383 
6.2190157008 6.1501452836 6.0767621038 5.9992719463 0.064169606361 0 6.2134963469 6.1383094565 6.0578962336 
0.19043743361 0.13304002361 0.069688960264 6.2831853072 6.206940195 6.1241815303 0.3108719077 0.26153055843 0.20642320337 
0.14487585072 0.07624511221 6.2831853072 6.1990255847 0.42269159155 0.38179159818 0.3357925689 0.28391336087 0.22528907359 
0.15900377685 0.084159722458 0 5.6793730533 5.7091357773 5.5901633916 5.743164462 5.6152775188 5.4910209005 
5.7823484065 5.6444075337 5.5096229709 5.3824597928 5.8278025282 5.678536687 5.5314983644 5.3926039573 5.2659633393 
5.8809213739 5.718968232 5.5575666702 5.4046708639 5.2659633393 5.1440684722 5.9434319871 5.7674481418 5.5891129425 
5.4192596322 5.2659633393 5.1329233157 5.0201624502 6.0174235957 5.8263323547 5.6279784266 5.4372443565 5.2659633393 
5.1195510325 4.9978930058 4.8979782167 1.3852070904 1.2852923014 1.2630228569 1.1636342747 1.1502619915 1.139116835 
1.0172219679 1.0172219679 1.0172219679 1.0172219679 0.84594095064 0.86392567495 0.87851444325 0.89058134991 0.90072551443 
0.6552068806 0.69407236469 0.72561863695 0.75168694275 0.77356233629 0.79216440667 0.45685295248 0.51573716537 0.56421707518 
0.60464862014 0.63877777351 0.66790778838 0.69302191562 0.26576171152 0.33975332011 0.40226393329 0.45538277901 0.50083690068 
0.54002084522 0.57404952988 0.60381225391 
_paraPhiHalf 1 1002 double
0 3.1415926536 0 3.1415926536 1.5707963268 1.5707963268 1.5707963268 1.5707963268 2.5880182947 
0.5535743589 2.5880182947 0.5535743589 0 0 0 0 3.1415926536 3.1415926536 
3.1415926536 3.1415926536 3.1415926536 0.17788134 0.38438696014 0.60631181711 0.82323535693 1.0172219679 1.1799687454 
1.3118704726 1.4175000338 1.5022335207 0.17788134 0.38438696014 0.60631181711 0.82323535693 1.0172219679 1.1799687454 
1.3118704726 1.4175000338 1.5022335207 0.093902416448 0.17615329733 0.2478725152 0.31035131605 0.36486382811 0.41257334776 
0.45449736604 0.4915044461 0.52432611754 0.093902416448 0.17615329733 0.2478725152 0.31035131605 0.36486382811 0.41257334776 
0.45449736604 0.4915044461 0.52432611754 2.9637113136 2.7572056934 2.5352808365 2.3183572967 2.1243706857 1.9616239082 
1.829722181 1.7240926197 1.6393591329 2.9637113136 2.7572056934 2.5352808365 2.3183572967 2.1243706857 1.9616239082 
1.829722181 1.7240926197 1.6393591329 3.0476902371 2.9654393563 2.8937201384 2.8312413375 2.7767288255 2.7290193058 
2.6870952876 2.6500882075 2.617266536 3.0476902371 2.9654393563 2.8937201384 2.8312413375 2.7767288255 2.7290193058 
2.6870952876 2.6500882075 2.617266536 0 0 0 0 3.1415926536 3.1415926536 
3.1415926536 3.1415926536 3.1415926536 0.17788134 0.38438696014 0.60631181711 0.82323535693 1.0172219679 1.1799687454 
1.3118704726 1.4175000338 1.5022335207 0.17788134 0.38438696014 0.60631181711 0.82323535693 1.0172219679 1.1799687454 
1.3118704726 1.4175000338 1.5022335207 0.093902416448 0.17615329733 0.2478725152 0.31035131605 0.36486382811 0.41257334776 
0.45449736604 0.4915044461 0.52432611754 0.093902416448 0.17615329733 0.2478725152 0.31035131605 0.36486382811 0.41257334776 
0.45449736604 0.4915044461 0.52432611754 2.9637113136 2.7572056934 2.5352808365 2.3183572967 2.1243706857 1.9616239082 
1.829722181 1.7240926197 1.6393591329 2.9637113136 2.7572056934 2.5352808365 2.3183572967 2.1243706857 1.9616239082 
1.829722181 1.7240926197 1.6393591329 3.0476902371 2.9654393563 2.8937201384 2.8312413375 2.7767288255 2.7290193058 
2.6870952876 2.6500882075 2.617266536 3.0476902371 2.9654393563 2.8937201384 2.8312413375 2.7767288255 2.7290193058 
2.6870952876 2.6500882075 2.617266536 1.5707963268 1.5707963268 1.5707963268 1.5707963268 1.5707963268 1.5707963268 
1.5707963268 1.5707963268 1.5707963268 1.6743954455 1.7840462375 1.8974821136 2.0119052671 2.1243706857 2.232221744 
2.3334263672 2.426721652 2.5115728246 1.4671972081 1.3575464161 1.24411054 1.1296873865 1.0172219679 0.90937090954 
0.80816628637 0.71487100155 0.63001982895 1.6743954455 1.7840462375 1.8974821136 2.0119052671 2.1243706857 2.232221744 
2.3334263672 2.426721652 2.5115728246 1.4671972081 1.3575464161 1.24411054 1.1296873865 1.0172219679 0.90937090954 
0.80816628637 0.71487100155 0.63001982895 1.5707963268 1.5707963268 1.5707963268 1.5707963268 1.5707963268 1.5707963268 
1.5707963268 1.5707963268 1.5707963268 1.6743954455 1.7840462375 1.8974821136 2.0119052671 2.1243706857 2.232221744 
2.3334263672 2.426721652 2.5115728246 1.4671972081 1.3575464161 1.24411054 1.1296873865 1.0172219679 0.90937090954 
0.80816628637 0.71487100155 0.63001982895 1.6743954455 1.7840462375 1.8974821136 2.0119052671 2.1243706857 2.232221744 
2.3334263672 2.426721652 2.5115728246 1.4671972081 1.3575464161 1.24411054 1.1296873865 1.0172219679 0.90937090954 
0.80816628637 0.71487100155 0.63001982895 2.6824132222 2.7864913217 2.8992382033 3.0186096618 3.1415926536 3.0186096618 
2.8992382033 2.7864913217 2.6824132222 0.45917943135 0.35510133185 0.2423544503 0.12298299178 0 0.12298299178 
0.2423544503 0.35510133185 0.45917943135 0.22715816343 0.49462574053 0.3129712797 0.77059342779 0.68021497688 0.49462574053 
1.0172219679 1.0172219679 1.0172219679 1.0172219679 1.2156949949 1.271087727 1.3676273807 1.5707963268 2.1243706857 
1.3676273807 1.447813335 1.5707963268 1.7739652728 2.1243706857 2.6469669131 1.4827341049 1.5707963268 1.6937793186 
1.8705049266 2.1243706857 2.4613776767 2.8286213739 1.5707963268 1.6588585487 1.7739652728 1.9258976586 2.1243706857 
2.3709992258 2.6469669131 2.9144344902 0.26576171152 0.33975332011 0.45685295248 0.40226393329 0.51573716537 0.6552068806 
0.45538277901 0.56421707518 0.69407236469 0.84594095064 0.50083690068 0.60464862014 0.72561863695 0.86392567495 1.0172219679 
0.54002084522 0.63877777351 0.75168694275 0.87851444325 1.0172219679 1.1636342747 0.57404952988 0.66790778838 0.77356233629 
0.89058134991 1.0172219679 1.1502619915 1.2852923014 0.60381225391 0.69302191562 0.79216440667 0.90072551443 1.0172219679 
1.139116835 1.2630228569 1.3852070904 0.71487100155 0.80816628637 0.80816628637 0.90937090954 0.90937090954 0.90937090954 
1.0172219679 1.0172219679 1.0172219679 1.0172219679 1.1296873865 1.1296873865 1.1296873865 1.1296873865 1.1296873865 
1.24411054 1.24411054 1.24411054 1.24411054 1.24411054 1.24411054 1.3575464161 1.3575464161 1.3575464161 
1.3575464161 1.3575464161 1.3575464161 1.3575464161 1.4671972081 1.4671972081 1.4671972081 1.4671972081 1.4671972081 
1.4671972081 1.4671972081 1.4671972081 1.6743954455 1.6743954455 1.7840462375 1.6743954455 1.7840462375 1.8974821136 
1.6743954455 1.7840462375 1.8974821136 2.0119052671 1.6743954455 1.7840462375 1.8974821136 2.0119052671 2.1243706857 
1.6743954455 1.7840462375 1.8974821136 2.0119052671 2.1243706857 2.232221744 1.6743954455 1.7840462375 1.8974821136 
2.0119052671 2.1243706857 2.232221744 2.3334263672 1.6743954455 1.7840462375 1.8974821136 2.0119052671 2.1243706857 
2.232221744 2.3334263672 2.426721652 1.7563855631 1.8785697967 1.8563003522 2.0024758186 1.9913306621 1.9779583789 
2.1243706857 2.1243706857 2.1243706857 2.1243706857 2.2408671392 2.2510113037 2.2630782103 2.2776669786 2.295651703 
2.3494282469 2.3680303173 2.3899057108 2.4159740166 2.4475202889 2.486385773 2.448570738 2.4736848652 2.5028148801 
2.5369440334 2.5773755784 2.6258554882 2.6847397011 2.5377803997 2.5675431237 2.6015718084 2.6407557529 2.6862098746 
2.7393287203 2.8018393335 2.8758309421 2.718901062 2.8307207459 2.7598010554 2.95115522 2.8800620952 2.8058000847 
3.0774230472 3.00855263 2.9351694502 2.8576792927 3.0774230472 3.1415926536 3.0719036933 2.9967168029 2.91630358 
2.95115522 3.00855263 3.0719036933 3.1415926536 3.0653475414 2.9825888767 2.8307207459 2.8800620952 2.9351694502 
2.9967168029 3.0653475414 3.1415926536 3.0574329311 2.718901062 2.7598010554 2.8058000847 2.8576792927 2.91630358 
2.9825888767 3.0574329311 3.1415926536 2.718901062 2.7598010554 2.8307207459 2.8058000847 2.8800620952 2.95115522 
2.8576792927 2.9351694502 3.00855263 3.0774230472 2.91630358 2.9967168029 3.0719036933 3.1415926536 3.0774230472 
2.9825888767 3.0653475414 3.1415926536 3.0719036933 3.00855263 2.95115522 3.0574329311 3.1415926536 3.0653475414 