# vtk DataFile Version 5.1
vtk output
ASCII
DATASET POLYDATA
POINTS 1002 float
-5.46636 -0.244014 -3.84462 5.36127 0.227819 -3.66763 -5.27027 0.233845 4.21316 
5.18628 -0.176355 3.97992 0.282168 6.41583 -2.88699 0.0480629 6.59067 3.11099 
-0.124353 -6.43014 -2.90418 0.056261 -6.61788 3.11048 9.47784 4.50255 -0.227922 
-9.87147 4.53674 -0.421385 9.8784 -4.64977 -0.543312 -9.49279 -4.47155 -0.154251 
-4.53465 -0.227837 -3.87026 -3.50421 -0.200189 -3.89152 -2.39281 -0.169976 -3.89838 
-1.2249 -0.126075 -3.88052 -0.0272199 -0.0502197 -3.85607 1.17324 0.0418631 -3.84874 
2.3436 0.114368 -3.84329 3.44711 0.160313 -3.80947 4.45691 0.195834 -3.74545 
-5.13901 0.357159 -3.77092 -4.72471 1.01278 -3.6649 -4.22308 1.71385 -3.53439 
-3.63729 2.44645 -3.39261 -2.97441 3.19485 -3.25425 -2.25897 3.9391 -3.13633 
-1.53948 4.65273 -3.05579 -0.864464 5.31199 -3.01075 -0.256915 5.90287 -2.9686 
-5.17377 -0.839904 -3.91136 -4.8032 -1.48908 -3.95458 -4.3467 -2.1841 -3.96506 
-3.80688 -2.90969 -3.94328 -3.20213 -3.63769 -3.89437 -2.56112 -4.3308 -3.8098 
-1.9122 -4.96181 -3.66866 -1.27879 -5.52315 -3.46172 -0.678888 -6.01388 -3.20038 
-6.19705 0.135161 -3.76959 -6.96932 0.582754 -3.66 -7.73675 1.08393 -3.48992 
-8.44338 1.60643 -3.2518 -9.06715 2.14814 -2.97371 -9.60572 2.743 -2.66329 
-10.0064 3.37222 -2.26232 -10.1837 3.92953 -1.72053 -10.117 4.31964 -1.07618 
-6.2044 -0.62113 -3.84769 -6.95763 -1.03794 -3.8062 -7.69757 -1.50206 -3.70603 
-8.40415 -2.02322 -3.5427 -9.03533 -2.59489 -3.28483 -9.5091 -3.17419 -2.86163 
-9.76153 -3.68998 -2.24146 -9.80459 -4.08263 -1.50202 -9.69742 -4.33578 -0.77623 
5.09223 0.829064 -3.71782 4.75016 1.4836 -3.75497 4.32923 2.1778 -3.77392 
3.82638 2.8918 -3.76051 3.25224 3.60274 -3.70771 2.63808 4.28927 -3.62893 
2.01875 4.9314 -3.53063 1.41364 5.50845 -3.38743 0.831545 6.00454 -3.17133 
5.03047 -0.39129 -3.64713 4.6166 -1.06242 -3.58911 4.12282 -1.76944 -3.48658 
3.56027 -2.4949 -3.35502 2.94156 -3.22879 -3.2248 2.28305 -3.96129 -3.12116 
1.61569 -4.67019 -3.05798 0.978434 -5.32875 -3.02816 0.39661 -5.91908 -2.99282 
6.08704 0.632337 -3.61011 6.83462 1.07756 -3.52201 7.57683 1.55883 -3.39506 
8.29911 2.08057 -3.22865 8.9763 2.65154 -3.01137 9.52746 3.24825 -2.68767 
9.84652 3.79031 -2.19397 9.89885 4.18803 -1.54877 9.7455 4.41286 -0.857794 
6.05675 -0.132388 -3.56938 6.78857 -0.548966 -3.4355 7.52299 -1.02604 -3.24903 
8.21963 -1.54809 -3.01182 8.85742 -2.09704 -2.75796 9.4229 -2.68182 -2.50046 
9.86034 -3.30154 -2.18092 10.0872 -3.88913 -1.73074 10.0759 -4.35155 -1.15945 
-4.38426 0.22039 4.35532 -3.40384 0.187138 4.46954 -2.33672 0.144401 4.55389 
-1.1978 0.0963283 4.60106 -0.0179473 0.0387062 4.59251 1.15919 -0.0268623 4.51831 
2.29366 -0.0896927 4.39739 3.35616 -0.139037 4.25998 4.32459 -0.168168 4.12105 
-4.97947 0.853146 4.33433 -4.60603 1.52749 4.42824 -4.14522 2.25101 4.48233 
-3.6013 3.01331 4.48903 -2.98953 3.78778 4.44264 -2.33933 4.52911 4.32751 
-1.68794 5.19221 4.1218 -1.0646 5.75382 3.82632 -0.483929 6.21533 3.47553 
-4.96811 -0.387771 4.17082 -4.5899 -1.06472 4.11031 -4.13865 -1.78526 4.02723 
-3.6146 -2.5406 3.92409 -3.01573 -3.32029 3.80892 -2.35909 -4.09569 3.68554 
-1.69134 -4.82777 3.55685 -1.05898 -5.49504 3.42604 -0.478305 -6.09381 3.28368 
-5.97339 0.61377 4.12167 -6.70232 1.01493 3.97429 -7.42556 1.43579 3.72364 
-8.11425 1.88762 3.32399 -8.7364 2.37315 2.77797 -9.25321 2.86941 2.14709 
-9.63561 3.35258 1.49265 -9.87033 3.81205 0.834626 -9.94864 4.22192 0.184779 
-5.96927 -0.16041 4.0033 -6.70473 -0.610868 3.72471 -7.43768 -1.10022 3.38295 
-8.11381 -1.61339 2.98303 -8.6918 -2.14962 2.52615 -9.15479 -2.7031 2.02635 
-9.48203 -3.24347 1.50751 -9.64235 -3.73244 0.974854 -9.63256 -4.14548 0.418553 
4.89396 0.443868 3.93813 4.52701 1.12194 3.89257 4.08061 1.85156 3.85378 
3.55542 2.61363 3.81088 2.96454 3.38178 3.74078 2.3383 4.13322 3.6428 
1.71448 4.84764 3.53929 1.11979 5.50422 3.43356 0.563885 6.08769 3.29867 
4.91047 -0.801933 4.09378 4.55985 -1.49043 4.17818 4.12711 -2.23028 4.22305 
3.61315 -3.00279 4.23014 3.03285 -3.77757 4.20352 2.41173 -4.51517 4.13133 
1.77762 -5.18157 3.98765 1.15857 -5.75732 3.758 0.579867 -6.23528 3.45536 
5.85572 0.214423 3.78878 6.55753 0.648183 3.54065 7.26854 1.11582 3.22962 
7.95096 1.61524 2.85441 8.55591 2.14319 2.42615 9.0367 2.68003 1.96498 
9.36221 3.20046 1.47683 9.52734 3.68981 0.94687 9.5543 4.13269 0.369654 
5.86526 -0.560276 3.89661 6.57623 -0.985475 3.7529 7.3039 -1.45858 3.49853 
8.02225 -1.97769 3.101 8.67958 -2.51748 2.57542 9.21984 -3.04329 1.97438 
9.62034 -3.54111 1.34118 9.87522 -4.00156 0.692021 9.96499 -4.38671 0.0485292 
0.263247 6.94766 -2.55894 0.233545 7.47485 -2.07795 0.189903 7.9356 -1.45612 
0.134481 8.25817 -0.746293 0.0837363 8.38861 0.00220802 0.0565917 8.30477 0.764347 
0.0523536 8.02103 1.50436 0.0549615 7.59215 2.16336 0.0536595 7.09448 2.6993 
1.15506 6.6386 -2.94227 2.10576 6.79912 -2.916 3.13165 6.86123 -2.77435 
4.22136 6.80344 -2.52928 5.33852 6.63369 -2.22786 6.41775 6.37443 -1.89367 
7.39374 6.02962 -1.51083 8.23132 5.58933 -1.07835 8.92367 5.06604 -0.635667 
-0.616727 6.47027 -2.61768 -1.62757 6.46986 -2.31127 -2.7377 6.42059 -2.00727 
-3.91754 6.34819 -1.74049 -5.12203 6.27351 -1.52732 -6.30257 6.16625 -1.3546 
-7.41436 5.95089 -1.18002 -8.40778 5.58207 -0.965017 -9.2342 5.08822 -0.705387 
0.904064 6.62174 2.85968 1.84566 6.60524 2.56476 2.86592 6.5302 2.229 
3.94389 6.38612 1.86151 5.04044 6.17088 1.48459 6.10968 5.89482 1.12257 
7.11304 5.57821 0.781843 8.02087 5.23937 0.45025 8.81229 4.88248 0.114203 
-0.813093 6.82951 3.09023 -1.77803 7.0132 2.99811 -2.83345 7.09205 2.81804 
-3.95836 7.01927 2.53334 -5.12444 6.7801 2.13459 -6.27998 6.40929 1.64316 
-7.35955 5.96847 1.10809 -8.32333 5.50263 0.571794 -9.16244 5.02522 0.0566786 
-0.0963752 -6.96461 -2.56991 -0.0615803 -7.49005 -2.07732 -0.0211921 -7.94173 -1.42548 
0.0288569 -8.25095 -0.67438 0.0864507 -8.37144 0.0952901 0.129305 -8.29076 0.841373 
0.134082 -8.02595 1.54959 0.10713 -7.61896 2.18738 0.0754046 -7.12967 2.71245 
0.757761 -6.49223 -2.64503 1.74394 -6.4896 -2.3312 2.83523 -6.41808 -1.98904 
4.00102 -6.30688 -1.67702 5.18022 -6.20076 -1.45312 6.32512 -6.09635 -1.31555 
7.4142 -5.92192 -1.1981 8.4079 -5.61099 -1.03518 9.24244 -5.16798 -0.809919 
-0.98925 -6.64462 -2.93761 -1.94472 -6.79751 -2.88876 -2.97596 -6.85581 -2.74185 
-4.05791 -6.793 -2.50285 -5.16256 -6.6059 -2.18979 -6.24783 -6.31775 -1.82032 
-7.25508 -5.9515 -1.4091 -8.13875 -5.51281 -0.975001 -8.8841 -5.01009 -0.54652 
0.929482 -6.87714 3.11331 1.91461 -7.07616 3.04177 3.00092 -7.16581 2.86178 
4.15442 -7.11202 2.56253 5.32913 -6.91191 2.15082 6.46925 -6.59019 1.64092 
7.51504 -6.1808 1.06647 8.43211 -5.70992 0.481376 9.21888 -5.19407 -0.0649712 
-0.80111 -6.63105 2.84991 -1.75622 -6.59238 2.55077 -2.80661 -6.50799 2.22919 
-3.91653 -6.37753 1.89048 -5.03153 -6.18479 1.53353 -6.11441 -5.91978 1.17029 
-7.13857 -5.60132 0.822673 -8.06278 -5.25398 0.4958 -8.84972 -4.8799 0.174411 
10.1583 3.84738 -0.209835 10.8292 3.06456 -0.207663 11.4406 2.16147 -0.227566 
11.9124 1.15589 -0.282582 12.1499 0.0753505 -0.385497 12.0945 -1.03183 -0.517291 
11.7619 -2.09847 -0.623321 11.2259 -3.06881 -0.660384 10.5739 -3.91961 -0.626524 
-10.6034 3.83236 -0.514636 -11.2972 3.01454 -0.571072 -11.874 2.08068 -0.560512 
-12.2334 1.05216 -0.475583 -12.2924 -0.0164651 -0.352887 -12.0368 -1.06808 -0.2453 
-11.534 -2.07003 -0.177275 -10.8895 -2.9942 -0.145018 -10.1921 -3.80276 -0.139928 
-4.13264 0.403267 -3.79457 -3.64857 1.09007 -3.69643 -3.03166 0.45781 -3.82801 
-3.08249 1.81867 -3.5852 -2.47974 1.17297 -3.751 -1.85088 0.511212 -3.85318 
-2.43869 2.57358 -3.47155 -1.85057 1.92676 -3.66488 -1.23226 1.25162 -3.79833 
-0.615388 0.577499 -3.85458 -1.73471 3.34159 -3.36757 -1.16088 2.70151 -3.57728 
-0.553361 2.02626 -3.73517 0.055941 1.33445 -3.82123 0.636438 0.665955 -3.85108 
-1.01243 4.09886 -3.28966 -0.446271 3.47999 -3.50072 0.150634 2.81164 -3.67135 
0.754604 2.11315 -3.78224 1.33321 1.41697 -3.83689 1.86572 0.748371 -3.85544 
-0.325746 4.80967 -3.24815 0.244083 4.22866 -3.44946 0.837388 3.58106 -3.6148 
1.44022 2.88671 -3.73906 2.02434 2.17445 -3.81377 2.56165 1.47272 -3.84454 
3.03782 0.797263 -3.84268 0.29078 5.44809 -3.22393 0.868823 4.91031 -3.42249 
1.46747 4.29637 -3.57083 2.0769 3.62316 -3.68762 2.67427 2.91404 -3.77346 
3.2265 2.19564 -3.81637 3.71082 1.49132 -3.81899 4.12069 0.819249 -3.79342 
-5.86339 0.793068 -3.67772 -6.619 1.30263 -3.54874 -5.42026 1.50705 -3.54315 
-7.34866 1.86136 -3.35401 -6.13288 2.07596 -3.38404 -4.86905 2.26522 -3.37451 
-7.99762 2.43121 -3.09075 -6.80294 2.68273 -3.15929 -5.51707 2.88317 -3.17454 
-4.21767 3.0466 -3.18973 -8.55343 3.02396 -2.78854 -7.38388 3.29237 -2.87182 
-6.11415 3.51919 -2.914 -4.78894 3.69014 -2.9435 -3.48281 3.82356 -3.01273 
-9.00483 3.6701 -2.4347 -7.86343 3.93083 -2.53856 -6.62239 4.15267 -2.59699 
-5.31058 4.32816 -2.64372 -3.98117 4.46263 -2.72622 -2.70609 4.56992 -2.87047 
-9.29082 4.30543 -1.96486 -8.21805 4.59986 -2.12675 -7.02324 4.81096 -2.22073 
-5.75039 4.96124 -2.28981 -4.43942 5.08165 -2.38982 -3.15068 5.18655 -2.5549 
-1.94643 5.26818 -2.77584 -9.35922 4.799 -1.36469 -8.40254 5.18938 -1.59282 
-7.29279 5.45183 -1.75082 -6.08589 5.59908 -1.86605 -4.82684 5.69205 -1.99499 
-3.56436 5.77962 -2.18129 -2.35562 5.86 -2.42872 -1.24567 5.90656 -2.70643 
-8.45268 5.64189 -0.21138 -7.5303 6.16277 0.323116 -7.55186 6.18156 -0.471447 
-6.48297 6.64496 0.869541 -6.55708 6.72302 0.0581276 -6.49322 6.56339 -0.710864 
-5.34154 7.07225 1.38905 -5.4553 7.20148 0.580207 -5.45004 7.11074 -0.224552 
-5.33185 6.77634 -0.946174 -4.16148 7.39405 1.83461 -4.29341 7.60045 1.04812 
-4.3286 7.59033 0.232885 -4.26541 7.34213 -0.543046 -4.12079 6.89213 -1.2128 
-2.999 7.54984 2.17871 -3.12356 7.86471 1.43162 -3.17819 7.97049 0.629817 
-3.15109 7.83976 -0.168993 -3.05519 7.48471 -0.905953 -2.91161 6.97635 -1.52659 
-1.89094 7.52268 2.42856 -1.98661 7.94061 1.73536 -2.04127 8.18417 0.963377 
[...]
POINT_DATA 1002
FIELD FieldData 4
_paraPhi 1 1002 double
6.2831853072 3.1415926536 6.2831853072 3.1415926536 4.7123889804 4.7123889804 1.5707963268 1.5707963268 3.6951670125 
5.7296109483 2.5880182947 0.5535743589 6.2831853072 6.2831853072 6.2831853072 6.2831853072 3.1415926536 3.1415926536 
3.1415926536 3.1415926536 3.1415926536 6.1053039672 5.898798347 5.6768734901 5.4599499503 5.2659633393 5.1032165617 
4.9713148346 4.8656852733 4.7809517865 0.17788134 0.38438696014 0.60631181711 0.82323535693 1.0172219679 1.1799687454 
1.3118704726 1.4175000338 1.5022335207 6.1892828907 6.1070320098 6.035312792 5.9728339911 5.9183214791 5.8706119594 
5.8286879411 5.7916808611 5.7588591896 0.093902416448 0.17615329733 0.2478725152 0.31035131605 0.36486382811 0.41257334776 
0.45449736604 0.4915044461 0.52432611754 3.3194739936 3.5259796137 3.7479044707 3.9648280105 4.1588146215 4.321561399 
4.4534631262 4.5590926874 4.6438261743 2.9637113136 2.7572056934 2.5352808365 2.3183572967 2.1243706857 1.9616239082 
1.829722181 1.7240926197 1.6393591329 3.23549507 3.3177459509 3.3894651688 3.4519439696 3.5064564817 3.5541660013 
3.5960900196 3.6330970997 3.6659187711 3.0476902371 2.9654393563 2.8937201384 2.8312413375 2.7767288255 2.7290193058 
2.6870952876 2.6500882075 2.617266536 6.2831853072 6.2831853072 6.2831853072 6.2831853072 3.1415926536 3.1415926536 
3.1415926536 3.1415926536 3.1415926536 6.1053039672 5.898798347 5.6768734901 5.4599499503 5.2659633393 5.1032165617 
4.9713148346 4.8656852733 4.7809517865 0.17788134 0.38438696014 0.60631181711 0.82323535693 1.0172219679 1.1799687454 
1.3118704726 1.4175000338 1.5022335207 6.1892828907 6.1070320098 6.035312792 5.9728339911 5.9183214791 5.8706119594 
5.8286879411 5.7916808611 5.7588591896 0.093902416448 0.17615329733 0.2478725152 0.31035131605 0.36486382811 0.41257334776 
0.45449736604 0.4915044461 0.52432611754 3.3194739936 3.5259796137 3.7479044707 3.9648280105 4.1588146215 4.321561399 
4.4534631262 4.5590926874 4.6438261743 2.9637113136 2.7572056934 2.5352808365 2.3183572967 2.1243706857 1.9616239082 
1.829722181 1.7240926197 1.6393591329 3.23549507 3.3177459509 3.3894651688 3.4519439696 3.5064564817 3.5541660013 
3.5960900196 3.6330970997 3.6659187711 3.0476902371 2.9654393563 2.8937201384 2.8312413375 2.7767288255 2.7290193058 
2.6870952876 2.6500882075 2.617266536 4.7123889804 4.7123889804 4.7123889804 4.7123889804 4.7123889804 4.7123889804 
4.7123889804 4.7123889804 4.7123889804 4.6087898617 4.4991390697 4.3857031936 4.2712800401 4.1588146215 4.0509635631 
3.94975894 3.8564636551 3.7716124825 4.8159880991 4.9256388911 5.0390747672 5.1534979207 5.2659633393 5.3738143976 
5.4750190208 5.5683143056 5.6531654782 4.6087898617 4.4991390697 4.3857031936 4.2712800401 4.1588146215 4.0509635631 
3.94975894 3.8564636551 3.7716124825 4.8159880991 4.9256388911 5.0390747672 5.1534979207 5.2659633393 5.3738143976 
5.4750190208 5.5683143056 5.6531654782 1.5707963268 1.5707963268 1.5707963268 1.5707963268 1.5707963268 1.5707963268 
1.5707963268 1.5707963268 1.5707963268 1.6743954455 1.7840462375 1.8974821136 2.0119052671 2.1243706857 2.232221744 
2.3334263672 2.426721652 2.5115728246 1.4671972081 1.3575464161 1.24411054 1.1296873865 1.0172219679 0.90937090954 
0.80816628637 0.71487100155 0.63001982895 1.6743954455 1.7840462375 1.8974821136 2.0119052671 2.1243706857 2.232221744 
2.3334263672 2.426721652 2.5115728246 1.4671972081 1.3575464161 1.24411054 1.1296873865 1.0172219679 0.90937090954 
0.80816628637 0.71487100155 0.63001982895 3.6007720849 3.4966939854 3.3839471039 3.2645756454 3.1415926536 3.0186096618 
2.8992382033 2.7864913217 2.6824132222 5.8240058758 5.9280839753 6.0408308569 6.1602023154 6.2831853072 0.12298299178 
0.2423544503 0.35510133185 0.45917943135 6.0560271438 5.7885595667 5.9702140275 5.5125918794 5.6029703303 5.7885595667 
5.2659633393 5.2659633393 5.2659633393 5.2659633393 5.0674903122 5.0120975802 4.9155579264 4.7123889804 4.1588146215 
4.9155579264 4.8353719722 4.7123889804 4.5092200343 4.1588146215 3.6362183941 4.8004512023 4.7123889804 4.5894059886 
4.4126803806 4.1588146215 3.8218076305 3.4545639333 4.7123889804 4.6243267584 4.5092200343 4.3572876485 4.1588146215 
3.9121860814 3.6362183941 3.368750817 6.0174235957 5.9434319871 5.8263323547 5.8809213739 5.7674481418 5.6279784266 
5.8278025282 5.718968232 5.5891129425 5.4372443565 5.7823484065 5.678536687 5.5575666702 5.4192596322 5.2659633393 
5.743164462 5.6444075337 5.5314983644 5.4046708639 5.2659633393 5.1195510325 5.7091357773 5.6152775188 5.5096229709 
5.3926039573 5.2659633393 5.1329233157 4.9978930058 5.6793730533 5.5901633916 5.4910209005 5.3824597928 5.2659633393 
5.1440684722 5.0201624502 4.8979782167 5.5683143056 5.4750190208 5.4750190208 5.3738143976 5.3738143976 5.3738143976 
5.2659633393 5.2659633393 5.2659633393 5.2659633393 5.1534979207 5.1534979207 5.1534979207 5.1534979207 5.1534979207 
5.0390747672 5.0390747672 5.0390747672 5.0390747672 5.0390747672 5.0390747672 4.9256388911 4.9256388911 4.9256388911 
4.9256388911 4.9256388911 4.9256388911 4.9256388911 4.8159880991 4.8159880991 4.8159880991 4.8159880991 4.8159880991 
4.8159880991 4.8159880991 4.8159880991 4.6087898617 4.6087898617 4.4991390697 4.6087898617 4.4991390697 4.3857031936 
4.6087898617 4.4991390697 4.3857031936 4.2712800401 4.6087898617 4.4991390697 4.3857031936 4.2712800401 4.1588146215 
4.6087898617 4.4991390697 4.3857031936 4.2712800401 4.1588146215 4.0509635631 4.6087898617 4.4991390697 4.3857031936 
4.2712800401 4.1588146215 4.0509635631 3.94975894 4.6087898617 4.4991390697 4.3857031936 4.2712800401 4.1588146215 
4.0509635631 3.94975894 3.8564636551 4.526799744 4.4046155105 4.426884955 4.2807094886 4.2918546451 4.3052269283 
4.1588146215 4.1588146215 4.1588146215 4.1588146215 4.042318168 4.0321740035 4.0201070968 4.0055183285 3.9875336042 
3.9337570603 3.9151549899 3.8932795963 3.8672112905 3.8356650183 3.7967995342 3.8346145692 3.809500442 3.7803704271 
3.7462412737 3.7058097288 3.657329819 3.5984456061 3.7454049075 3.7156421835 3.6816134988 3.6424295543 3.5969754326 
3.5438565869 3.4813459737 3.4073543651 3.5642842451 3.4524645613 3.5233842518 3.3320300872 3.403123212 3.4773852225 
3.20576226 3.2746326772 3.348015857 3.4255060145 3.0774230472 3.1415926536 3.2112816139 3.2864685043 3.3668817272 
2.95115522 3.00855263 3.0719036933 3.1415926536 3.2178377658 3.3005964304 2.8307207459 2.8800620952 2.9351694502 
2.9967168029 3.0653475414 3.1415926536 3.225752376 2.718901062 2.7598010554 2.8058000847 2.8576792927 2.91630358 
2.9825888767 3.0574329311 3.1415926536 3.5642842451 3.5233842518 3.4524645613 3.4773852225 3.403123212 3.3320300872 
3.4255060145 3.348015857 3.2746326772 3.20576226 3.3668817272 3.2864685043 3.2112816139 3.1415926536 3.0774230472 
3.3005964304 3.2178377658 3.1415926536 3.0719036933 3.00855263 2.95115522 3.225752376 3.1415926536 3.0653475414 
2.9967168029 2.9351694502 2.8800620952 2.8307207459 3.1415926536 3.0574329311 2.9825888767 2.91630358 2.8576792927 
2.8058000847 2.7598010554 2.718901062 4.526799744 4.426884955 4.4046155105 4.3052269283 4.2918546451 4.2807094886 
4.1588146215 4.1588146215 4.1588146215 4.1588146215 3.9875336042 4.0055183285 4.0201070968 4.0321740035 4.042318168 
3.7967995342 3.8356650183 3.8672112905 3.8932795963 3.9151549899 3.9337570603 3.5984456061 3.657329819 3.7058097288 
3.7462412737 3.7803704271 3.809500442 3.8346145692 3.4073543651 3.4813459737 3.5438565869 3.5969754326 3.6424295543 
3.6816134988 3.7156421835 3.7454049075 4.7123889804 4.8004512023 4.6243267584 4.9155579264 4.7123889804 4.5092200343 
5.0674903122 4.8353719722 4.5894059886 4.3572876485 5.2659633393 5.0120975802 4.7123889804 4.4126803806 4.1588146215 
5.5125918794 5.2659633393 4.9155579264 4.5092200343 4.1588146215 3.9121860814 5.7885595667 5.6029703303 5.2659633393 
4.7123889804 4.1588146215 3.8218076305 3.6362183941 6.0560271438 5.9702140275 5.7885595667 5.2659633393 4.1588146215 
3.6362183941 3.4545639333 3.368750817 0.22715816343 0.49462574053 0.3129712797 0.77059342779 0.68021497688 0.49462574053 
1.0172219679 1.0172219679 1.0172219679 1.0172219679 1.2156949949 1.271087727 1.3676273807 1.5707963268 2.1243706857 
1.3676273807 1.447813335 1.5707963268 1.7739652728 2.1243706857 2.6469669131 1.4827341049 1.5707963268 1.6937793186 
1.8705049266 2.1243706857 2.4613776767 2.8286213739 1.5707963268 1.6588585487 1.7739652728 1.9258976586 2.1243706857 
2.3709992258 2.6469669131 2.9144344902 1.7563855631 1.8785697967 1.8563003522 2.0024758186 1.9913306621 1.9779583789 
2.1243706857 2.1243706857 2.1243706857 2.1243706857 2.2408671392 2.2510113037 2.2630782103 2.2776669786 2.295651703 
2.3494282469 2.3680303173 2.3899057108 2.4159740166 2.4475202889 2.486385773 2.448570738 2.4736848652 2.5028148801 
2.5369440334 2.5773755784 2.6258554882 2.6847397011 2.5377803997 2.5675431237 2.6015718084 2.6407557529 2.6862098746 
2.7393287203 2.8018393335 2.8758309421 1.6743954455 1.6743954455 1.7840462375 1.6743954455 1.7840462375 1.8974821136 
1.6743954455 1.7840462375 1.8974821136 2.0119052671 1.6743954455 1.7840462375 1.8974821136 2.0119052671 2.1243706857 
1.6743954455 1.7840462375 1.8974821136 2.0119052671 2.1243706857 2.232221744 1.6743954455 1.7840462375 1.8974821136 
2.0119052671 2.1243706857 2.232221744 2.3334263672 1.6743954455 1.7840462375 1.8974821136 2.0119052671 2.1243706857 
2.232221744 2.3334263672 2.426721652 1.4671972081 1.3575464161 1.4671972081 1.24411054 1.3575464161 1.4671972081 
1.1296873865 1.24411054 1.3575464161 1.4671972081 1.0172219679 1.1296873865 1.24411054 1.3575464161 1.4671972081 
0.90937090954 1.0172219679 1.1296873865 1.24411054 1.3575464161 1.4671972081 0.80816628637 0.90937090954 1.0172219679 
1.1296873865 1.24411054 1.3575464161 1.4671972081 0.71487100155 0.80816628637 0.90937090954 1.0172219679 1.1296873865 
1.24411054 1.3575464161 1.4671972081 0.60381225391 0.57404952988 0.69302191562 0.54002084522 0.66790778838 0.79216440667 
0.50083690068 0.63877777351 0.77356233629 0.90072551443 0.45538277901 0.60464862014 0.75168694275 0.89058134991 1.0172219679 
0.40226393329 0.56421707518 0.72561863695 0.87851444325 1.0172219679 1.139116835 0.33975332011 0.51573716537 0.69407236469 
0.86392567495 1.0172219679 1.1502619915 1.2630228569 0.26576171152 0.45685295248 0.6552068806 0.84594095064 1.0172219679 
1.1636342747 1.2852923014 1.3852070904 0.22715816343 0.3129712797 0.49462574053 0.49462574053 0.68021497688 0.77059342779 
1.0172219679 1.0172219679 1.0172219679 1.0172219679 2.1243706857 1.5707963268 1.3676273807 1.271087727 1.2156949949 
2.6469669131 2.1243706857 1.7739652728 1.5707963268 1.447813335 1.3676273807 2.8286213739 2.4613776767 2.1243706857 
1.8705049266 1.6937793186 1.5707963268 1.4827341049 2.9144344902 2.6469669131 2.3709992258 2.1243706857 1.9258976586 
1.7739652728 1.6588585487 1.5707963268 1.7563855631 1.8563003522 1.8785697967 1.9779583789 1.9913306621 2.0024758186 
2.1243706857 2.1243706857 2.1243706857 2.1243706857 2.295651703 2.2776669786 2.2630782103 2.2510113037 2.2408671392 
2.486385773 2.4475202889 2.4159740166 2.3899057108 2.3680303173 2.3494282469 2.6847397011 2.6258554882 2.5773755784 
2.5369440334 2.5028148801 2.4736848652 2.448570738 2.8758309421 2.8018393335 2.7393287203 2.6862098746 2.6407557529 
2.6015718084 2.5675431237 2.5377803997 5.8604937156 5.901393709 5.9723133995 5.9473927383 6.0216547488 6.0927478736 
5.9992719463 6.0767621038 6.1501452836 6.2190157008 6.0578962336 6.1383094565 6.2134963469 0 0.064169606361 
6.1241815303 6.206940195 6.2831853072 0.069688960264 0.13304002361 0.19043743361 6.1990255847 0 0.07624511221 
0.14487585072 0.20642320337 0.26153055843 0.3108719077 0 0.084159722458 0.15900377685 0.22528907359 0.28391336087 
0.3357925689 0.38179159818 0.42269159155 5.8604937156 5.9723133995 5.901393709 6.0927478736 6.0216547488 5.9473927383 
6.2190157008 6.1501452836 6.0767621038 5.9992719463 0.064169606361 0 6.2134963469 6.1383094565 6.0578962336 
0.19043743361 0.13304002361 0.069688960264 6.2831853072 6.206940195 6.1241815303 0.3108719077 0.26153055843 0.20642320337 
0.14487585072 0.07624511221 6.2831853072 6.1990255847 0.42269159155 0.38179159818 0.3357925689 0.28391336087 0.22528907359 
0.15900377685 0.084159722458 0 5.6793730533 5.7091357773 5.5901633916 5.743164462 5.6152775188 5.4910209005 
5.7823484065 5.6444075337 5.5096229709 5.3824597928 5.8278025282 5.678536687 5.5314983644 5.3926039573 5.2659633393 
5.8809213739 5.718968232 5.5575666702 5.4046708639 5.2659633393 5.1440684722 5.9434319871 5.7674481418 5.5891129425 
5.4192596322 5.2659633393 5.1329233157 5.0201624502 6.0174235957 5.8263323547 5.6279784266 5.4372443565 5.2659633393 
5.1195510325 4.9978930058 4.8979782167 1.3852070904 1.2852923014 1.2630228569 1.1636342747 1.1502619915 1.139116835 
1.0172219679 1.0172219679 1.0172219679 1.0172219679 0.84594095064 0.86392567495 0.87851444325 0.89058134991 0.90072551443 
0.6552068806 0.69407236469 0.72561863695 0.75168694275 0.77356233629 0.79216440667 0.45685295248 0.51573716537 0.56421707518 
0.60464862014 0.63877777351 0.66790778838 0.69302191562 0.26576171152 0.33975332011 0.40226393329 0.45538277901 0.50083690068 
0.54002084522 0.57404952988 0.60381225391 
_paraPhiHalf 1 1002 double
0 3.1415926536 0 3.1415926536 1.5707963268 1.5707963268 1.5707963268 1.5707963268 2.5880182947 
0.5535743589 2.5880182947 0.5535743589 0 0 0 0 3.1415926536 3.1415926536 
3.1415926536 3.1415926536 3.1415926536 0.17788134 0.38438696014 0.60631181711 0.82323535693 1.0172219679 1.1799687454 
1.3118704726 1.4175000338 1.5022335207 0.17788134 0.38438696014 0.60631181711 0.82323535693 1.0172219679 1.1799687454 
1.3118704726 1.4175000338 1.5022335207 0.093902416448 0.17615329733 0.2478725152 0.31035131605 0.36486382811 0.41257334776 
0.45449736604 0.4915044461 0.52432611754 0.093902416448 0.17615329733 0.2478725152 0.31035131605 0.36486382811 0.41257334776 
0.45449736604 0.4915044461 0.52432611754 2.9637113136 2.7572056934 2.5352808365 2.3183572967 2.1243706857 1.9616239082 
1.829722181 1.7240926197 1.6393591329 2.9637113136 2.7572056934 2.5352808365 2.3183572967 2.1243706857 1.9616239082 
1.829722181 1.7240926197 1.6393591329 3.0476902371 2.9654393563 2.8937201384 2.8312413375 2.7767288255 2.7290193058 
2.6870952876 2.6500882075 2.617266536 3.0476902371 2.9654393563 2.8937201384 2.8312413375 2.7767288255 2.7290193058 
2.6870952876 2.6500882075 2.617266536 0 0 0 0 3.1415926536 3.1415926536 
3.1415926536 3.1415926536 3.1415926536 0.17788134 0.38438696014 0.60631181711 0.82323535693 1.0172219679 1.1799687454 
1.3118704726 1.4175000338 1.5022335207 0.17788134 0.38438696014 0.60631181711 0.82323535693 1.0172219679 1.1799687454 
1.3118704726 1.4175000338 1.5022335207 0.093902416448 0.17615329733 0.2478725152 0.31035131605 0.36486382811 0.41257334776 
0.45449736604 0.4915044461 0.52432611754 0.093902416448 0.17615329733 0.2478725152 0.31035131605 0.36486382811 0.41257334776 
0.45449736604 0.4915044461 0.52432611754 2.9637113136 2.7572056934 2.5352808365 2.3183572967 2.1243706857 1.9616239082 
1.829722181 1.7240926197 1.6393591329 2.9637113136 2.7572056934 2.5352808365 2.3183572967 2.1243706857 1.9616239082 
1.829722181 1.7240926197 1.6393591329 3.0476902371 2.9654393563 2.8937201384 2.8312413375 2.7767288255 2.7290193058 
2.6870952876 2.6500882075 2.617266536 3.0476902371 2.9654393563 2.8937201384 2.8312413375 2.7767288255 2.7290193058 
2.6870952876 2.6500882075 2.617266536 1.5707963268 1.5707963268 1.5707963268 1.5707963268 1.5707963268 1.5707963268 
1.5707963268 1.5707963268 1.5707963268 1.6743954455 1.7840462375 1.8974821136 2.0119052671 2.1243706857 2.232221744 
2.3334263672 2.426721652 2.5115728246 1.4671972081 1.3575464161 1.24411054 1.1296873865 1.0172219679 0.90937090954 
0.80816628637 0.71487100155 0.63001982895 1.6743954455 1.7840462375 1.8974821136 2.0119052671 2.1243706857 2.232221744 
2.3334263672 2.426721652 2.5115728246 1.4671972081 1.3575464161 1.24411054 1.1296873865 1.0172219679 0.90937090954 
0.80816628637 0.71487100155 0.63001982895 1.5707963268 1.5707963268 1.5707963268 1.5707963268 1.5707963268 1.5707963268 
1.5707963268 1.5707963268 1.5707963268 1.6743954455 1.7840462375 1.8974821136 2.0119052671 2.1243706857 2.232221744 
2.3334263672 2.426721652 2.5115728246 1.4671972081 1.3575464161 1.24411054 1.1296873865 1.0172219679 0.90937090954 
0.80816628637 0.71487100155 0.63001982895 1.6743954455 1.7840462375 1.8974821136 2.0119052671 2.1243706857 2.232221744 
2.3334263672 2.426721652 2.5115728246 1.4671972081 1.3575464161 1.24411054 1.1296873865 1.0172219679 0.90937090954 
0.80816628637 0.71487100155 0.63001982895 2.6824132222 2.7864913217 2.8992382033 3.0186096618 3.1415926536 3.0186096618 
2.8992382033 2.7864913217 2.6824132222 0.45917943135 0.35510133185 0.2423544503 0.12298299178 0 0.12298299178 
0.2423544503 0.35510133185 0.45917943135 0.22715816343 0.49462574053 0.3129712797 0.77059342779 0.68021497688 0.49462574053 
1.0172219679 1.0172219679 1.0172219679 1.0172219679 1.2156949949 1.271087727 1.3676273807 1.5707963268 2.1243706857 
1.3676273807 1.447813335 1.5707963268 1.7739652728 2.1243706857 2.6469669131 1.4827341049 1.5707963268 1.6937793186 
1.8705049266 2.1243706857 2.4613776767 2.8286213739 1.5707963268 1.6588585487 1.7739652728 1.9258976586 2.1243706857 
2.3709992258 2.6469669131 2.9144344902 0.26576171152 0.33975332011 0.45685295248 0.40226393329 0.51573716537 0.6552068806 
0.45538277901 0.56421707518 0.69407236469 0.84594095064 0.50083690068 0.60464862014 0.72561863695 0.86392567495 1.0172219679 
0.54002084522 0.63877777351 0.75168694275 0.87851444325 1.0172219679 1.1636342747 0.57404952988 0.66790778838 0.77356233629 
0.89058134991 1.0172219679 1.1502619915 1.2852923014 0.60381225391 0.69302191562 0.79216440667 0.90072551443 1.0172219679 
1.139116835 1.2630228569 1.3852070904 0.71487100155 0.80816628637 0.80816628637 0.90937090954 0.90937090954 0.90937090954 
1.0172219679 1.0172219679 1.0172219679 1.0172219679 1.1296873865 1.1296873865 1.1296873865 1.1296873865 1.1296873865 
1.24411054 1.24411054 1.24411054 1.24411054 1.24411054 1.24411054 1.3575464161 1.3575464161 1.3575464161 
1.3575464161 1.3575464161 1.3575464161 1.3575464161 1.4671972081 1.4671972081 1.4671972081 1.4671972081 1.4671972081 
1.4671972081 1.4671972081 1.4671972081 1.6743954455 1.6743954455 1.7840462375 1.6743954455 1.7840462375 1.8974821136 
1.6743954455 1.7840462375 1.8974821136 2.0119052671 1.6743954455 1.7840462375 1.8974821136 2.0119052671 2.1243706857 
1.6743954455 1.7840462375 1.8974821136 2.0119052671 2.1243706857 2.232221744 1.6743954455 1.7840462375 1.8974821136 
2.0119052671 2.1243706857 2.232221744 2.3334263672 1.6743954455 1.7840462375 1.8974821136 2.0119052671 2.1243706857 
2.232221744 2.3334263672 2.426721652 1.7563855631 1.8785697967 1.8563003522 2.0024758186 1.9913306621 1.9779583789 
2.1243706857 2.1243706857 2.1243706857 2.1243706857 2.2408671392 2.2510113037 2.2630782103 2.2776669786 2.295651703 
2.3494282469 2.3680303173 2.3899057108 2.4159740166 2.4475202889 2.486385773 2.448570738 2.4736848652 2.5028148801 
2.5369440334 2.5773755784 2.6258554882 2.6847397011 2.5377803997 2.5675431237 2.6015718084 2.6407557529 2.6862098746 
2.7393287203 2.8018393335 2.8758309421 2.718901062 2.8307207459 2.7598010554 2.95115522 2.8800620952 2.8058000847 
3.0774230472 3.00855263 2.9351694502 2.8576792927 3.0774230472 3.1415926536 3.0719036933 2.9967168029 2.91630358 
2.95115522 3.00855263 3.0719036933 3.1415926536 3.0653475414 2.9825888767 2.8307207459 2.8800620952 2.9351694502 
2.9967168029 3.0653475414 3.1415926536 3.0574329311 2.718901062 2.7598010554 2.8058000847 2.8576792927 2.91630358 
2.9825888767 3.0574329311 3.1415926536 2.718901062 2.7598010554 2.8307207459 2.8058000847 2.8800620952 2.95115522 
2.8576792927 2.9351694502 3.00855263 3.0774230472 2.91630358 2.9967168029 3.0719036933 3.1415926536 3.0774230472 
2.9825888767 3.0653475414 3.1415926536 3.0719036933 3.00855263 2.95115522 3.0574329311 3.1415926536 3.0653475414 