# vtk DataFile Version 5.1
vtk output
ASCII
DATASET POLYDATA
POINTS 1002 float
-5.42695 -0.300783 -3.59195 5.18851 0.265089 -4.58159 -5.6403 0.429013 3.73911 
6.01023 -0.424944 3.50437 0.102804 6.60763 -3.42031 -0.764215 5.70406 2.43518 
0.325728 -6.74731 -3.61704 0.182429 -5.8963 2.42513 9.76594 4.27056 0.427981 
-8.74438 4.30059 1.23247 9.94518 -4.32761 0.455674 -11.098 -4.50447 0.989561 
-4.47044 -0.269638 -3.76692 -3.43161 -0.23549 -4.07724 -2.31665 -0.181389 -4.49044 
-1.13851 -0.0973196 -4.90504 0.0584965 -0.00684488 -5.25387 1.21912 0.05877 -5.51869 
2.32048 0.106582 -5.62391 3.3601 0.160471 -5.46787 4.32294 0.219089 -5.07306 
-5.04657 0.301675 -3.57334 -4.58639 0.965358 -3.60473 -4.05396 1.70931 -3.70887 
-3.46121 2.52587 -3.88379 -2.83921 3.35677 -4.08441 -2.23115 4.14582 -4.23761 
-1.64977 4.88436 -4.27036 -1.07024 5.56511 -4.13305 -0.478539 6.14937 -3.82907 
-5.14898 -0.895678 -3.70646 -4.75489 -1.56382 -3.83956 -4.24244 -2.29181 -4.00197 
-3.62547 -3.06124 -4.19131 -2.93198 -3.84498 -4.36788 -2.20252 -4.59861 -4.45881 
-1.48233 -5.27914 -4.41475 -0.808657 -5.86863 -4.24256 -0.203742 -6.36153 -3.97027 
-6.14063 0.0348505 -3.44734 -6.84934 0.393233 -3.25614 -7.5073 0.784366 -2.95062 
-8.06393 1.21388 -2.4996 -8.45405 1.65301 -1.93457 -8.63339 2.07588 -1.3076 
-8.65428 2.52922 -0.649207 -8.64341 3.08064 0.0167769 -8.67986 3.70657 0.654809 
-6.24022 -0.70013 -3.57213 -7.11595 -1.13899 -3.57916 -8.01497 -1.60252 -3.50722 
-8.89457 -2.08594 -3.23487 -9.70117 -2.57984 -2.7154 -10.3626 -3.04086 -2.00371 
-10.8267 -3.43743 -1.19617 -11.0925 -3.80169 -0.381184 -11.1791 -4.16782 0.366004 
4.88214 0.915387 -4.78043 4.51398 1.60385 -5.00205 4.09006 2.32602 -5.2075 
3.61515 3.08579 -5.30583 3.09387 3.86247 -5.2225 2.52822 4.60582 -4.97879 
1.91857 5.26924 -4.65033 1.28337 5.82606 -4.27541 0.665146 6.26823 -3.85907 
4.93749 -0.420804 -4.71794 4.63676 -1.14986 -4.84162 4.26718 -1.88202 -4.85203 
3.79759 -2.63352 -4.71042 3.21982 -3.4358 -4.49343 2.58072 -4.24386 -4.29788 
1.95045 -4.98066 -4.1438 1.36614 -5.63594 -4.00007 0.827519 -6.23057 -3.83288 
5.86223 0.694154 -4.21612 6.57843 1.12261 -3.8968 7.28745 1.5528 -3.56283 
7.92567 2.00289 -3.06456 8.46442 2.45514 -2.38714 8.93182 2.87102 -1.73155 
9.34894 3.26087 -1.23019 9.66668 3.65142 -0.7703 9.81139 4.00961 -0.210007 
5.87565 -0.125181 -4.12575 6.57267 -0.56076 -3.61213 7.25845 -1.02613 -3.05905 
7.93436 -1.52012 -2.46821 8.5982 -2.06446 -1.86398 9.20118 -2.65432 -1.3264 
9.66107 -3.224 -0.906203 9.92583 -3.70098 -0.53343 10.0051 -4.06318 -0.0919057 
-4.72088 0.366959 3.83667 -3.69693 0.253031 3.84861 -2.57481 0.130049 3.70412 
-1.36777 0.0254483 3.44077 -0.0907597 -0.0870477 3.20892 1.2393 -0.227697 3.10274 
2.57661 -0.356381 3.08962 3.84665 -0.427821 3.14105 4.99485 -0.44281 3.28134 
-5.37123 0.998148 3.84549 -5.04136 1.60403 3.95674 -4.63152 2.25502 4.01517 
-4.14586 2.92225 3.94671 -3.61725 3.54648 3.74427 -3.07417 4.09972 3.48656 
-2.51819 4.59345 3.23623 -1.94238 5.02935 2.98355 -1.35204 5.3972 2.71041 
-5.30865 -0.181084 3.68077 -4.89687 -0.858292 3.54471 -4.41499 -1.56131 3.32421 
-3.85096 -2.24087 3.04269 -3.16507 -2.90293 2.74367 -2.3627 -3.58031 2.47812 
-1.54884 -4.25117 2.30848 -0.844847 -4.86628 2.27685 -0.282492 -5.41315 2.34794 
-6.36081 0.812518 3.64749 -7.06099 1.22655 3.48834 -7.70114 1.69213 3.30842 
-8.28111 2.21417 3.1785 -8.8188 2.77597 3.11596 -9.26592 3.3553 3.023 
-9.4977 3.89002 2.76634 -9.43762 4.25994 2.31983 -9.14314 4.38358 1.77387 
-6.37084 0.0501016 3.6212 -7.17846 -0.434867 3.5303 -8.01052 -0.983371 3.42531 
-8.80987 -1.55345 3.25385 -9.58795 -2.17769 3.03781 -10.3646 -2.89328 2.82799 
-11.0265 -3.5994 2.57913 -11.3864 -4.12236 2.18783 -11.3788 -4.4002 1.63207 
5.62359 0.126341 3.26877 5.1302 0.723975 3.06504 4.51832 1.378 2.90639 
3.79321 2.06836 2.76486 2.99622 2.74938 2.61467 2.18411 3.40719 2.48563 
1.38902 4.05772 2.42728 0.620294 4.68264 2.4352 -0.10645 5.23674 2.45463 
5.71931 -1.00909 3.58261 5.33603 -1.65075 3.62437 4.8453 -2.32347 3.61789 
4.25068 -3.00667 3.57805 3.57854 -3.67353 3.50712 2.86352 -4.26961 3.37012 
2.13745 -4.75773 3.15318 1.43165 -5.16644 2.90113 0.774523 -5.54348 2.65894 
6.78407 -0.043449 3.60494 7.60328 0.392486 3.6835 8.41773 0.886243 3.68599 
9.1456 1.41975 3.57601 9.71632 1.96059 3.3643 10.1026 2.50414 3.05488 
10.2933 3.05749 2.59245 10.2773 3.577 1.94078 10.0789 3.99044 1.174 
6.82721 -0.757764 3.84228 7.66708 -1.14455 4.1894 8.49745 -1.5944 4.40801 
9.28345 -2.10284 4.39241 9.97121 -2.65417 4.12361 10.459 -3.20552 3.60532 
10.6474 -3.67988 2.8469 10.5461 -4.01747 1.95399 10.2729 -4.2205 1.11304 
0.120248 7.02277 -2.82971 0.111733 7.40348 -2.16915 0.0528218 7.72633 -1.48763 
-0.064275 7.92392 -0.78998 -0.225877 7.89166 -0.0541534 -0.40872 7.59321 0.686375 
-0.581686 7.12656 1.34026 -0.707455 6.62641 1.84376 -0.765096 6.15297 2.19716 
1.0591 6.80097 -3.22589 2.11624 6.95393 -2.99434 3.22404 7.0613 -2.75477 
4.35871 7.08683 -2.48036 5.49052 6.9551 -2.11009 6.54085 6.60932 -1.63629 
7.45639 6.07924 -1.11528 8.27357 5.46268 -0.59196 9.04442 4.84727 -0.0754361 
-0.794378 6.63785 -3.21636 -1.71881 6.61332 -2.93084 -2.6793 6.50301 -2.54329 
-3.70442 6.27126 -2.03699 -4.76552 5.9185 -1.41046 -5.76225 5.5119 -0.715763 
-6.62957 5.14199 -0.0576221 -7.39386 4.84331 0.483805 -8.09888 4.58044 0.9027 
0.26216 5.73651 2.20121 1.40103 5.79673 1.99193 2.61635 5.8608 1.81913 
3.87461 5.89165 1.66626 5.12429 5.87302 1.52305 6.29457 5.79287 1.39802 
7.3502 5.60567 1.26474 8.29637 5.26908 1.06006 9.11674 4.80216 0.764487 
-1.7717 5.98131 2.54674 -2.81423 6.31213 2.64162 -3.8369 6.66003 2.70778 
-4.80207 6.91509 2.71617 -5.70356 6.96018 2.62952 -6.54669 6.76022 2.44218 
-7.30737 6.34545 2.18707 -7.93142 5.75403 1.89617 -8.39544 5.04283 1.57823 
0.319434 -7.22269 -3.14613 0.285941 -7.60789 -2.50322 0.231271 -7.82379 -1.72773 
0.17625 -7.86758 -0.925848 0.134343 -7.80536 -0.169229 0.0999077 -7.65813 0.563441 
0.0723327 -7.37087 1.27242 0.0714118 -6.92795 1.85978 0.112074 -6.40556 2.23829 
1.15837 -6.7346 -3.31739 2.08703 -6.59984 -2.88091 3.11753 -6.35522 -2.31776 
4.21762 -6.05528 -1.69402 5.34011 -5.75604 -1.11456 6.44903 -5.47513 -0.656084 
7.49991 -5.20459 -0.323773 8.43945 -4.93397 -0.0683827 9.24798 -4.64747 0.175329 
-0.521563 -6.96481 -3.56279 -1.50031 -7.0499 -3.37576 -2.61862 -6.95654 -3.03093 
-3.86465 -6.696 -2.56175 -5.21887 -6.33185 -2.02712 -6.63088 -5.93723 -1.44943 
-7.99538 -5.56102 -0.826193 -9.21236 -5.21358 -0.180504 -10.2469 -4.87145 0.439604 
1.00974 -6.11105 2.62086 1.96041 -6.24802 2.78482 3.03611 -6.29035 2.86996 
4.17442 -6.24168 2.84398 5.31109 -6.10055 2.68573 6.43497 -5.8575 2.37813 
7.52975 -5.52757 1.93295 8.52176 -5.14997 1.41223 9.33447 -4.74953 0.899449 
-0.699659 -5.92097 2.14659 -1.72466 -5.86724 1.8412 -2.90856 -5.76426 1.53981 
-4.19883 -5.70133 1.33199 -5.53117 -5.72981 1.28276 -6.88819 -5.77586 1.33631 
-8.22285 -5.70487 1.37257 -9.41388 -5.44565 1.32642 -10.3707 -5.02154 1.19522 
10.5402 3.55409 0.523909 11.2992 2.76364 0.602534 11.9959 1.90524 0.642375 
12.5541 0.981742 0.634485 12.8175 -0.00909701 0.589876 12.6495 -1.05659 0.526348 
12.1104 -2.09839 0.460982 11.403 -3.02834 0.416849 10.6699 -3.7712 0.414811 
-9.35483 3.61985 1.1552 -10.0737 2.85587 1.00853 -10.9454 2.00496 0.838095 
-11.9506 1.05304 0.731005 -12.8936 0.0177608 0.762193 -13.4316 -1.04635 0.916793 
-13.3541 -2.08309 1.0872 -12.7737 -3.03755 1.16653 -11.9593 -3.85373 1.12354 
-4.0475 0.371152 -3.83157 -3.5493 1.09081 -3.9682 -2.96277 0.449854 -4.23236 
-2.97987 1.90335 -4.18053 -2.42488 1.23114 -4.46087 -1.79818 0.557987 -4.7106 
-2.36063 2.76694 -4.42469 -1.82774 2.09573 -4.73821 -1.22636 1.38975 -4.99064 
-0.579167 0.686658 -5.15656 -1.73774 3.60069 -4.61448 -1.20267 2.96611 -4.97319 
-0.61971 2.26348 -5.26712 0.00873577 1.53166 -5.43779 0.636717 0.788694 -5.49938 
-1.13885 4.37191 -4.67219 -0.581332 3.77467 -5.05781 0.00316952 3.09955 -5.40617 
0.613948 2.37252 -5.63654 1.2277 1.61329 -5.70344 1.80211 0.843017 -5.67392 
-0.544129 5.09146 -4.55748 0.0396635 4.52527 -4.95043 0.641512 3.8743 -5.32065 
1.24296 3.1614 -5.61838 1.83646 2.40967 -5.74775 2.39754 1.63854 -5.70578 
2.90588 0.875946 -5.59127 0.0651096 5.73787 -4.2705 0.670044 5.22248 -4.6737 
1.29215 4.60462 -5.04269 1.89472 3.90501 -5.36813 2.46863 3.15496 -5.57042 
3.00823 2.38894 -5.57725 3.50077 1.63325 -5.43543 3.93984 0.903758 -5.25053 
-5.71215 0.679621 -3.37528 -6.36063 1.07951 -3.11334 -5.19446 1.3933 -3.34491 
-6.94495 1.51424 -2.72083 -5.78154 1.84412 -3.00274 -4.60542 2.19188 -3.39331 
-7.40757 1.97735 -2.18877 -6.30098 2.33041 -2.53571 -5.1412 2.69599 -2.99146 
-3.96299 3.05061 -3.5291 -7.6982 2.42518 -1.57687 -6.6989 2.8308 -1.97009 
-5.61489 3.2321 -2.49697 -4.45335 3.59457 -3.09981 -3.29825 3.90535 -3.70376 
-7.83116 2.85688 -0.942016 -6.95661 3.29664 -1.36493 -5.98536 3.76294 -1.9429 
-4.88728 4.16245 -2.60324 -3.73791 4.47505 -3.25197 -2.64927 4.71567 -3.82407 
-7.89936 3.35265 -0.304251 -7.12027 3.74868 -0.744591 -6.2563 4.23456 -1.34536 
-5.24337 4.69483 -2.04272 -4.12576 5.04795 -2.72342 -3.03327 5.29693 -3.31861 
-2.02481 5.46664 -3.79576 -7.98718 3.95321 0.319308 -7.25732 4.26369 -0.119018 
-6.46237 4.67297 -0.705413 -5.53193 5.13326 -1.40559 -4.46557 5.54358 -2.10699 
-3.37738 5.84012 -2.71765 -2.36152 6.02435 -3.20985 -1.40713 6.12099 -3.57898 
-7.69249 5.3704 1.18626 -7.15071 6.10948 1.44143 -6.90227 5.63269 0.684974 
-6.45269 6.71576 1.6804 -6.25925 6.36068 0.874429 -6.02358 5.90181 0.065578 
-5.64995 7.1349 1.90231 -5.48676 6.97192 1.0724 -5.27519 6.6123 0.21704 
-5.03431 6.24592 -0.6307 -4.79158 7.29722 2.07996 -4.65179 7.39117 1.27891 
-4.44394 7.22422 0.412265 -4.20851 6.93968 -0.464815 -3.95522 6.62667 -1.30275 
-3.86963 7.16319 2.18634 -3.76709 7.50208 1.47059 -3.56968 7.60943 0.641397 
-3.3341 7.50597 -0.223764 -3.09154 7.26138 -1.07281 -2.86647 6.92065 -1.85935 
-2.86583 6.82796 2.22763 -2.79952 7.29891 1.62862 -2.62859 7.65078 0.882774 
[...]
POINT_DATA 1002
FIELD FieldData 4
_paraPhi 1 1002 double
6.2831853072 3.1415926536 6.2831853072 3.1415926536 4.7123889804 4.7123889804 1.5707963268 1.5707963268 3.6951670125 
5.7296109483 2.5880182947 0.5535743589 6.2831853072 6.2831853072 6.2831853072 6.2831853072 3.1415926536 3.1415926536 
3.1415926536 3.1415926536 3.1415926536 6.1053039672 5.898798347 5.6768734901 5.4599499503 5.2659633393 5.1032165617 
4.9713148346 4.8656852733 4.7809517865 0.17788134 0.38438696014 0.60631181711 0.82323535693 1.0172219679 1.1799687454 
1.3118704726 1.4175000338 1.5022335207 6.1892828907 6.1070320098 6.035312792 5.9728339911 5.9183214791 5.8706119594 
5.8286879411 5.7916808611 5.7588591896 0.093902416448 0.17615329733 0.2478725152 0.31035131605 0.36486382811 0.41257334776 
0.45449736604 0.4915044461 0.52432611754 3.3194739936 3.5259796137 3.7479044707 3.9648280105 4.1588146215 4.321561399 
4.4534631262 4.5590926874 4.6438261743 2.9637113136 2.7572056934 2.5352808365 2.3183572967 2.1243706857 1.9616239082 
1.829722181 1.7240926197 1.6393591329 3.23549507 3.3177459509 3.3894651688 3.4519439696 3.5064564817 3.5541660013 
3.5960900196 3.6330970997 3.6659187711 3.0476902371 2.9654393563 2.8937201384 2.8312413375 2.7767288255 2.7290193058 
2.6870952876 2.6500882075 2.617266536 6.2831853072 6.2831853072 6.2831853072 6.2831853072 3.1415926536 3.1415926536 
3.1415926536 3.1415926536 3.1415926536 6.1053039672 5.898798347 5.6768734901 5.4599499503 5.2659633393 5.1032165617 
4.9713148346 4.8656852733 4.7809517865 0.17788134 0.38438696014 0.60631181711 0.82323535693 1.0172219679 1.1799687454 
1.3118704726 1.4175000338 1.5022335207 6.1892828907 6.1070320098 6.035312792 5.9728339911 5.9183214791 5.8706119594 
5.8286879411 5.7916808611 5.7588591896 0.093902416448 0.17615329733 0.2478725152 0.31035131605 0.36486382811 0.41257334776 
0.45449736604 0.4915044461 0.52432611754 3.3194739936 3.5259796137 3.7479044707 3.9648280105 4.1588146215 4.321561399 
4.4534631262 4.5590926874 4.6438261743 2.9637113136 2.7572056934 2.5352808365 2.3183572967 2.1243706857 1.9616239082 
1.829722181 1.7240926197 1.6393591329 3.23549507 3.3177459509 3.3894651688 3.4519439696 3.5064564817 3.5541660013 
3.5960900196 3.6330970997 3.6659187711 3.0476902371 2.9654393563 2.8937201384 2.8312413375 2.7767288255 2.7290193058 
2.6870952876 2.6500882075 2.617266536 4.7123889804 4.7123889804 4.7123889804 4.7123889804 4.7123889804 4.7123889804 
4.7123889804 4.7123889804 4.7123889804 4.6087898617 4.4991390697 4.3857031936 4.2712800401 4.1588146215 4.0509635631 
3.94975894 3.8564636551 3.7716124825 4.8159880991 4.9256388911 5.0390747672 5.1534979207 5.2659633393 5.3738143976 
5.4750190208 5.5683143056 5.6531654782 4.6087898617 4.4991390697 4.3857031936 4.2712800401 4.1588146215 4.0509635631 
3.94975894 3.8564636551 3.7716124825 4.8159880991 4.9256388911 5.0390747672 5.1534979207 5.2659633393 5.3738143976 
5.4750190208 5.5683143056 5.6531654782 1.5707963268 1.5707963268 1.5707963268 1.5707963268 1.5707963268 1.5707963268 
1.5707963268 1.5707963268 1.5707963268 1.6743954455 1.7840462375 1.8974821136 2.0119052671 2.1243706857 2.232221744 
2.3334263672 2.426721652 2.5115728246 1.4671972081 1.3575464161 1.24411054 1.1296873865 1.0172219679 0.90937090954 
0.80816628637 0.71487100155 0.63001982895 1.6743954455 1.7840462375 1.8974821136 2.0119052671 2.1243706857 2.232221744 
2.3334263672 2.426721652 2.5115728246 1.4671972081 1.3575464161 1.24411054 1.1296873865 1.0172219679 0.90937090954 
0.80816628637 0.71487100155 0.63001982895 3.6007720849 3.4966939854 3.3839471039 3.2645756454 3.1415926536 3.0186096618 
2.8992382033 2.7864913217 2.6824132222 5.8240058758 5.9280839753 6.0408308569 6.1602023154 6.2831853072 0.12298299178 
0.2423544503 0.35510133185 0.45917943135 6.0560271438 5.7885595667 5.9702140275 5.5125918794 5.6029703303 5.7885595667 
5.2659633393 5.2659633393 5.2659633393 5.2659633393 5.0674903122 5.0120975802 4.9155579264 4.7123889804 4.1588146215 
4.9155579264 4.8353719722 4.7123889804 4.5092200343 4.1588146215 3.6362183941 4.8004512023 4.7123889804 4.5894059886 
4.4126803806 4.1588146215 3.8218076305 3.4545639333 4.7123889804 4.6243267584 4.5092200343 4.3572876485 4.1588146215 
3.9121860814 3.6362183941 3.368750817 6.0174235957 5.9434319871 5.8263323547 5.8809213739 5.7674481418 5.6279784266 
5.8278025282 5.718968232 5.5891129425 5.4372443565 5.7823484065 5.678536687 5.5575666702 5.4192596322 5.2659633393 
5.743164462 5.6444075337 5.5314983644 5.4046708639 5.2659633393 5.1195510325 5.7091357773 5.6152775188 5.5096229709 
5.3926039573 5.2659633393 5.1329233157 4.9978930058 5.6793730533 5.5901633916 5.4910209005 5.3824597928 5.2659633393 
5.1440684722 5.0201624502 4.8979782167 5.5683143056 5.4750190208 5.4750190208 5.3738143976 5.3738143976 5.3738143976 
5.2659633393 5.2659633393 5.2659633393 5.2659633393 5.1534979207 5.1534979207 5.1534979207 5.1534979207 5.1534979207 
5.0390747672 5.0390747672 5.0390747672 5.0390747672 5.0390747672 5.0390747672 4.9256388911 4.9256388911 4.9256388911 
4.9256388911 4.9256388911 4.9256388911 4.9256388911 4.8159880991 4.8159880991 4.8159880991 4.8159880991 4.8159880991 
4.8159880991 4.8159880991 4.8159880991 4.6087898617 4.6087898617 4.4991390697 4.6087898617 4.4991390697 4.3857031936 
4.6087898617 4.4991390697 4.3857031936 4.2712800401 4.6087898617 4.4991390697 4.3857031936 4.2712800401 4.1588146215 
4.6087898617 4.4991390697 4.3857031936 4.2712800401 4.1588146215 4.0509635631 4.6087898617 4.4991390697 4.3857031936 
4.2712800401 4.1588146215 4.0509635631 3.94975894 4.6087898617 4.4991390697 4.3857031936 4.2712800401 4.1588146215 
4.0509635631 3.94975894 3.8564636551 4.526799744 4.4046155105 4.426884955 4.2807094886 4.2918546451 4.3052269283 
4.1588146215 4.1588146215 4.1588146215 4.1588146215 4.042318168 4.0321740035 4.0201070968 4.0055183285 3.9875336042 
3.9337570603 3.9151549899 3.8932795963 3.8672112905 3.8356650183 3.7967995342 3.8346145692 3.809500442 3.7803704271 
3.7462412737 3.7058097288 3.657329819 3.5984456061 3.7454049075 3.7156421835 3.6816134988 3.6424295543 3.5969754326 
3.5438565869 3.4813459737 3.4073543651 3.5642842451 3.4524645613 3.5233842518 3.3320300872 3.403123212 3.4773852225 
3.20576226 3.2746326772 3.348015857 3.4255060145 3.0774230472 3.1415926536 3.2112816139 3.2864685043 3.3668817272 
2.95115522 3.00855263 3.0719036933 3.1415926536 3.2178377658 3.3005964304 2.8307207459 2.8800620952 2.9351694502 
2.9967168029 3.0653475414 3.1415926536 3.225752376 2.718901062 2.7598010554 2.8058000847 2.8576792927 2.91630358 
2.9825888767 3.0574329311 3.1415926536 3.5642842451 3.5233842518 3.4524645613 3.4773852225 3.403123212 3.3320300872 
3.4255060145 3.348015857 3.2746326772 3.20576226 3.3668817272 3.2864685043 3.2112816139 3.1415926536 3.0774230472 
3.3005964304 3.2178377658 3.1415926536 3.0719036933 3.00855263 2.95115522 3.225752376 3.1415926536 3.0653475414 
2.9967168029 2.9351694502 2.8800620952 2.8307207459 3.1415926536 3.0574329311 2.9825888767 2.91630358 2.8576792927 
2.8058000847 2.7598010554 2.718901062 4.526799744 4.426884955 4.4046155105 4.3052269283 4.2918546451 4.2807094886 
4.1588146215 4.1588146215 4.1588146215 4.1588146215 3.9875336042 4.0055183285 4.0201070968 4.0321740035 4.042318168 
3.7967995342 3.8356650183 3.8672112905 3.8932795963 3.9151549899 3.9337570603 3.5984456061 3.657329819 3.7058097288 
3.7462412737 3.7803704271 3.809500442 3.8346145692 3.4073543651 3.4813459737 3.5438565869 3.5969754326 3.6424295543 
3.6816134988 3.7156421835 3.7454049075 4.7123889804 4.8004512023 4.6243267584 4.9155579264 4.7123889804 4.5092200343 
5.0674903122 4.8353719722 4.5894059886 4.3572876485 5.2659633393 5.0120975802 4.7123889804 4.4126803806 4.1588146215 
5.5125918794 5.2659633393 4.9155579264 4.5092200343 4.1588146215 3.9121860814 5.7885595667 5.6029703303 5.2659633393 
4.7123889804 4.1588146215 3.8218076305 3.6362183941 6.0560271438 5.9702140275 5.7885595667 5.2659633393 4.1588146215 
3.6362183941 3.4545639333 3.368750817 0.22715816343 0.49462574053 0.3129712797 0.77059342779 0.68021497688 0.49462574053 
1.0172219679 1.0172219679 1.0172219679 1.0172219679 1.2156949949 1.271087727 1.3676273807 1.5707963268 2.1243706857 
1.3676273807 1.447813335 1.5707963268 1.7739652728 2.1243706857 2.6469669131 1.4827341049 1.5707963268 1.6937793186 
1.8705049266 2.1243706857 2.4613776767 2.8286213739 1.5707963268 1.6588585487 1.7739652728 1.9258976586 2.1243706857 
2.3709992258 2.6469669131 2.9144344902 1.7563855631 1.8785697967 1.8563003522 2.0024758186 1.9913306621 1.9779583789 
2.1243706857 2.1243706857 2.1243706857 2.1243706857 2.2408671392 2.2510113037 2.2630782103 2.2776669786 2.295651703 
2.3494282469 2.3680303173 2.3899057108 2.4159740166 2.4475202889 2.486385773 2.448570738 2.4736848652 2.5028148801 
2.5369440334 2.5773755784 2.6258554882 2.6847397011 2.5377803997 2.5675431237 2.6015718084 2.6407557529 2.6862098746 
2.7393287203 2.8018393335 2.8758309421 1.6743954455 1.6743954455 1.7840462375 1.6743954455 1.7840462375 1.8974821136 
1.6743954455 1.7840462375 1.8974821136 2.0119052671 1.6743954455 1.7840462375 1.8974821136 2.0119052671 2.1243706857 
1.6743954455 1.7840462375 1.8974821136 2.0119052671 2.1243706857 2.232221744 1.6743954455 1.7840462375 1.8974821136 
2.0119052671 2.1243706857 2.232221744 2.3334263672 1.6743954455 1.7840462375 1.8974821136 2.0119052671 2.1243706857 
2.232221744 2.3334263672 2.426721652 1.4671972081 1.3575464161 1.4671972081 1.24411054 1.3575464161 1.4671972081 
1.1296873865 1.24411054 1.3575464161 1.4671972081 1.0172219679 1.1296873865 1.24411054 1.3575464161 1.4671972081 
0.90937090954 1.0172219679 1.1296873865 1.24411054 1.3575464161 1.4671972081 0.80816628637 0.90937090954 1.0172219679 
1.1296873865 1.24411054 1.3575464161 1.4671972081 0.71487100155 0.80816628637 0.90937090954 1.0172219679 1.1296873865 
1.24411054 1.3575464161 1.4671972081 0.60381225391 0.57404952988 0.69302191562 0.54002084522 0.66790778838 0.79216440667 
0.50083690068 0.63877777351 0.77356233629 0.90072551443 0.45538277901 0.60464862014 0.75168694275 0.89058134991 1.0172219679 
0.40226393329 0.56421707518 0.72561863695 0.87851444325 1.0172219679 1.139116835 0.33975332011 0.51573716537 0.69407236469 
0.86392567495 1.0172219679 1.1502619915 1.2630228569 0.26576171152 0.45685295248 0.6552068806 0.84594095064 1.0172219679 
1.1636342747 1.2852923014 1.3852070904 0.22715816343 0.3129712797 0.49462574053 0.49462574053 0.68021497688 0.77059342779 
1.0172219679 1.0172219679 1.0172219679 1.0172219679 2.1243706857 1.5707963268 1.3676273807 1.271087727 1.2156949949 
2.6469669131 2.1243706857 1.7739652728 1.5707963268 1.447813335 1.3676273807 2.8286213739 2.4613776767 2.1243706857 
1.8705049266 1.6937793186 1.5707963268 1.4827341049 2.9144344902 2.6469669131 2.3709992258 2.1243706857 1.9258976586 
1.7739652728 1.6588585487 1.5707963268 1.7563855631 1.8563003522 1.8785697967 1.9779583789 1.9913306621 2.0024758186 
2.1243706857 2.1243706857 2.1243706857 2.1243706857 2.295651703 2.2776669786 2.2630782103 2.2510113037 2.2408671392 
2.486385773 2.4475202889 2.4159740166 2.3899057108 2.3680303173 2.3494282469 2.6847397011 2.6258554882 2.5773755784 
2.5369440334 2.5028148801 2.4736848652 2.448570738 2.8758309421 2.8018393335 2.7393287203 2.6862098746 2.6407557529 
2.6015718084 2.5675431237 2.5377803997 5.8604937156 5.901393709 5.9723133995 5.9473927383 6.0216547488 6.0927478736 
5.9992719463 6.0767621038 6.1501452836 6.2190157008 6.0578962336 6.1383094565 6.2134963469 0 0.064169606361 
6.1241815303 6.206940195 6.2831853072 0.069688960264 0.13304002361 0.19043743361 6.1990255847 0 0.07624511221 
0.14487585072 0.20642320337 0.26153055843 0.3108719077 0 0.084159722458 0.15900377685 0.22528907359 0.28391336087 
0.3357925689 0.38179159818 0.42269159155 5.8604937156 5.9723133995 5.901393709 6.0927478736 6.0216547488 5.9473927383 
6.2190157008 6.1501452836 6.0767621038 5.9992719463 0.064169606361 0 6.2134963469 6.1383094565 6.0578962336 
0.19043743361 0.13304002361 0.069688960264 6.2831853072 6.206940195 6.1241815303 0.3108719077 0.26153055843 0.20642320337 
0.14487585072 0.07624511221 6.2831853072 6.1990255847 0.42269159155 0.38179159818 0.3357925689 0.28391336087 0.22528907359 
0.15900377685 0.084159722458 0 5.6793730533 5.7091357773 5.5901633916 5.743164462 5.6152775188 5.4910209005 
5.7823484065 5.6444075337 5.5096229709 5.3824597928 5.8278025282 5.678536687 5.5314983644 5.3926039573 5.2659633393 
5.8809213739 5.718968232 5.5575666702 5.4046708639 5.2659633393 5.1440684722 5.9434319871 5.7674481418 5.5891129425 
5.4192596322 5.2659633393 5.1329233157 5.0201624502 6.0174235957 5.8263323547 5.6279784266 5.4372443565 5.2659633393 
5.1195510325 4.9978930058 4.8979782167 1.3852070904 1.2852923014 1.2630228569 1.1636342747 1.1502619915 1.139116835 
1.0172219679 1.0172219679 1.0172219679 1.0172219679 0.84594095064 0.86392567495 0.87851444325 0.89058134991 0.90072551443 
0.6552068806 0.69407236469 0.72561863695 0.75168694275 0.77356233629 0.79216440667 0.45685295248 0.51573716537 0.56421707518 
0.60464862014 0.63877777351 0.66790778838 0.69302191562 0.26576171152 0.33975332011 0.40226393329 0.45538277901 0.50083690068 
0.54002084522 0.57404952988 0.60381225391 
_paraPhiHalf 1 1002 double
0 3.1415926536 0 3.1415926536 1.5707963268 1.5707963268 1.5707963268 1.5707963268 2.5880182947 
0.5535743589 2.5880182947 0.5535743589 0 0 0 0 3.1415926536 3.1415926536 
3.1415926536 3.1415926536 3.1415926536 0.17788134 0.38438696014 0.60631181711 0.82323535693 1.0172219679 1.1799687454 
1.3118704726 1.4175000338 1.5022335207 0.17788134 0.38438696014 0.60631181711 0.82323535693 1.0172219679 1.1799687454 
1.3118704726 1.4175000338 1.5022335207 0.093902416448 0.17615329733 0.2478725152 0.31035131605 0.36486382811 0.41257334776 
0.45449736604 0.4915044461 0.52432611754 0.093902416448 0.17615329733 0.2478725152 0.31035131605 0.36486382811 0.41257334776 
0.45449736604 0.4915044461 0.52432611754 2.9637113136 2.7572056934 2.5352808365 2.3183572967 2.1243706857 1.9616239082 
1.829722181 1.7240926197 1.6393591329 2.9637113136 2.7572056934 2.5352808365 2.3183572967 2.1243706857 1.9616239082 
1.829722181 1.7240926197 1.6393591329 3.0476902371 2.9654393563 2.8937201384 2.8312413375 2.7767288255 2.7290193058 
2.6870952876 2.6500882075 2.617266536 3.0476902371 2.9654393563 2.8937201384 2.8312413375 2.7767288255 2.7290193058 
2.6870952876 2.6500882075 2.617266536 0 0 0 0 3.1415926536 3.1415926536 
3.1415926536 3.1415926536 3.1415926536 0.17788134 0.38438696014 0.60631181711 0.82323535693 1.0172219679 1.1799687454 
1.3118704726 1.4175000338 1.5022335207 0.17788134 0.38438696014 0.60631181711 0.82323535693 1.0172219679 1.1799687454 
1.3118704726 1.4175000338 1.5022335207 0.093902416448 0.17615329733 0.2478725152 0.31035131605 0.36486382811 0.41257334776 
0.45449736604 0.4915044461 0.52432611754 0.093902416448 0.17615329733 0.2478725152 0.31035131605 0.36486382811 0.41257334776 
0.45449736604 0.4915044461 0.52432611754 2.9637113136 2.7572056934 2.5352808365 2.3183572967 2.1243706857 1.9616239082 
1.829722181 1.7240926197 1.6393591329 2.9637113136 2.7572056934 2.5352808365 2.3183572967 2.1243706857 1.9616239082 
1.829722181 1.7240926197 1.6393591329 3.0476902371 2.9654393563 2.8937201384 2.8312413375 2.7767288255 2.7290193058 
2.6870952876 2.6500882075 2.617266536 3.0476902371 2.9654393563 2.8937201384 2.8312413375 2.7767288255 2.7290193058 
2.6870952876 2.6500882075 2.617266536 1.5707963268 1.5707963268 1.5707963268 1.5707963268 1.5707963268 1.5707963268 
1.5707963268 1.5707963268 1.5707963268 1.6743954455 1.7840462375 1.8974821136 2.0119052671 2.1243706857 2.232221744 
2.3334263672 2.426721652 2.5115728246 1.4671972081 1.3575464161 1.24411054 1.1296873865 1.0172219679 0.90937090954 
0.80816628637 0.71487100155 0.63001982895 1.6743954455 1.7840462375 1.8974821136 2.0119052671 2.1243706857 2.232221744 
2.3334263672 2.426721652 2.5115728246 1.4671972081 1.3575464161 1.24411054 1.1296873865 1.0172219679 0.90937090954 
0.80816628637 0.71487100155 0.63001982895 1.5707963268 1.5707963268 1.5707963268 1.5707963268 1.5707963268 1.5707963268 
1.5707963268 1.5707963268 1.5707963268 1.6743954455 1.7840462375 1.8974821136 2.0119052671 2.1243706857 2.232221744 
2.3334263672 2.426721652 2.5115728246 1.4671972081 1.3575464161 1.24411054 1.1296873865 1.0172219679 0.90937090954 
0.80816628637 0.71487100155 0.63001982895 1.6743954455 1.7840462375 1.8974821136 2.0119052671 2.1243706857 2.232221744 
2.3334263672 2.426721652 2.5115728246 1.4671972081 1.3575464161 1.24411054 1.1296873865 1.0172219679 0.90937090954 
0.80816628637 0.71487100155 0.63001982895 2.6824132222 2.7864913217 2.8992382033 3.0186096618 3.1415926536 3.0186096618 
2.8992382033 2.7864913217 2.6824132222 0.45917943135 0.35510133185 0.2423544503 0.12298299178 0 0.12298299178 
0.2423544503 0.35510133185 0.45917943135 0.22715816343 0.49462574053 0.3129712797 0.77059342779 0.68021497688 0.49462574053 
1.0172219679 1.0172219679 1.0172219679 1.0172219679 1.2156949949 1.271087727 1.3676273807 1.5707963268 2.1243706857 
1.3676273807 1.447813335 1.5707963268 1.7739652728 2.1243706857 2.6469669131 1.4827341049 1.5707963268 1.6937793186 
1.8705049266 2.1243706857 2.4613776767 2.8286213739 1.5707963268 1.6588585487 1.7739652728 1.9258976586 2.1243706857 
2.3709992258 2.6469669131 2.9144344902 0.26576171152 0.33975332011 0.45685295248 0.40226393329 0.51573716537 0.6552068806 
0.45538277901 0.56421707518 0.69407236469 0.84594095064 0.50083690068 0.60464862014 0.72561863695 0.86392567495 1.0172219679 
0.54002084522 0.63877777351 0.75168694275 0.87851444325 1.0172219679 1.1636342747 0.57404952988 0.66790778838 0.77356233629 
0.89058134991 1.0172219679 1.1502619915 1.2852923014 0.60381225391 0.69302191562 0.79216440667 0.90072551443 1.0172219679 
1.139116835 1.2630228569 1.3852070904 0.71487100155 0.80816628637 0.80816628637 0.90937090954 0.90937090954 0.90937090954 
1.0172219679 1.0172219679 1.0172219679 1.0172219679 1.1296873865 1.1296873865 1.1296873865 1.1296873865 1.1296873865 
1.24411054 1.24411054 1.24411054 1.24411054 1.24411054 1.24411054 1.3575464161 1.3575464161 1.3575464161 
1.3575464161 1.3575464161 1.3575464161 1.3575464161 1.4671972081 1.4671972081 1.4671972081 1.4671972081 1.4671972081 
1.4671972081 1.4671972081 1.4671972081 1.6743954455 1.6743954455 1.7840462375 1.6743954455 1.7840462375 1.8974821136 
1.6743954455 1.7840462375 1.8974821136 2.0119052671 1.6743954455 1.7840462375 1.8974821136 2.0119052671 2.1243706857 
1.6743954455 1.7840462375 1.8974821136 2.0119052671 2.1243706857 2.232221744 1.6743954455 1.7840462375 1.8974821136 
2.0119052671 2.1243706857 2.232221744 2.3334263672 1.6743954455 1.7840462375 1.8974821136 2.0119052671 2.1243706857 
2.232221744 2.3334263672 2.426721652 1.7563855631 1.8785697967 1.8563003522 2.0024758186 1.9913306621 1.9779583789 
2.1243706857 2.1243706857 2.1243706857 2.1243706857 2.2408671392 2.2510113037 2.2630782103 2.2776669786 2.295651703 
2.3494282469 2.3680303173 2.3899057108 2.4159740166 2.4475202889 2.486385773 2.448570738 2.4736848652 2.5028148801 
2.5369440334 2.5773755784 2.6258554882 2.6847397011 2.5377803997 2.5675431237 2.6015718084 2.6407557529 2.6862098746 
2.7393287203 2.8018393335 2.8758309421 2.718901062 2.8307207459 2.7598010554 2.95115522 2.8800620952 2.8058000847 
3.0774230472 3.00855263 2.9351694502 2.8576792927 3.0774230472 3.1415926536 3.0719036933 2.9967168029 2.91630358 
2.95115522 3.00855263 3.0719036933 3.1415926536 3.0653475414 2.9825888767 2.8307207459 2.8800620952 2.9351694502 
2.9967168029 3.0653475414 3.1415926536 3.0574329311 2.718901062 2.7598010554 2.8058000847 2.8576792927 2.91630358 
2.9825888767 3.0574329311 3.1415926536 2.718901062 2.7598010554 2.8307207459 2.8058000847 2.8800620952 2.95115522 
2.8576792927 2.9351694502 3.00855263 3.0774230472 2.91630358 2.9967168029 3.0719036933 3.1415926536 3.0774230472 
2.9825888767 3.0653475414 3.1415926536 3.0719036933 3.00855263 2.95115522 3.0574329311 3.1415926536 3.0653475414 