# vtk DataFile Version 5.1
vtk output
ASCII
DATASET POLYDATA
POINTS 1002 float
-6.00408 -0.171196 -5.38363 5.53317 0.408949 -3.19336 -5.57894 0.469769 5.70592 
4.67282 0.0261307 3.4229 0.323918 6.29231 -2.59122 0.469829 7.39147 3.70579 
-0.459446 -6.53319 -2.90425 0.2765 -7.71769 3.61953 10.5913 4.32532 0.0478599 
-11.1251 4.18165 -1.34347 10.0726 -3.88166 -0.672607 -7.87801 -4.06806 -0.0986146 
-5.08409 -0.0829354 -4.85528 -4.05429 -0.0120005 -4.45738 -2.9717 -0.0560818 -4.42257 
-1.80688 -0.192039 -4.60122 -0.504242 -0.25045 -4.61886 0.860766 -0.12865 -4.34665 
2.14763 0.0700202 -3.96517 3.33117 0.215874 -3.64252 4.46043 0.311143 -3.39806 
-5.75103 0.528397 -5.19315 -5.39787 1.26294 -4.81982 -4.93424 2.00108 -4.3368 
-4.38545 2.75336 -3.90195 -3.80277 3.52197 -3.62647 -3.16719 4.2183 -3.45909 
-2.37944 4.76579 -3.26374 -1.43086 5.23669 -3.00248 -0.474615 5.74546 -2.75622 
-5.66631 -0.819489 -5.1817 -5.25701 -1.51305 -4.97741 -4.74723 -2.25755 -4.76403 
-4.15586 -3.03236 -4.53269 -3.55636 -3.8109 -4.31921 -2.98138 -4.56276 -4.1445 
-2.38112 -5.22302 -3.95114 -1.724 -5.74139 -3.67005 -1.05892 -6.15324 -3.30217 
-6.74814 0.254293 -5.773 -7.55332 0.857868 -5.92035 -8.38007 1.61097 -5.54448 
-9.16125 2.42241 -4.68519 -9.92578 3.22968 -3.82141 -10.7636 3.95035 -3.34414 
-11.5413 4.40092 -3.09482 -11.9136 4.47862 -2.70541 -11.718 4.32755 -2.07639 
-6.62171 -0.631515 -5.60443 -7.11697 -1.06128 -5.42901 -7.47915 -1.43708 -4.84632 
-7.81439 -1.85043 -4.03376 -8.17886 -2.40237 -3.14857 -8.44151 -2.99529 -2.27642 
-8.4709 -3.42335 -1.53282 -8.32061 -3.66072 -0.979677 -8.10884 -3.8471 -0.536166 
5.26648 0.909658 -3.45378 4.99225 1.36024 -3.83924 4.63854 1.82717 -4.11884 
4.06413 2.44686 -4.05095 3.23752 3.19942 -3.76148 2.35564 3.90951 -3.59602 
1.65301 4.53359 -3.55871 1.16027 5.16294 -3.37792 0.751443 5.78447 -2.99689 
5.14527 -0.195236 -3.10598 4.69981 -0.82635 -3.01015 4.1593 -1.48219 -2.99834 
3.51417 -2.20744 -3.0501 2.76924 -3.01711 -3.06647 1.95694 -3.84813 -3.08765 
1.17543 -4.6342 -3.21353 0.522808 -5.35433 -3.33575 -3.24127e-05 -5.99378 -3.24523 
6.45247 0.877886 -3.00567 7.42359 1.40174 -2.62199 8.37086 1.89735 -2.25783 
9.30703 2.35391 -2.21756 10.2711 2.87154 -2.42404 11.1107 3.46848 -2.38931 
11.5413 3.98423 -1.86073 11.4764 4.27963 -1.0999 11.0903 4.36748 -0.438367 
6.36942 0.123265 -3.04595 7.25292 -0.215825 -3.00724 8.10338 -0.60405 -2.89111 
8.84216 -1.06736 -2.62602 9.49668 -1.59668 -2.42295 10.1634 -2.12078 -2.39293 
10.7652 -2.60993 -2.26617 11.0155 -3.0915 -1.81607 10.7408 -3.54102 -1.19407 
-4.74352 0.4852 5.52279 -3.85715 0.49895 5.37967 -2.81869 0.513201 5.36255 
-1.64018 0.494564 5.38791 -0.4665 0.409053 5.2069 0.62368 0.281626 4.73516 
1.68291 0.180526 4.21088 2.74074 0.132937 3.85879 3.75163 0.0974123 3.64222 
-5.37464 1.04283 5.43823 -5.03462 1.74055 5.18285 -4.50899 2.55249 5.21167 
-3.8198 3.40869 5.53956 -3.06953 4.27021 5.79176 -2.32891 5.13413 5.60675 
-1.58325 5.93789 5.07206 -0.830669 6.58536 4.51986 -0.129763 7.05426 4.0905 
-5.16216 -0.08467 5.70078 -4.61952 -0.787355 5.39871 -3.9409 -1.70324 4.82413 
-3.19617 -2.76373 4.29315 -2.52348 -3.80309 4.02289 -1.96883 -4.74105 3.86629 
-1.42989 -5.6182 3.69228 -0.833008 -6.45122 3.60378 -0.235544 -7.17512 3.63077 
-6.38041 0.78301 5.75445 -7.25077 1.12482 5.78137 -8.04941 1.47998 5.60603 
-8.67351 1.8234 4.92244 -9.19475 2.18464 3.68676 -9.73928 2.59639 2.29674 
-10.2842 2.99794 1.13565 -10.7183 3.34228 0.21179 -10.9944 3.70845 -0.607003 
-6.2598 0.10011 5.82651 -7.08721 -0.380038 5.63091 -7.94853 -1.00499 5.05725 
-8.55603 -1.6707 4.24891 -8.69847 -2.20125 3.4319 -8.50082 -2.57475 2.69618 
-8.25601 -2.92246 1.96952 -8.0957 -3.30783 1.20735 -7.98365 -3.69523 0.487798 
4.33543 0.645127 3.62464 3.89904 1.31185 3.73925 3.44697 2.03595 3.79651 
3.01661 2.82687 3.84929 2.52566 3.65164 3.91177 1.94095 4.44854 3.96482 
1.39991 5.20924 3.98974 1.01806 5.97038 3.96821 0.743363 6.72033 3.87883 
4.35636 -0.569842 3.31296 3.96135 -1.28595 3.20072 3.56779 -2.07598 3.17607 
3.20539 -2.86573 3.26568 2.7733 -3.64774 3.36227 2.19378 -4.48228 3.36019 
1.57883 -5.37446 3.32158 1.07794 -6.24627 3.37025 0.679205 -7.03283 3.50405 
5.399 0.283375 3.27887 6.17308 0.54776 3.02182 6.99471 0.903829 2.7317 
7.84489 1.36729 2.60557 8.6789 1.86546 2.67046 9.43092 2.38811 2.61328 
10.012 2.9847 2.15768 10.3641 3.58629 1.42217 10.5266 4.04717 0.684295 
5.40086 -0.430645 3.06128 6.17984 -0.941182 2.67366 7.04591 -1.47598 2.43682 
7.94783 -1.96936 2.29266 8.66058 -2.34352 1.89685 9.02042 -2.61663 1.16193 
9.20599 -2.91947 0.465615 9.49326 -3.30812 0.0513992 9.86042 -3.67184 -0.257452 
0.414004 6.88939 -2.3051 0.40406 7.45241 -1.9776 0.423965 7.96343 -1.47152 
0.576396 8.43646 -0.746616 0.750663 8.83022 0.0881536 0.782029 9.01138 0.934442 
0.708739 8.88141 1.77855 0.647041 8.48575 2.57693 0.588789 7.95348 3.23573 
1.29251 6.53908 -2.69548 2.27884 6.59971 -2.72591 3.36406 6.35567 -2.55552 
4.64287 5.94371 -2.18613 6.08962 5.60283 -1.79412 7.49815 5.34394 -1.51597 
8.64295 5.0523 -1.28231 9.47572 4.76057 -0.953452 10.0946 4.53862 -0.490149 
-0.650221 6.35425 -2.33994 -1.86431 6.40429 -2.2674 -3.35112 6.54936 -2.44014 
-5.00135 6.83662 -2.74086 -6.5641 7.12986 -2.95651 -7.85751 7.14416 -2.91916 
-8.89089 6.70394 -2.60397 -9.74809 5.91088 -2.1511 -10.4854 5.00866 -1.72114 
1.24173 7.26071 3.40459 2.12549 7.08123 3.05373 3.11708 6.84263 2.67362 
4.15744 6.4267 2.2214 5.20834 5.77 1.64958 6.31047 5.05008 1.03831 
7.48789 4.55036 0.557162 8.65934 4.36309 0.278649 9.71198 4.34909 0.138416 
-0.217099 7.7629 3.67308 -1.05117 7.89281 3.41447 -2.09047 7.64981 2.87031 
-3.39046 7.09488 2.16421 -4.89571 6.46938 1.47078 -6.36927 5.95503 0.854087 
-7.63303 5.52091 0.293164 -8.78679 5.06836 -0.252327 -9.97632 4.59961 -0.808126 
-0.421056 -7.10992 -2.30653 -0.436312 -7.73123 -1.58211 -0.444446 -8.28801 -0.844345 
-0.371638 -8.68676 -0.119189 -0.257514 -8.95119 0.698887 -0.176633 -9.13037 1.64894 
-0.0837229 -9.1463 2.56163 0.0759745 -8.88404 3.21535 0.22925 -8.36384 3.53868 
0.391141 -6.59816 -2.7856 1.30986 -6.57958 -2.6471 2.35237 -6.39594 -2.40194 
3.50889 -6.09078 -2.06422 4.66776 -5.83635 -1.83384 5.7952 -5.67379 -1.80705 
6.98074 -5.41971 -1.76068 8.20104 -4.95676 -1.48734 9.27444 -4.39216 -1.06808 
-1.31022 -6.77071 -2.69988 -2.27174 -7.03586 -2.54185 -3.26815 -7.42103 -2.48068 
-4.21905 -7.86644 -2.38007 -5.10878 -8.07794 -2.05643 -5.92484 -7.7822 -1.55365 
-6.59678 -7.00904 -1.08818 -7.09222 -6.00158 -0.749198 -7.48574 -4.98039 -0.448534 
1.03069 -7.68521 3.33493 1.85036 -7.50765 2.72062 2.78906 -7.26548 1.94826 
3.94129 -7.0441 1.3046 5.22704 -6.84292 0.841904 6.32229 -6.55006 0.409164 
7.09614 -6.03437 -0.00456732 7.85354 -5.30226 -0.298699 8.87913 -4.52565 -0.489574 
-0.505905 -8.04086 3.65346 -1.46104 -8.24714 3.50972 -2.60498 -8.25016 3.2462 
-3.83295 -7.97722 2.88082 -4.92099 -7.48454 2.35959 -5.72234 -6.93386 1.7063 
-6.3094 -6.36621 1.06442 -6.83595 -5.68143 0.544449 -7.36463 -4.87109 0.163591 
11.3553 4.01609 0.359007 12.0944 3.40423 0.637211 12.741 2.47335 0.766261 
13.1801 1.30861 0.728455 13.3425 0.00477254 0.573292 13.2631 -1.2797 0.310865 
12.9347 -2.28289 -0.0319688 12.2536 -2.90174 -0.346119 11.229 -3.34615 -0.552359 
-12.1455 3.46047 -1.37129 -12.994 2.73915 -1.1649 -13.3485 2.00292 -0.641891 
-13.0244 1.14045 -0.0192028 -12.1899 0.145731 0.363203 -11.1973 -0.777486 0.432487 
-10.2368 -1.51549 0.348781 -9.33227 -2.23112 0.210334 -8.52544 -3.09422 0.0421308 
-4.73216 0.615734 -4.57873 -4.28963 1.31957 -4.28663 -3.64064 0.662633 -4.29801 
-3.73612 2.01271 -4.10955 -3.12397 1.32327 -4.25687 -2.47508 0.594142 -4.43624 
-3.10829 2.71267 -4.08632 -2.47701 1.96006 -4.34742 -1.85181 1.23361 -4.48974 
-1.16916 0.469094 -4.60834 -2.47644 3.40281 -4.08787 -1.77256 2.60165 -4.43354 
-1.11459 1.86376 -4.47827 -0.445137 1.12848 -4.50904 0.241493 0.440277 -4.51678 
-1.8056 4.02562 -3.94455 -1.10122 3.25947 -4.35915 -0.368599 2.54118 -4.33818 
0.322997 1.81008 -4.27802 0.98584 1.10658 -4.36048 1.60647 0.539714 -4.2918 
-0.996107 4.59401 -3.63146 -0.415675 3.91245 -4.09365 0.312351 3.26615 -4.11469 
1.07319 2.56445 -4.01657 1.76077 1.80057 -4.16712 2.35496 1.1533 -4.30121 
2.87355 0.668749 -4.07955 -0.0878703 5.17986 -3.27466 0.359661 4.55099 -3.72707 
0.971898 3.95108 -3.85114 1.75122 3.30873 -3.80425 2.54866 2.53768 -3.96895 
3.20427 1.79074 -4.24003 3.6951 1.23258 -4.19793 4.0958 0.783693 -3.81549 
-6.54809 1.03689 -5.63015 -7.41131 1.71594 -5.8142 -6.2076 1.85259 -5.1561 
-8.264 2.50157 -5.46792 -7.08853 2.56746 -5.28049 -5.73224 2.66048 -4.41616 
-9.05972 3.32425 -4.72796 -7.95044 3.3251 -5.05847 -6.60719 3.36974 -4.43363 
-5.17016 3.48617 -3.67714 -9.86397 4.17397 -4.04817 -8.76219 4.14306 -4.65324 
-7.45249 4.07678 -4.45904 -5.99665 4.18081 -3.64106 -4.52766 4.30384 -3.18974 
-10.6407 4.91469 -3.58843 -9.52691 5.05222 -4.21633 -8.2152 4.90815 -4.45668 
-6.74724 4.84432 -3.92055 -5.20277 4.95725 -3.15458 -3.71386 4.96924 -2.93436 
-11.0955 5.28263 -3.11668 -10.0647 5.79788 -3.66285 -8.81712 5.85595 -4.1512 
-7.37466 5.66319 -4.10673 -5.78134 5.56056 -3.47906 -4.16438 5.54873 -2.8587 
-2.68913 5.44021 -2.73014 -11.0034 5.23362 -2.47224 -10.1298 6.06593 -2.94067 
-9.06809 6.54579 -3.45135 -7.78767 6.55984 -3.72506 -6.26813 6.32097 -3.51812 
-4.59397 6.10771 -2.98572 -2.98059 5.97672 -2.5619 -1.59949 5.86457 -2.51346 
-9.29618 5.41083 -1.22193 -8.05622 5.82011 -0.721967 -8.53557 6.31532 -1.6921 
-6.7658 6.26192 -0.182155 -7.21661 6.73682 -1.15649 -7.6561 7.16643 -2.02835 
-5.29414 6.8181 0.471395 -5.7443 7.28254 -0.486744 -6.22572 7.68702 -1.27234 
-6.55647 7.66925 -2.09221 -3.70475 7.49953 1.24042 -4.10189 7.9761 0.303211 
-4.57075 8.33324 -0.446168 -4.98178 8.24661 -1.15265 -5.13376 7.64165 -2.01021 
-2.26453 8.12084 2.04134 -2.51577 8.62007 1.11756 -2.84275 8.96215 0.296228 
-3.21478 8.83929 -0.396484 -3.47212 8.17675 -1.16936 -3.48713 7.29325 -1.95304 
-1.10908 8.42693 2.71371 -1.21869 8.94352 1.84053 -1.3476 9.29599 0.923857 
[...]
POINT_DATA 1002
FIELD FieldData 4
_paraPhi 1 1002 double
6.2831853072 3.1415926536 6.2831853072 3.1415926536 4.7123889804 4.7123889804 1.5707963268 1.5707963268 3.6951670125 
5.7296109483 2.5880182947 0.5535743589 6.2831853072 6.2831853072 6.2831853072 6.2831853072 3.1415926536 3.1415926536 
3.1415926536 3.1415926536 3.1415926536 6.1053039672 5.898798347 5.6768734901 5.4599499503 5.2659633393 5.1032165617 
4.9713148346 4.8656852733 4.7809517865 0.17788134 0.38438696014 0.60631181711 0.82323535693 1.0172219679 1.1799687454 
1.3118704726 1.4175000338 1.5022335207 6.1892828907 6.1070320098 6.035312792 5.9728339911 5.9183214791 5.8706119594 
5.8286879411 5.7916808611 5.7588591896 0.093902416448 0.17615329733 0.2478725152 0.31035131605 0.36486382811 0.41257334776 
0.45449736604 0.4915044461 0.52432611754 3.3194739936 3.5259796137 3.7479044707 3.9648280105 4.1588146215 4.321561399 
4.4534631262 4.5590926874 4.6438261743 2.9637113136 2.7572056934 2.5352808365 2.3183572967 2.1243706857 1.9616239082 
1.829722181 1.7240926197 1.6393591329 3.23549507 3.3177459509 3.3894651688 3.4519439696 3.5064564817 3.5541660013 
3.5960900196 3.6330970997 3.6659187711 3.0476902371 2.9654393563 2.8937201384 2.8312413375 2.7767288255 2.7290193058 
2.6870952876 2.6500882075 2.617266536 6.2831853072 6.2831853072 6.2831853072 6.2831853072 3.1415926536 3.1415926536 
3.1415926536 3.1415926536 3.1415926536 6.1053039672 5.898798347 5.6768734901 5.4599499503 5.2659633393 5.1032165617 
4.9713148346 4.8656852733 4.7809517865 0.17788134 0.38438696014 0.60631181711 0.82323535693 1.0172219679 1.1799687454 
1.3118704726 1.4175000338 1.5022335207 6.1892828907 6.1070320098 6.035312792 5.9728339911 5.9183214791 5.8706119594 
5.8286879411 5.7916808611 5.7588591896 0.093902416448 0.17615329733 0.2478725152 0.31035131605 0.36486382811 0.41257334776 
0.45449736604 0.4915044461 0.52432611754 3.3194739936 3.5259796137 3.7479044707 3.9648280105 4.1588146215 4.321561399 
4.4534631262 4.5590926874 4.6438261743 2.9637113136 2.7572056934 2.5352808365 2.3183572967 2.1243706857 1.9616239082 
1.829722181 1.7240926197 1.6393591329 3.23549507 3.3177459509 3.3894651688 3.4519439696 3.5064564817 3.5541660013 
3.5960900196 3.6330970997 3.6659187711 3.0476902371 2.9654393563 2.8937201384 2.8312413375 2.7767288255 2.7290193058 
2.6870952876 2.6500882075 2.617266536 4.7123889804 4.7123889804 4.7123889804 4.7123889804 4.7123889804 4.7123889804 
4.7123889804 4.7123889804 4.7123889804 4.6087898617 4.4991390697 4.3857031936 4.2712800401 4.1588146215 4.0509635631 
3.94975894 3.8564636551 3.7716124825 4.8159880991 4.9256388911 5.0390747672 5.1534979207 5.2659633393 5.3738143976 
5.4750190208 5.5683143056 5.6531654782 4.6087898617 4.4991390697 4.3857031936 4.2712800401 4.1588146215 4.0509635631 
3.94975894 3.8564636551 3.7716124825 4.8159880991 4.9256388911 5.0390747672 5.1534979207 5.2659633393 5.3738143976 
5.4750190208 5.5683143056 5.6531654782 1.5707963268 1.5707963268 1.5707963268 1.5707963268 1.5707963268 1.5707963268 
1.5707963268 1.5707963268 1.5707963268 1.6743954455 1.7840462375 1.8974821136 2.0119052671 2.1243706857 2.232221744 
2.3334263672 2.426721652 2.5115728246 1.4671972081 1.3575464161 1.24411054 1.1296873865 1.0172219679 0.90937090954 
0.80816628637 0.71487100155 0.63001982895 1.6743954455 1.7840462375 1.8974821136 2.0119052671 2.1243706857 2.232221744 
2.3334263672 2.426721652 2.5115728246 1.4671972081 1.3575464161 1.24411054 1.1296873865 1.0172219679 0.90937090954 
0.80816628637 0.71487100155 0.63001982895 3.6007720849 3.4966939854 3.3839471039 3.2645756454 3.1415926536 3.0186096618 
2.8992382033 2.7864913217 2.6824132222 5.8240058758 5.9280839753 6.0408308569 6.1602023154 6.2831853072 0.12298299178 
0.2423544503 0.35510133185 0.45917943135 6.0560271438 5.7885595667 5.9702140275 5.5125918794 5.6029703303 5.7885595667 
5.2659633393 5.2659633393 5.2659633393 5.2659633393 5.0674903122 5.0120975802 4.9155579264 4.7123889804 4.1588146215 
4.9155579264 4.8353719722 4.7123889804 4.5092200343 4.1588146215 3.6362183941 4.8004512023 4.7123889804 4.5894059886 
4.4126803806 4.1588146215 3.8218076305 3.4545639333 4.7123889804 4.6243267584 4.5092200343 4.3572876485 4.1588146215 
3.9121860814 3.6362183941 3.368750817 6.0174235957 5.9434319871 5.8263323547 5.8809213739 5.7674481418 5.6279784266 
5.8278025282 5.718968232 5.5891129425 5.4372443565 5.7823484065 5.678536687 5.5575666702 5.4192596322 5.2659633393 
5.743164462 5.6444075337 5.5314983644 5.4046708639 5.2659633393 5.1195510325 5.7091357773 5.6152775188 5.5096229709 
5.3926039573 5.2659633393 5.1329233157 4.9978930058 5.6793730533 5.5901633916 5.4910209005 5.3824597928 5.2659633393 
5.1440684722 5.0201624502 4.8979782167 5.5683143056 5.4750190208 5.4750190208 5.3738143976 5.3738143976 5.3738143976 
5.2659633393 5.2659633393 5.2659633393 5.2659633393 5.1534979207 5.1534979207 5.1534979207 5.1534979207 5.1534979207 
5.0390747672 5.0390747672 5.0390747672 5.0390747672 5.0390747672 5.0390747672 4.9256388911 4.9256388911 4.9256388911 
4.9256388911 4.9256388911 4.9256388911 4.9256388911 4.8159880991 4.8159880991 4.8159880991 4.8159880991 4.8159880991 
4.8159880991 4.8159880991 4.8159880991 4.6087898617 4.6087898617 4.4991390697 4.6087898617 4.4991390697 4.3857031936 
4.6087898617 4.4991390697 4.3857031936 4.2712800401 4.6087898617 4.4991390697 4.3857031936 4.2712800401 4.1588146215 
4.6087898617 4.4991390697 4.3857031936 4.2712800401 4.1588146215 4.0509635631 4.6087898617 4.4991390697 4.3857031936 
4.2712800401 4.1588146215 4.0509635631 3.94975894 4.6087898617 4.4991390697 4.3857031936 4.2712800401 4.1588146215 
4.0509635631 3.94975894 3.8564636551 4.526799744 4.4046155105 4.426884955 4.2807094886 4.2918546451 4.3052269283 
4.1588146215 4.1588146215 4.1588146215 4.1588146215 4.042318168 4.0321740035 4.0201070968 4.0055183285 3.9875336042 
3.9337570603 3.9151549899 3.8932795963 3.8672112905 3.8356650183 3.7967995342 3.8346145692 3.809500442 3.7803704271 
3.7462412737 3.7058097288 3.657329819 3.5984456061 3.7454049075 3.7156421835 3.6816134988 3.6424295543 3.5969754326 
3.5438565869 3.4813459737 3.4073543651 3.5642842451 3.4524645613 3.5233842518 3.3320300872 3.403123212 3.4773852225 
3.20576226 3.2746326772 3.348015857 3.4255060145 3.0774230472 3.1415926536 3.2112816139 3.2864685043 3.3668817272 
2.95115522 3.00855263 3.0719036933 3.1415926536 3.2178377658 3.3005964304 2.8307207459 2.8800620952 2.9351694502 
2.9967168029 3.0653475414 3.1415926536 3.225752376 2.718901062 2.7598010554 2.8058000847 2.8576792927 2.91630358 
2.9825888767 3.0574329311 3.1415926536 3.5642842451 3.5233842518 3.4524645613 3.4773852225 3.403123212 3.3320300872 
3.4255060145 3.348015857 3.2746326772 3.20576226 3.3668817272 3.2864685043 3.2112816139 3.1415926536 3.0774230472 
3.3005964304 3.2178377658 3.1415926536 3.0719036933 3.00855263 2.95115522 3.225752376 3.1415926536 3.0653475414 
2.9967168029 2.9351694502 2.8800620952 2.8307207459 3.1415926536 3.0574329311 2.9825888767 2.91630358 2.8576792927 
2.8058000847 2.7598010554 2.718901062 4.526799744 4.426884955 4.4046155105 4.3052269283 4.2918546451 4.2807094886 
4.1588146215 4.1588146215 4.1588146215 4.1588146215 3.9875336042 4.0055183285 4.0201070968 4.0321740035 4.042318168 
3.7967995342 3.8356650183 3.8672112905 3.8932795963 3.9151549899 3.9337570603 3.5984456061 3.657329819 3.7058097288 
3.7462412737 3.7803704271 3.809500442 3.8346145692 3.4073543651 3.4813459737 3.5438565869 3.5969754326 3.6424295543 
3.6816134988 3.7156421835 3.7454049075 4.7123889804 4.8004512023 4.6243267584 4.9155579264 4.7123889804 4.5092200343 
5.0674903122 4.8353719722 4.5894059886 4.3572876485 5.2659633393 5.0120975802 4.7123889804 4.4126803806 4.1588146215 
5.5125918794 5.2659633393 4.9155579264 4.5092200343 4.1588146215 3.9121860814 5.7885595667 5.6029703303 5.2659633393 
4.7123889804 4.1588146215 3.8218076305 3.6362183941 6.0560271438 5.9702140275 5.7885595667 5.2659633393 4.1588146215 
3.6362183941 3.4545639333 3.368750817 0.22715816343 0.49462574053 0.3129712797 0.77059342779 0.68021497688 0.49462574053 
1.0172219679 1.0172219679 1.0172219679 1.0172219679 1.2156949949 1.271087727 1.3676273807 1.5707963268 2.1243706857 
1.3676273807 1.447813335 1.5707963268 1.7739652728 2.1243706857 2.6469669131 1.4827341049 1.5707963268 1.6937793186 
1.8705049266 2.1243706857 2.4613776767 2.8286213739 1.5707963268 1.6588585487 1.7739652728 1.9258976586 2.1243706857 
2.3709992258 2.6469669131 2.9144344902 1.7563855631 1.8785697967 1.8563003522 2.0024758186 1.9913306621 1.9779583789 
2.1243706857 2.1243706857 2.1243706857 2.1243706857 2.2408671392 2.2510113037 2.2630782103 2.2776669786 2.295651703 
2.3494282469 2.3680303173 2.3899057108 2.4159740166 2.4475202889 2.486385773 2.448570738 2.4736848652 2.5028148801 
2.5369440334 2.5773755784 2.6258554882 2.6847397011 2.5377803997 2.5675431237 2.6015718084 2.6407557529 2.6862098746 
2.7393287203 2.8018393335 2.8758309421 1.6743954455 1.6743954455 1.7840462375 1.6743954455 1.7840462375 1.8974821136 
1.6743954455 1.7840462375 1.8974821136 2.0119052671 1.6743954455 1.7840462375 1.8974821136 2.0119052671 2.1243706857 
1.6743954455 1.7840462375 1.8974821136 2.0119052671 2.1243706857 2.232221744 1.6743954455 1.7840462375 1.8974821136 
2.0119052671 2.1243706857 2.232221744 2.3334263672 1.6743954455 1.7840462375 1.8974821136 2.0119052671 2.1243706857 
2.232221744 2.3334263672 2.426721652 1.4671972081 1.3575464161 1.4671972081 1.24411054 1.3575464161 1.4671972081 
1.1296873865 1.24411054 1.3575464161 1.4671972081 1.0172219679 1.1296873865 1.24411054 1.3575464161 1.4671972081 
0.90937090954 1.0172219679 1.1296873865 1.24411054 1.3575464161 1.4671972081 0.80816628637 0.90937090954 1.0172219679 
1.1296873865 1.24411054 1.3575464161 1.4671972081 0.71487100155 0.80816628637 0.90937090954 1.0172219679 1.1296873865 
1.24411054 1.3575464161 1.4671972081 0.60381225391 0.57404952988 0.69302191562 0.54002084522 0.66790778838 0.79216440667 
0.50083690068 0.63877777351 0.77356233629 0.90072551443 0.45538277901 0.60464862014 0.75168694275 0.89058134991 1.0172219679 
0.40226393329 0.56421707518 0.72561863695 0.87851444325 1.0172219679 1.139116835 0.33975332011 0.51573716537 0.69407236469 
0.86392567495 1.0172219679 1.1502619915 1.2630228569 0.26576171152 0.45685295248 0.6552068806 0.84594095064 1.0172219679 
1.1636342747 1.2852923014 1.3852070904 0.22715816343 0.3129712797 0.49462574053 0.49462574053 0.68021497688 0.77059342779 
1.0172219679 1.0172219679 1.0172219679 1.0172219679 2.1243706857 1.5707963268 1.3676273807 1.271087727 1.2156949949 
2.6469669131 2.1243706857 1.7739652728 1.5707963268 1.447813335 1.3676273807 2.8286213739 2.4613776767 2.1243706857 
1.8705049266 1.6937793186 1.5707963268 1.4827341049 2.9144344902 2.6469669131 2.3709992258 2.1243706857 1.9258976586 
1.7739652728 1.6588585487 1.5707963268 1.7563855631 1.8563003522 1.8785697967 1.9779583789 1.9913306621 2.0024758186 
2.1243706857 2.1243706857 2.1243706857 2.1243706857 2.295651703 2.2776669786 2.2630782103 2.2510113037 2.2408671392 
2.486385773 2.4475202889 2.4159740166 2.3899057108 2.3680303173 2.3494282469 2.6847397011 2.6258554882 2.5773755784 
2.5369440334 2.5028148801 2.4736848652 2.448570738 2.8758309421 2.8018393335 2.7393287203 2.6862098746 2.6407557529 
2.6015718084 2.5675431237 2.5377803997 5.8604937156 5.901393709 5.9723133995 5.9473927383 6.0216547488 6.0927478736 
5.9992719463 6.0767621038 6.1501452836 6.2190157008 6.0578962336 6.1383094565 6.2134963469 0 0.064169606361 
6.1241815303 6.206940195 6.2831853072 0.069688960264 0.13304002361 0.19043743361 6.1990255847 0 0.07624511221 
0.14487585072 0.20642320337 0.26153055843 0.3108719077 0 0.084159722458 0.15900377685 0.22528907359 0.28391336087 
0.3357925689 0.38179159818 0.42269159155 5.8604937156 5.9723133995 5.901393709 6.0927478736 6.0216547488 5.9473927383 
6.2190157008 6.1501452836 6.0767621038 5.9992719463 0.064169606361 0 6.2134963469 6.1383094565 6.0578962336 
0.19043743361 0.13304002361 0.069688960264 6.2831853072 6.206940195 6.1241815303 0.3108719077 0.26153055843 0.20642320337 
0.14487585072 0.07624511221 6.2831853072 6.1990255847 0.42269159155 0.38179159818 0.3357925689 0.28391336087 0.22528907359 
0.15900377685 0.084159722458 0 5.6793730533 5.7091357773 5.5901633916 5.743164462 5.6152775188 5.4910209005 
5.7823484065 5.6444075337 5.5096229709 5.3824597928 5.8278025282 5.678536687 5.5314983644 5.3926039573 5.2659633393 
5.8809213739 5.718968232 5.5575666702 5.4046708639 5.2659633393 5.1440684722 5.9434319871 5.7674481418 5.5891129425 
5.4192596322 5.2659633393 5.1329233157 5.0201624502 6.0174235957 5.8263323547 5.6279784266 5.4372443565 5.2659633393 
5.1195510325 4.9978930058 4.8979782167 1.3852070904 1.2852923014 1.2630228569 1.1636342747 1.1502619915 1.139116835 
1.0172219679 1.0172219679 1.0172219679 1.0172219679 0.84594095064 0.86392567495 0.87851444325 0.89058134991 0.90072551443 
0.6552068806 0.69407236469 0.72561863695 0.75168694275 0.77356233629 0.79216440667 0.45685295248 0.51573716537 0.56421707518 
0.60464862014 0.63877777351 0.66790778838 0.69302191562 0.26576171152 0.33975332011 0.40226393329 0.45538277901 0.50083690068 
0.54002084522 0.57404952988 0.60381225391 
_paraPhiHalf 1 1002 double
0 3.1415926536 0 3.1415926536 1.5707963268 1.5707963268 1.5707963268 1.5707963268 2.5880182947 
0.5535743589 2.5880182947 0.5535743589 0 0 0 0 3.1415926536 3.1415926536 
3.1415926536 3.1415926536 3.1415926536 0.17788134 0.38438696014 0.60631181711 0.82323535693 1.0172219679 1.1799687454 
1.3118704726 1.4175000338 1.5022335207 0.17788134 0.38438696014 0.60631181711 0.82323535693 1.0172219679 1.1799687454 
1.3118704726 1.4175000338 1.5022335207 0.093902416448 0.17615329733 0.2478725152 0.31035131605 0.36486382811 0.41257334776 
0.45449736604 0.4915044461 0.52432611754 0.093902416448 0.17615329733 0.2478725152 0.31035131605 0.36486382811 0.41257334776 
0.45449736604 0.4915044461 0.52432611754 2.9637113136 2.7572056934 2.5352808365 2.3183572967 2.1243706857 1.9616239082 
1.829722181 1.7240926197 1.6393591329 2.9637113136 2.7572056934 2.5352808365 2.3183572967 2.1243706857 1.9616239082 
1.829722181 1.7240926197 1.6393591329 3.0476902371 2.9654393563 2.8937201384 2.8312413375 2.7767288255 2.7290193058 
2.6870952876 2.6500882075 2.617266536 3.0476902371 2.9654393563 2.8937201384 2.8312413375 2.7767288255 2.7290193058 
2.6870952876 2.6500882075 2.617266536 0 0 0 0 3.1415926536 3.1415926536 
3.1415926536 3.1415926536 3.1415926536 0.17788134 0.38438696014 0.60631181711 0.82323535693 1.0172219679 1.1799687454 
1.3118704726 1.4175000338 1.5022335207 0.17788134 0.38438696014 0.60631181711 0.82323535693 1.0172219679 1.1799687454 
1.3118704726 1.4175000338 1.5022335207 0.093902416448 0.17615329733 0.2478725152 0.31035131605 0.36486382811 0.41257334776 
0.45449736604 0.4915044461 0.52432611754 0.093902416448 0.17615329733 0.2478725152 0.31035131605 0.36486382811 0.41257334776 
0.45449736604 0.4915044461 0.52432611754 2.9637113136 2.7572056934 2.5352808365 2.3183572967 2.1243706857 1.9616239082 
1.829722181 1.7240926197 1.6393591329 2.9637113136 2.7572056934 2.5352808365 2.3183572967 2.1243706857 1.9616239082 
1.829722181 1.7240926197 1.6393591329 3.0476902371 2.9654393563 2.8937201384 2.8312413375 2.7767288255 2.7290193058 
2.6870952876 2.6500882075 2.617266536 3.0476902371 2.9654393563 2.8937201384 2.8312413375 2.7767288255 2.7290193058 
2.6870952876 2.6500882075 2.617266536 1.5707963268 1.5707963268 1.5707963268 1.5707963268 1.5707963268 1.5707963268 
1.5707963268 1.5707963268 1.5707963268 1.6743954455 1.7840462375 1.8974821136 2.0119052671 2.1243706857 2.232221744 
2.3334263672 2.426721652 2.5115728246 1.4671972081 1.3575464161 1.24411054 1.1296873865 1.0172219679 0.90937090954 
0.80816628637 0.71487100155 0.63001982895 1.6743954455 1.7840462375 1.8974821136 2.0119052671 2.1243706857 2.232221744 
2.3334263672 2.426721652 2.5115728246 1.4671972081 1.3575464161 1.24411054 1.1296873865 1.0172219679 0.90937090954 
0.80816628637 0.71487100155 0.63001982895 1.5707963268 1.5707963268 1.5707963268 1.5707963268 1.5707963268 1.5707963268 
1.5707963268 1.5707963268 1.5707963268 1.6743954455 1.7840462375 1.8974821136 2.0119052671 2.1243706857 2.232221744 
2.3334263672 2.426721652 2.5115728246 1.4671972081 1.3575464161 1.24411054 1.1296873865 1.0172219679 0.90937090954 
0.80816628637 0.71487100155 0.63001982895 1.6743954455 1.7840462375 1.8974821136 2.0119052671 2.1243706857 2.232221744 
2.3334263672 2.426721652 2.5115728246 1.4671972081 1.3575464161 1.24411054 1.1296873865 1.0172219679 0.90937090954 
0.80816628637 0.71487100155 0.63001982895 2.6824132222 2.7864913217 2.8992382033 3.0186096618 3.1415926536 3.0186096618 
2.8992382033 2.7864913217 2.6824132222 0.45917943135 0.35510133185 0.2423544503 0.12298299178 0 0.12298299178 
0.2423544503 0.35510133185 0.45917943135 0.22715816343 0.49462574053 0.3129712797 0.77059342779 0.68021497688 0.49462574053 
1.0172219679 1.0172219679 1.0172219679 1.0172219679 1.2156949949 1.271087727 1.3676273807 1.5707963268 2.1243706857 
1.3676273807 1.447813335 1.5707963268 1.7739652728 2.1243706857 2.6469669131 1.4827341049 1.5707963268 1.6937793186 
1.8705049266 2.1243706857 2.4613776767 2.8286213739 1.5707963268 1.6588585487 1.7739652728 1.9258976586 2.1243706857 
2.3709992258 2.6469669131 2.9144344902 0.26576171152 0.33975332011 0.45685295248 0.40226393329 0.51573716537 0.6552068806 
0.45538277901 0.56421707518 0.69407236469 0.84594095064 0.50083690068 0.60464862014 0.72561863695 0.86392567495 1.0172219679 
0.54002084522 0.63877777351 0.75168694275 0.87851444325 1.0172219679 1.1636342747 0.57404952988 0.66790778838 0.77356233629 
0.89058134991 1.0172219679 1.1502619915 1.2852923014 0.60381225391 0.69302191562 0.79216440667 0.90072551443 1.0172219679 
1.139116835 1.2630228569 1.3852070904 0.71487100155 0.80816628637 0.80816628637 0.90937090954 0.90937090954 0.90937090954 
1.0172219679 1.0172219679 1.0172219679 1.0172219679 1.1296873865 1.1296873865 1.1296873865 1.1296873865 1.1296873865 
1.24411054 1.24411054 1.24411054 1.24411054 1.24411054 1.24411054 1.3575464161 1.3575464161 1.3575464161 
1.3575464161 1.3575464161 1.3575464161 1.3575464161 1.4671972081 1.4671972081 1.4671972081 1.4671972081 1.4671972081 
1.4671972081 1.4671972081 1.4671972081 1.6743954455 1.6743954455 1.7840462375 1.6743954455 1.7840462375 1.8974821136 
1.6743954455 1.7840462375 1.8974821136 2.0119052671 1.6743954455 1.7840462375 1.8974821136 2.0119052671 2.1243706857 
1.6743954455 1.7840462375 1.8974821136 2.0119052671 2.1243706857 2.232221744 1.6743954455 1.7840462375 1.8974821136 
2.0119052671 2.1243706857 2.232221744 2.3334263672 1.6743954455 1.7840462375 1.8974821136 2.0119052671 2.1243706857 
2.232221744 2.3334263672 2.426721652 1.7563855631 1.8785697967 1.8563003522 2.0024758186 1.9913306621 1.9779583789 
2.1243706857 2.1243706857 2.1243706857 2.1243706857 2.2408671392 2.2510113037 2.2630782103 2.2776669786 2.295651703 
2.3494282469 2.3680303173 2.3899057108 2.4159740166 2.4475202889 2.486385773 2.448570738 2.4736848652 2.5028148801 
2.5369440334 2.5773755784 2.6258554882 2.6847397011 2.5377803997 2.5675431237 2.6015718084 2.6407557529 2.6862098746 
2.7393287203 2.8018393335 2.8758309421 2.718901062 2.8307207459 2.7598010554 2.95115522 2.8800620952 2.8058000847 
3.0774230472 3.00855263 2.9351694502 2.8576792927 3.0774230472 3.1415926536 3.0719036933 2.9967168029 2.91630358 
2.95115522 3.00855263 3.0719036933 3.1415926536 3.0653475414 2.9825888767 2.8307207459 2.8800620952 2.9351694502 
2.9967168029 3.0653475414 3.1415926536 3.0574329311 2.718901062 2.7598010554 2.8058000847 2.8576792927 2.91630358 
2.9825888767 3.0574329311 3.1415926536 2.718901062 2.7598010554 2.8307207459 2.8058000847 2.8800620952 2.95115522 
2.8576792927 2.9351694502 3.00855263 3.0774230472 2.91630358 2.9967168029 3.0719036933 3.1415926536 3.0774230472 
2.9825888767 3.0653475414 3.1415926536 3.0719036933 3.00855263 2.95115522 3.0574329311 3.1415926536 3.0653475414 