# vtk DataFile Version 5.1
vtk output
ASCII
DATASET POLYDATA
POINTS 100 float
11.5914 36.674 14.6214 11.5908 36.6717 14.617 11.5866 36.6676 14.6065 
11.5806 36.6629 14.5903 11.5762 36.6596 14.5691 11.5771 36.6602 14.5436 
11.5878 36.6675 14.515 11.6122 36.6842 14.4842 11.6539 36.7129 14.4522 
11.7157 36.7556 14.42 11.7988 36.8135 14.3883 11.9035 36.8872 14.3576 
12.0285 36.9762 14.3282 12.1716 37.0793 14.2999 12.3296 37.1946 14.2726 
12.4989 37.3197 14.2456 12.676 37.4517 14.2184 12.8574 37.5879 14.1899 
13.0403 37.7256 14.1596 13.2229 37.8626 14.1267 13.4041 37.9972 14.0906 
13.5838 38.1283 14.0511 13.7628 38.2555 14.0083 13.9423 38.379 13.9623 
14.1242 38.4995 13.9137 14.3101 38.6181 13.8633 14.502 38.7358 13.8122 
14.7013 38.8537 13.7612 14.909 38.9726 13.7115 15.1257 39.0931 13.6639 
15.3516 39.2152 13.6192 15.5865 39.3384 13.5779 15.8298 39.4622 13.5403 
16.081 39.5854 13.5065 16.3394 39.707 13.4762 16.6043 39.826 13.4492 
16.875 39.9418 13.4251 17.1509 40.0541 13.4036 17.4312 40.1631 13.3843 
17.7152 40.2696 13.3671 18.0017 40.375 13.3519 18.2896 40.4811 13.3388 
18.5773 40.5897 13.328 18.8632 40.7031 13.3198 19.1453 40.823 13.3144 
19.4218 40.951 13.312 19.6913 41.0879 13.3125 19.9524 41.2341 13.3156 
20.2044 41.3889 13.3209 20.4475 41.5512 13.3277 20.6822 41.7191 13.3349 
20.9099 41.8904 13.3417 21.1325 42.0625 13.3469 21.3522 42.2331 13.3497 
21.5714 42.4 13.3493 21.7922 42.5617 13.3453 22.0164 42.7171 13.3378 
22.2451 42.866 13.327 22.4787 43.0089 13.3138 22.7167 43.1468 13.2992 
22.9579 43.2813 13.2843 23.2004 43.4144 13.2707 23.4421 43.5476 13.2594 
23.6807 43.6827 13.2515 23.9142 43.8208 13.2478 24.141 43.9625 13.2487 
24.3601 44.1076 13.2541 24.5716 44.2553 13.2636 24.7761 44.4044 13.2765 
24.9749 44.553 13.2919 25.17 44.6992 13.3088 25.3633 44.8409 13.3263 
25.5569 44.9766 13.3437 25.7522 45.1048 13.3607 25.9502 45.2248 13.3769 
26.1509 45.3364 13.3926 26.3535 45.4402 13.4081 26.5561 45.537 13.424 
26.7565 45.6283 13.4405 26.9518 45.7154 13.458 27.1389 45.7997 13.4765 
27.3152 45.8826 13.4955 27.4782 45.9646 13.5141 27.6264 46.0462 13.5309 
27.7589 46.1269 13.5444 27.876 46.2061 13.5528 27.9786 46.2824 13.5541 
28.0682 46.3545 13.5468 28.1467 46.4209 13.53 28.2164 46.4803 13.503 
28.279 46.5316 13.4665 28.3361 46.5744 13.4215 28.3886 46.6087 13.3703 
28.4369 46.6348 13.3157 28.4805 46.6539 13.261 28.5186 46.667 13.21 
28.5502 46.6757 13.1661 28.5741 46.6813 13.1326 28.589 46.6848 13.112 
28.5944 46.6871 13.1059 
LINES 2 100
OFFSETS vtktypeint64
0 100 
CONNECTIVITY vtktypeint64
0 1 2 3 4 5 6 7 8 
9 10 11 12 13 14 15 16 17 
18 19 20 21 22 23 24 25 26 
27 28 29 30 31 32 33 34 35 
36 37 38 39 40 41 42 43 44 
45 46 47 48 49 50 51 52 53 
54 55 56 57 58 59 60 61 62 
63 64 65 66 67 68 69 70 71 
72 73 74 75 76 77 78 79 80 
81 82 83 84 85 86 87 88 89 
90 91 92 93 94 95 96 97 98 
99 
POINT_DATA 100
FIELD FieldData 3
_theta 1 100 double
0 0.031733259127 0.063466518254 0.095199777382 0.12693303651 0.15866629564 0.19039955476 0.22213281389 0.25386607302 
0.28559933214 0.31733259127 0.3490658504 0.38079910953 0.41253236865 0.44426562778 0.47599888691 0.50773214603 0.53946540516 
0.57119866429 0.60293192342 0.63466518254 0.66639844167 0.6981317008 0.72986495992 0.76159821905 0.79333147818 0.82506473731 
0.85679799643 0.88853125556 0.92026451469 0.95199777382 0.98373103294 1.0154642921 1.0471975512 1.0789308103 1.1106640695 
1.1423973286 1.1741305877 1.2058638468 1.237597106 1.2693303651 1.3010636242 1.3327968833 1.3645301425 1.3962634016 
1.4279966607 1.4597299198 1.491463179 1.5231964381 1.5549296972 1.5866629564 1.6183962155 1.6501294746 1.6818627337 
1.7135959929 1.745329252 1.7770625111 1.8087957702 1.8405290294 1.8722622885 1.9039955476 1.9357288068 1.9674620659 
1.999195325 2.0309285841 2.0626618433 2.0943951024 2.1261283615 2.1578616206 2.1895948798 2.2213281389 2.253061398 
2.2847946572 2.3165279163 2.3482611754 2.3799944345 2.4117276937 2.4434609528 2.4751942119 2.506927471 2.5386607302 
2.5703939893 2.6021272484 2.6338605076 2.6655937667 2.6973270258 2.7290602849 2.7607935441 2.7925268032 2.8242600623 
2.8559933214 2.8877265806 2.9194598397 2.9511930988 2.982926358 3.0146596171 3.0463928762 3.0781261353 3.1098593945 
3.1415926536 
_radius 1 100 double
9.8471712928e-14 0.27406373245 0.54521424015 0.8109030242 1.0692639497 1.3192779766 1.5607722917 1.7942697249 2.0207391257 
2.2413150524 2.4570506457 2.6687441937 2.8768490458 3.0814528925 3.2823050128 3.4788762231 3.6704450435 3.8562061045 
4.0353921639 4.2073938243 4.3718560556 4.5287311008 4.6782745874 4.820984262 4.9574940872 5.08844483 5.214352889 
5.3354941342 5.4518140164 5.5628726894 5.667833828 5.7655050299 5.8544335347 5.9330534155 5.9998712656 6.0536688629 
6.0936949008 6.1198149902 6.1325915641 6.1332746902 6.1237007513 6.1061146117 6.082945854 6.0565755636 6.0291260102 
6.0022952955 5.9772482648 5.9545673478 5.9342622961 5.9158334979 5.8983781688 5.8807235558 5.8615691311 5.8396219237 
5.8137143862 5.7828997233 5.7465229036 5.7042655449 5.6561604037 5.6025692385 5.5441199912 5.4816071267 5.4158699854 
5.3476725751 5.2776094798 5.2060556073 5.1331656227 5.0589170191 4.9831822614 4.9058110823 4.8267031272 4.7458532643 
4.6633572251 4.5793738507 4.4940507914 4.4074301748 4.3193561738 4.2294054431 4.1368544485 4.0406876929 3.9396417275 
3.8322747271 3.7170510211 3.5924326167 3.4569726037 3.3094062259 3.1487339977 2.9742889477 2.7857791302 2.583298651 
2.3673057712 2.1385736048 1.898124895 1.6471648545 1.3870240367 1.1191176469 0.84492113436 0.56595705458 0.28378653577 
8.3552589349e-14 
_area 1 100 double
0 0.22686451365 0.89816518161 1.9877035029 3.4569811151 5.2615927326 7.3579339251 9.7087932494 12.286819621 
15.075639788 18.069087973 21.268973755 24.681345735 28.31127367 32.157004783 36.205164948 40.42862462 44.787733801 
49.23456463 53.719133879 58.196319873 62.632116553 67.007851964 71.321137323 75.582843666 79.810375988 84.018611205 
88.210588185 92.370033312 96.457121925 100.40798588 104.13789702 107.54787794 110.53441774 113.00173037 114.8754901 
116.11616265 116.72903077 116.76741973 116.32648959 115.52765295 114.49724104 113.34599046 112.15650255 110.98210809 
109.85407339 108.79039469 107.8009583 106.887562 106.04028175 105.23338477 104.42438995 103.55872667 102.58072111 
101.45237863 100.18731685 98.876476833 97.534224191 96.016458185 94.20882906 92.076337991 89.648982147 86.998112254 
84.219203161 81.412656582 78.660743642 76.013430678 73.483894223 71.060119892 68.723486772 66.461189796 64.269813942 
62.151623765 60.106222012 58.12210393 56.172698339 54.218190934 52.21151165 50.106713156 47.868070774 45.477018991 
42.933883236 40.253836405 37.459471754 34.573595127 31.615119803 28.599122358 25.540229073 22.457418804 19.378277651 
16.341344818 13.395979829 10.599923476 8.0153226686 5.7042947825 3.7249704204 2.1284599695 0.95668410643 0.24079461096 
0 
