# vtk DataFile Version 5.1
vtk output
ASCII
DATASET POLYDATA
POINTS 1002 float
-6.08678 -0.410981 -3.77734 5.61063 0.234851 -4.03563 -5.64478 0.0165714 4.27908 
5.79679 0.389326 5.02337 0.122481 5.57009 -2.85621 -0.561401 5.35301 2.46462 
-0.539373 -6.40866 -2.41644 -1.00398 -6.95731 3.32118 9.78675 4.74389 -0.0302413 
-9.97306 4.99246 0.25658 12.1221 -5.26092 -2.29396 -9.4463 -4.18973 -0.371814 
-5.1434 -0.465197 -3.45279 -4.07606 -0.408029 -3.11976 -2.87605 -0.276478 -3.04921 
-1.5518 -0.183306 -3.32381 -0.209222 -0.14422 -3.67094 1.04557 -0.0574649 -3.84489 
2.23992 0.0893912 -3.92288 3.42616 0.195368 -4.01845 4.56752 0.224514 -4.07627 
-5.72001 0.21135 -3.40769 -5.16234 0.847463 -3.10994 -4.55607 1.42486 -2.99885 
-4.04124 2.03545 -3.12454 -3.53382 2.81319 -3.40784 -2.83772 3.64299 -3.64059 
-1.96866 4.28207 -3.64251 -1.12901 4.71733 -3.42439 -0.439376 5.11746 -3.12689 
-5.72365 -1.04744 -3.98902 -5.22304 -1.61881 -4.11783 -4.6836 -2.14049 -4.07438 
-4.19089 -2.7938 -3.9562 -3.708 -3.63776 -3.88964 -3.12367 -4.41371 -3.74121 
-2.41273 -4.93011 -3.34252 -1.6791 -5.34638 -2.85196 -1.04256 -5.85351 -2.53419 
-6.79447 0.0755065 -3.78403 -7.41852 0.591846 -3.78341 -7.93494 1.12265 -3.83707 
-8.48807 1.75508 -3.88119 -9.17444 2.54513 -3.66821 -9.77652 3.33246 -3.03055 
-10.0322 3.90399 -2.12314 -10.0207 4.28169 -1.22017 -9.97884 4.62742 -0.433992 
-6.77382 -0.700845 -4.10541 -7.47483 -1.01648 -4.28753 -8.28695 -1.46279 -4.42443 
-9.19457 -2.0763 -4.64536 -9.94297 -2.70566 -4.7425 -10.2475 -3.14106 -4.29971 
-10.1266 -3.37849 -3.29052 -9.84956 -3.59354 -2.12474 -9.61833 -3.88382 -1.13589 
5.33446 0.814046 -4.20063 5.01348 1.44973 -4.40319 4.64127 2.12591 -4.66989 
4.22916 2.80305 -4.9747 3.81737 3.46277 -5.19924 3.39082 4.11719 -5.14696 
2.82461 4.7052 -4.70262 2.02495 5.11146 -4.00234 1.06755 5.34891 -3.32919 
5.2409 -0.357672 -3.92172 4.82232 -0.991521 -3.77494 4.29861 -1.63327 -3.56186 
3.6506 -2.27099 -3.26322 2.93172 -2.92601 -2.85491 2.1944 -3.6141 -2.34606 
1.44963 -4.32367 -1.91031 0.720525 -5.03855 -1.79996 0.0498994 -5.74394 -2.04705 
6.50412 0.628898 -4.03874 7.48498 1.08683 -4.02604 8.41606 1.59 -3.9722 
9.13983 2.08807 -3.77137 9.63804 2.51781 -3.32773 9.98612 2.88871 -2.70542 
10.1783 3.31336 -2.04556 10.1721 3.8517 -1.38275 10.0128 4.38744 -0.69607 
6.40786 -0.0957223 -3.84437 7.26739 -0.444597 -3.60628 8.18931 -0.88516 -3.41007 
9.12515 -1.46841 -3.23705 9.98609 -2.08626 -2.92564 10.7273 -2.63456 -2.50559 
11.3536 -3.24567 -2.28245 11.8348 -4.03914 -2.35836 12.1026 -4.81569 -2.455 
-4.78242 -0.0110363 4.52691 -3.87135 -0.0716425 4.90836 -2.88546 -0.165798 5.34677 
-1.75485 -0.238712 5.70177 -0.477619 -0.215641 5.92035 0.880876 -0.0881556 6.0012 
2.26474 0.0790449 5.8971 3.59948 0.224758 5.6226 4.78859 0.327258 5.30178 
-5.30403 0.662595 4.33375 -4.86604 1.38229 4.37858 -4.3983 2.10903 4.48891 
-3.89964 2.78843 4.63473 -3.30297 3.42219 4.60658 -2.6378 3.99882 4.24071 
-2.03557 4.46037 3.66255 -1.53593 4.80037 3.13132 -1.06202 5.08396 2.7531 
-5.36538 -0.617759 4.3093 -5.00937 -1.3131 4.33456 -4.60905 -2.07724 4.37207 
-4.18113 -2.8797 4.40811 -3.70411 -3.65916 4.39144 -3.17081 -4.39202 4.29973 
-2.62251 -5.12411 4.16109 -2.08937 -5.86692 3.97525 -1.55539 -6.51792 3.69868 
-6.32883 0.433932 4.15059 -6.99932 0.935064 3.96253 -7.5486 1.54749 3.55391 
-7.98892 2.24642 2.93673 -8.4796 2.96006 2.37574 -9.09671 3.60593 2.01494 
-9.68466 4.11793 1.67882 -10.0413 4.48836 1.22336 -10.1138 4.76779 0.720682 
-6.31307 -0.350623 4.08148 -6.90551 -0.725728 3.75076 -7.39968 -1.11519 3.23206 
-7.86163 -1.55325 2.63764 -8.3594 -2.06028 2.14741 -8.87579 -2.59885 1.75495 
-9.32183 -3.09427 1.31412 -9.58686 -3.50724 0.784231 -9.61146 -3.86054 0.217609 
5.52006 0.847507 4.96097 5.10869 1.401 4.88376 4.582 1.99845 4.88026 
3.97836 2.52012 4.82988 3.29129 2.98546 4.51551 2.49611 3.53298 3.97957 
1.64128 4.13158 3.47472 0.822624 4.62227 3.09738 0.0893247 4.99416 2.77269 
5.35127 -0.119976 5.13412 4.71973 -0.781602 5.13139 3.93531 -1.58505 5.05881 
3.07884 -2.4342 4.95722 2.21296 -3.29565 4.83831 1.36001 -4.2458 4.70936 
0.565747 -5.24235 4.53592 -0.0936292 -6.07148 4.23668 -0.597675 -6.61532 3.8 
6.58774 0.693812 4.71676 7.37187 1.0206 4.28764 8.14127 1.40831 3.72374 
8.85783 1.85036 3.11335 9.45817 2.32628 2.58828 9.88278 2.87195 2.15998 
10.1001 3.5054 1.70865 10.1219 4.11433 1.16129 9.99793 4.54305 0.559618 
6.53518 0.137913 4.8081 7.38508 -0.198678 4.32948 8.37904 -0.675005 3.4567 
9.41058 -1.23685 2.36656 10.3301 -1.7986 1.42949 11.1445 -2.45978 0.683189 
11.8851 -3.36984 -0.176525 12.3856 -4.36229 -1.17702 12.4556 -5.05528 -1.96416 
-0.118325 6.05507 -2.46577 -0.339943 6.53129 -2.0189 -0.511998 6.82625 -1.46866 
-0.63108 6.85413 -0.821785 -0.677903 6.76478 -0.148026 -0.651567 6.70809 0.491486 
-0.613031 6.58154 1.08263 -0.606494 6.25037 1.6186 -0.602761 5.78881 2.08077 
1.26012 5.99342 -2.90901 2.44226 6.53681 -3.03221 3.52393 6.91463 -3.0032 
4.4644 6.92725 -2.68159 5.35007 6.67273 -2.19679 6.27116 6.3435 -1.72023 
7.24059 5.98035 -1.25204 8.20429 5.56889 -0.776856 9.07461 5.14753 -0.359295 
-1.08534 5.69671 -2.73889 -2.20348 6.1421 -2.73343 -3.23151 6.65445 -2.59141 
-4.32366 6.86431 -2.13466 -5.567 6.78075 -1.47117 -6.83739 6.70145 -0.832152 
-7.96038 6.62585 -0.334739 -8.8588 6.29934 -0.00360232 -9.52227 5.68783 0.173221 
0.393889 5.36328 2.34518 1.47897 5.31292 2.12624 2.69982 5.27307 1.82125 
4.01823 5.39287 1.57019 5.29795 5.63908 1.45164 6.41502 5.77203 1.35553 
7.38737 5.68102 1.1476 8.28169 5.45798 0.816714 9.09364 5.15716 0.410441 
-1.54214 5.60677 2.37959 -2.59317 5.98036 2.44912 -3.61238 6.45294 2.6825 
-4.56377 6.86824 2.85202 -5.61583 7.10179 2.74447 -6.90949 7.17092 2.42994 
-8.225 7.03655 2.03599 -9.18686 6.56936 1.53104 -9.7016 5.81004 0.902386 
-0.588302 -7.14388 -2.5504 -0.584578 -7.85229 -2.43502 -0.535701 -8.43844 -1.85117 
-0.505071 -8.79727 -0.879247 -0.531874 -8.80779 0.121986 -0.591767 -8.4755 0.905095 
-0.665174 -8.01477 1.52906 -0.764022 -7.62427 2.1336 -0.885645 -7.30231 2.74609 
0.2627 -6.48155 -2.0883 1.20994 -6.30568 -1.62752 2.50945 -5.83344 -1.16713 
4.17588 -5.30247 -0.964072 5.88263 -5.01604 -1.03591 7.32753 -4.99799 -1.14609 
8.58943 -5.09877 -1.26765 9.86087 -5.2369 -1.57395 11.0988 -5.33431 -2.00685 
-1.44097 -6.69388 -2.71291 -2.51312 -6.91615 -2.77931 -3.67393 -7.00634 -2.62492 
-4.76782 -6.94683 -2.39325 -5.73527 -6.85293 -2.18125 -6.62234 -6.77633 -1.93279 
-7.44575 -6.51984 -1.57315 -8.19188 -5.90554 -1.13832 -8.86398 -5.0471 -0.719523 
-0.126377 -6.99774 3.12214 0.933659 -6.84215 2.79375 2.17219 -6.59046 2.40334 
3.60455 -6.32254 2.00636 5.28293 -5.96251 1.5397 7.13444 -5.52777 0.881683 
8.88495 -5.28627 0.0156316 10.2997 -5.34655 -0.92381 11.3553 -5.43647 -1.74043 
-1.77423 -7.02409 3.09699 -2.67065 -7.08078 2.89019 -3.69118 -7.13838 2.72233 
-4.73431 -7.10438 2.49115 -5.71135 -6.89474 2.10445 -6.63962 -6.55733 1.62477 
-7.52969 -6.15352 1.14408 -8.3081 -5.63433 0.653134 -8.93059 -4.95686 0.134713 
10.5582 4.12376 -0.135298 11.342 3.26501 -0.245682 12.2171 2.11712 -0.34281 
13.1797 0.821628 -0.476769 13.991 -0.400722 -0.767027 14.3576 -1.53591 -1.28045 
14.2269 -2.71562 -1.89924 13.7361 -3.87269 -2.3691 13.0071 -4.76004 -2.50083 
-10.3688 4.11473 -0.0792662 -10.8746 3.29134 -0.369579 -11.4673 2.48895 -0.60349 
-11.9564 1.63689 -0.784933 -12.1312 0.734887 -0.864871 -11.9356 -0.183568 -0.808832 
-11.4495 -1.13582 -0.684162 -10.7974 -2.14511 -0.571907 -10.1025 -3.18293 -0.476044 
-4.633 0.242306 -3.07608 -3.96119 0.951552 -2.928 -3.42034 0.378305 -2.92687 
-3.34252 1.56752 -3.13062 -2.68688 1.1269 -3.06538 -2.11611 0.506474 -3.17762 
-2.85872 2.18778 -3.58073 -2.08906 1.73779 -3.5202 -1.37176 1.21846 -3.53846 
-0.76268 0.51685 -3.67363 -2.28176 2.91504 -3.9751 -1.55458 2.31907 -4.04949 
-0.754224 1.81317 -4.02081 -0.0369935 1.18971 -4.05483 0.544286 0.503122 -4.02467 
-1.41834 3.63667 -4.06661 -0.776887 2.98416 -4.36792 -0.0607789 2.41365 -4.47464 
0.64818 1.84568 -4.46467 1.25848 1.20813 -4.35355 1.77059 0.603206 -4.13505 
-0.425092 4.23699 -3.87653 0.274665 3.69933 -4.38954 0.911309 3.12281 -4.7666 
1.49035 2.55003 -4.88212 2.02752 1.95453 -4.74522 2.52044 1.33797 -4.45865 
2.98242 0.750781 -4.18251 0.431708 4.78098 -3.58978 1.28686 4.41367 -4.22799 
1.98048 3.91628 -4.8355 2.49258 3.32589 -5.15341 2.92807 2.71441 -5.09949 
3.36131 2.08584 -4.80356 3.78799 1.44437 -4.46799 4.19307 0.81871 -4.22467 
-6.38954 0.711585 -3.48847 -6.99661 1.25935 -3.55976 -5.84066 1.31138 -3.18382 
-7.54226 1.88843 -3.60991 -6.51257 1.89482 -3.14712 -5.28595 1.9047 -2.90787 
-8.12016 2.63732 -3.55859 -7.14369 2.60575 -3.02608 -6.00889 2.57357 -2.59874 
-4.74488 2.66463 -2.79659 -8.69952 3.4294 -3.22061 -7.70559 3.35148 -2.87335 
-6.62221 3.28854 -2.30489 -5.3512 3.414 -2.29407 -4.06113 3.59709 -2.94424 
-9.09248 4.11861 -2.50017 -8.12125 4.06784 -2.53313 -7.05874 3.94361 -2.16639 
-5.79281 4.06043 -1.9977 -4.45239 4.33429 -2.47052 -3.19972 4.41897 -3.18226 
-9.27081 4.68435 -1.55465 -8.38654 4.80909 -1.83013 -7.35575 4.70286 -1.87778 
-6.1147 4.72187 -1.88762 -4.7656 4.98439 -2.24076 -3.51581 5.1283 -2.82851 
-2.35313 4.95699 -3.23745 -9.39392 5.2071 -0.624685 -8.61972 5.59517 -0.895169 
-7.64315 5.6724 -1.19838 -6.44641 5.65521 -1.53375 -5.11862 5.80583 -2.01196 
-3.87184 5.92897 -2.57482 -2.77218 5.71978 -2.94254 -1.66123 5.333 -3.04668 
-9.1665 6.62378 0.808918 -8.46605 7.36893 1.31538 -8.35116 7.24535 0.543047 
-7.3015 7.62064 1.63648 -7.47782 7.8075 0.861668 -7.28245 7.50492 0.0419335 
-5.94265 7.41918 1.90812 -6.26877 7.70675 1.04275 -6.34053 7.86888 0.217473 
-6.04274 7.57534 -0.656842 -4.76841 7.06612 2.1701 -5.03057 7.19943 1.31248 
-5.23234 7.54534 0.430135 -5.14396 7.87415 -0.48377 -4.76574 7.64736 -1.41324 
-3.7804 6.7329 2.24091 -3.93396 6.7861 1.59764 -4.10326 6.97731 0.799082 
-4.14935 7.50462 -0.113472 -3.94923 7.85031 -1.1106 -3.58928 7.49317 -2.00632 
-2.75203 6.4123 2.11308 -2.8501 6.61507 1.66983 -2.95304 6.68729 1.07259 
[...]
POINT_DATA 1002
FIELD FieldData 4
_paraPhi 1 1002 double
6.2831853072 3.1415926536 6.2831853072 3.1415926536 4.7123889804 4.7123889804 1.5707963268 1.5707963268 3.6951670125 
5.7296109483 2.5880182947 0.5535743589 6.2831853072 6.2831853072 6.2831853072 6.2831853072 3.1415926536 3.1415926536 
3.1415926536 3.1415926536 3.1415926536 6.1053039672 5.898798347 5.6768734901 5.4599499503 5.2659633393 5.1032165617 
4.9713148346 4.8656852733 4.7809517865 0.17788134 0.38438696014 0.60631181711 0.82323535693 1.0172219679 1.1799687454 
1.3118704726 1.4175000338 1.5022335207 6.1892828907 6.1070320098 6.035312792 5.9728339911 5.9183214791 5.8706119594 
5.8286879411 5.7916808611 5.7588591896 0.093902416448 0.17615329733 0.2478725152 0.31035131605 0.36486382811 0.41257334776 
0.45449736604 0.4915044461 0.52432611754 3.3194739936 3.5259796137 3.7479044707 3.9648280105 4.1588146215 4.321561399 
4.4534631262 4.5590926874 4.6438261743 2.9637113136 2.7572056934 2.5352808365 2.3183572967 2.1243706857 1.9616239082 
1.829722181 1.7240926197 1.6393591329 3.23549507 3.3177459509 3.3894651688 3.4519439696 3.5064564817 3.5541660013 
3.5960900196 3.6330970997 3.6659187711 3.0476902371 2.9654393563 2.8937201384 2.8312413375 2.7767288255 2.7290193058 
2.6870952876 2.6500882075 2.617266536 6.2831853072 6.2831853072 6.2831853072 6.2831853072 3.1415926536 3.1415926536 
3.1415926536 3.1415926536 3.1415926536 6.1053039672 5.898798347 5.6768734901 5.4599499503 5.2659633393 5.1032165617 
4.9713148346 4.8656852733 4.7809517865 0.17788134 0.38438696014 0.60631181711 0.82323535693 1.0172219679 1.1799687454 
1.3118704726 1.4175000338 1.5022335207 6.1892828907 6.1070320098 6.035312792 5.9728339911 5.9183214791 5.8706119594 
5.8286879411 5.7916808611 5.7588591896 0.093902416448 0.17615329733 0.2478725152 0.31035131605 0.36486382811 0.41257334776 
0.45449736604 0.4915044461 0.52432611754 3.3194739936 3.5259796137 3.7479044707 3.9648280105 4.1588146215 4.321561399 
4.4534631262 4.5590926874 4.6438261743 2.9637113136 2.7572056934 2.5352808365 2.3183572967 2.1243706857 1.9616239082 
1.829722181 1.7240926197 1.6393591329 3.23549507 3.3177459509 3.3894651688 3.4519439696 3.5064564817 3.5541660013 
3.5960900196 3.6330970997 3.6659187711 3.0476902371 2.9654393563 2.8937201384 2.8312413375 2.7767288255 2.7290193058 
2.6870952876 2.6500882075 2.617266536 4.7123889804 4.7123889804 4.7123889804 4.7123889804 4.7123889804 4.7123889804 
4.7123889804 4.7123889804 4.7123889804 4.6087898617 4.4991390697 4.3857031936 4.2712800401 4.1588146215 4.0509635631 
3.94975894 3.8564636551 3.7716124825 4.8159880991 4.9256388911 5.0390747672 5.1534979207 5.2659633393 5.3738143976 
5.4750190208 5.5683143056 5.6531654782 4.6087898617 4.4991390697 4.3857031936 4.2712800401 4.1588146215 4.0509635631 
3.94975894 3.8564636551 3.7716124825 4.8159880991 4.9256388911 5.0390747672 5.1534979207 5.2659633393 5.3738143976 
5.4750190208 5.5683143056 5.6531654782 1.5707963268 1.5707963268 1.5707963268 1.5707963268 1.5707963268 1.5707963268 
1.5707963268 1.5707963268 1.5707963268 1.6743954455 1.7840462375 1.8974821136 2.0119052671 2.1243706857 2.232221744 
2.3334263672 2.426721652 2.5115728246 1.4671972081 1.3575464161 1.24411054 1.1296873865 1.0172219679 0.90937090954 
0.80816628637 0.71487100155 0.63001982895 1.6743954455 1.7840462375 1.8974821136 2.0119052671 2.1243706857 2.232221744 
2.3334263672 2.426721652 2.5115728246 1.4671972081 1.3575464161 1.24411054 1.1296873865 1.0172219679 0.90937090954 
0.80816628637 0.71487100155 0.63001982895 3.6007720849 3.4966939854 3.3839471039 3.2645756454 3.1415926536 3.0186096618 
2.8992382033 2.7864913217 2.6824132222 5.8240058758 5.9280839753 6.0408308569 6.1602023154 6.2831853072 0.12298299178 
0.2423544503 0.35510133185 0.45917943135 6.0560271438 5.7885595667 5.9702140275 5.5125918794 5.6029703303 5.7885595667 
5.2659633393 5.2659633393 5.2659633393 5.2659633393 5.0674903122 5.0120975802 4.9155579264 4.7123889804 4.1588146215 
4.9155579264 4.8353719722 4.7123889804 4.5092200343 4.1588146215 3.6362183941 4.8004512023 4.7123889804 4.5894059886 
4.4126803806 4.1588146215 3.8218076305 3.4545639333 4.7123889804 4.6243267584 4.5092200343 4.3572876485 4.1588146215 
3.9121860814 3.6362183941 3.368750817 6.0174235957 5.9434319871 5.8263323547 5.8809213739 5.7674481418 5.6279784266 
5.8278025282 5.718968232 5.5891129425 5.4372443565 5.7823484065 5.678536687 5.5575666702 5.4192596322 5.2659633393 
5.743164462 5.6444075337 5.5314983644 5.4046708639 5.2659633393 5.1195510325 5.7091357773 5.6152775188 5.5096229709 
5.3926039573 5.2659633393 5.1329233157 4.9978930058 5.6793730533 5.5901633916 5.4910209005 5.3824597928 5.2659633393 
5.1440684722 5.0201624502 4.8979782167 5.5683143056 5.4750190208 5.4750190208 5.3738143976 5.3738143976 5.3738143976 
5.2659633393 5.2659633393 5.2659633393 5.2659633393 5.1534979207 5.1534979207 5.1534979207 5.1534979207 5.1534979207 
5.0390747672 5.0390747672 5.0390747672 5.0390747672 5.0390747672 5.0390747672 4.9256388911 4.9256388911 4.9256388911 
4.9256388911 4.9256388911 4.9256388911 4.9256388911 4.8159880991 4.8159880991 4.8159880991 4.8159880991 4.8159880991 
4.8159880991 4.8159880991 4.8159880991 4.6087898617 4.6087898617 4.4991390697 4.6087898617 4.4991390697 4.3857031936 
4.6087898617 4.4991390697 4.3857031936 4.2712800401 4.6087898617 4.4991390697 4.3857031936 4.2712800401 4.1588146215 
4.6087898617 4.4991390697 4.3857031936 4.2712800401 4.1588146215 4.0509635631 4.6087898617 4.4991390697 4.3857031936 
4.2712800401 4.1588146215 4.0509635631 3.94975894 4.6087898617 4.4991390697 4.3857031936 4.2712800401 4.1588146215 
4.0509635631 3.94975894 3.8564636551 4.526799744 4.4046155105 4.426884955 4.2807094886 4.2918546451 4.3052269283 
4.1588146215 4.1588146215 4.1588146215 4.1588146215 4.042318168 4.0321740035 4.0201070968 4.0055183285 3.9875336042 
3.9337570603 3.9151549899 3.8932795963 3.8672112905 3.8356650183 3.7967995342 3.8346145692 3.809500442 3.7803704271 
3.7462412737 3.7058097288 3.657329819 3.5984456061 3.7454049075 3.7156421835 3.6816134988 3.6424295543 3.5969754326 
3.5438565869 3.4813459737 3.4073543651 3.5642842451 3.4524645613 3.5233842518 3.3320300872 3.403123212 3.4773852225 
3.20576226 3.2746326772 3.348015857 3.4255060145 3.0774230472 3.1415926536 3.2112816139 3.2864685043 3.3668817272 
2.95115522 3.00855263 3.0719036933 3.1415926536 3.2178377658 3.3005964304 2.8307207459 2.8800620952 2.9351694502 
2.9967168029 3.0653475414 3.1415926536 3.225752376 2.718901062 2.7598010554 2.8058000847 2.8576792927 2.91630358 
2.9825888767 3.0574329311 3.1415926536 3.5642842451 3.5233842518 3.4524645613 3.4773852225 3.403123212 3.3320300872 
3.4255060145 3.348015857 3.2746326772 3.20576226 3.3668817272 3.2864685043 3.2112816139 3.1415926536 3.0774230472 
3.3005964304 3.2178377658 3.1415926536 3.0719036933 3.00855263 2.95115522 3.225752376 3.1415926536 3.0653475414 
2.9967168029 2.9351694502 2.8800620952 2.8307207459 3.1415926536 3.0574329311 2.9825888767 2.91630358 2.8576792927 
2.8058000847 2.7598010554 2.718901062 4.526799744 4.426884955 4.4046155105 4.3052269283 4.2918546451 4.2807094886 
4.1588146215 4.1588146215 4.1588146215 4.1588146215 3.9875336042 4.0055183285 4.0201070968 4.0321740035 4.042318168 
3.7967995342 3.8356650183 3.8672112905 3.8932795963 3.9151549899 3.9337570603 3.5984456061 3.657329819 3.7058097288 
3.7462412737 3.7803704271 3.809500442 3.8346145692 3.4073543651 3.4813459737 3.5438565869 3.5969754326 3.6424295543 
3.6816134988 3.7156421835 3.7454049075 4.7123889804 4.8004512023 4.6243267584 4.9155579264 4.7123889804 4.5092200343 
5.0674903122 4.8353719722 4.5894059886 4.3572876485 5.2659633393 5.0120975802 4.7123889804 4.4126803806 4.1588146215 
5.5125918794 5.2659633393 4.9155579264 4.5092200343 4.1588146215 3.9121860814 5.7885595667 5.6029703303 5.2659633393 
4.7123889804 4.1588146215 3.8218076305 3.6362183941 6.0560271438 5.9702140275 5.7885595667 5.2659633393 4.1588146215 
3.6362183941 3.4545639333 3.368750817 0.22715816343 0.49462574053 0.3129712797 0.77059342779 0.68021497688 0.49462574053 
1.0172219679 1.0172219679 1.0172219679 1.0172219679 1.2156949949 1.271087727 1.3676273807 1.5707963268 2.1243706857 
1.3676273807 1.447813335 1.5707963268 1.7739652728 2.1243706857 2.6469669131 1.4827341049 1.5707963268 1.6937793186 
1.8705049266 2.1243706857 2.4613776767 2.8286213739 1.5707963268 1.6588585487 1.7739652728 1.9258976586 2.1243706857 
2.3709992258 2.6469669131 2.9144344902 1.7563855631 1.8785697967 1.8563003522 2.0024758186 1.9913306621 1.9779583789 
2.1243706857 2.1243706857 2.1243706857 2.1243706857 2.2408671392 2.2510113037 2.2630782103 2.2776669786 2.295651703 
2.3494282469 2.3680303173 2.3899057108 2.4159740166 2.4475202889 2.486385773 2.448570738 2.4736848652 2.5028148801 
2.5369440334 2.5773755784 2.6258554882 2.6847397011 2.5377803997 2.5675431237 2.6015718084 2.6407557529 2.6862098746 
2.7393287203 2.8018393335 2.8758309421 1.6743954455 1.6743954455 1.7840462375 1.6743954455 1.7840462375 1.8974821136 
1.6743954455 1.7840462375 1.8974821136 2.0119052671 1.6743954455 1.7840462375 1.8974821136 2.0119052671 2.1243706857 
1.6743954455 1.7840462375 1.8974821136 2.0119052671 2.1243706857 2.232221744 1.6743954455 1.7840462375 1.8974821136 
2.0119052671 2.1243706857 2.232221744 2.3334263672 1.6743954455 1.7840462375 1.8974821136 2.0119052671 2.1243706857 
2.232221744 2.3334263672 2.426721652 1.4671972081 1.3575464161 1.4671972081 1.24411054 1.3575464161 1.4671972081 
1.1296873865 1.24411054 1.3575464161 1.4671972081 1.0172219679 1.1296873865 1.24411054 1.3575464161 1.4671972081 
0.90937090954 1.0172219679 1.1296873865 1.24411054 1.3575464161 1.4671972081 0.80816628637 0.90937090954 1.0172219679 
1.1296873865 1.24411054 1.3575464161 1.4671972081 0.71487100155 0.80816628637 0.90937090954 1.0172219679 1.1296873865 
1.24411054 1.3575464161 1.4671972081 0.60381225391 0.57404952988 0.69302191562 0.54002084522 0.66790778838 0.79216440667 
0.50083690068 0.63877777351 0.77356233629 0.90072551443 0.45538277901 0.60464862014 0.75168694275 0.89058134991 1.0172219679 
0.40226393329 0.56421707518 0.72561863695 0.87851444325 1.0172219679 1.139116835 0.33975332011 0.51573716537 0.69407236469 
0.86392567495 1.0172219679 1.1502619915 1.2630228569 0.26576171152 0.45685295248 0.6552068806 0.84594095064 1.0172219679 
1.1636342747 1.2852923014 1.3852070904 0.22715816343 0.3129712797 0.49462574053 0.49462574053 0.68021497688 0.77059342779 
1.0172219679 1.0172219679 1.0172219679 1.0172219679 2.1243706857 1.5707963268 1.3676273807 1.271087727 1.2156949949 
2.6469669131 2.1243706857 1.7739652728 1.5707963268 1.447813335 1.3676273807 2.8286213739 2.4613776767 2.1243706857 
1.8705049266 1.6937793186 1.5707963268 1.4827341049 2.9144344902 2.6469669131 2.3709992258 2.1243706857 1.9258976586 
1.7739652728 1.6588585487 1.5707963268 1.7563855631 1.8563003522 1.8785697967 1.9779583789 1.9913306621 2.0024758186 
2.1243706857 2.1243706857 2.1243706857 2.1243706857 2.295651703 2.2776669786 2.2630782103 2.2510113037 2.2408671392 
2.486385773 2.4475202889 2.4159740166 2.3899057108 2.3680303173 2.3494282469 2.6847397011 2.6258554882 2.5773755784 
2.5369440334 2.5028148801 2.4736848652 2.448570738 2.8758309421 2.8018393335 2.7393287203 2.6862098746 2.6407557529 
2.6015718084 2.5675431237 2.5377803997 5.8604937156 5.901393709 5.9723133995 5.9473927383 6.0216547488 6.0927478736 
5.9992719463 6.0767621038 6.1501452836 6.2190157008 6.0578962336 6.1383094565 6.2134963469 0 0.064169606361 
6.1241815303 6.206940195 6.2831853072 0.069688960264 0.13304002361 0.19043743361 6.1990255847 0 0.07624511221 
0.14487585072 0.20642320337 0.26153055843 0.3108719077 0 0.084159722458 0.15900377685 0.22528907359 0.28391336087 
0.3357925689 0.38179159818 0.42269159155 5.8604937156 5.9723133995 5.901393709 6.0927478736 6.0216547488 5.9473927383 
6.2190157008 6.1501452836 6.0767621038 5.9992719463 0.064169606361 0 6.2134963469 6.1383094565 6.0578962336 
0.19043743361 0.13304002361 0.069688960264 6.2831853072 6.206940195 6.1241815303 0.3108719077 0.26153055843 0.20642320337 
0.14487585072 0.07624511221 6.2831853072 6.1990255847 0.42269159155 0.38179159818 0.3357925689 0.28391336087 0.22528907359 
0.15900377685 0.084159722458 0 5.6793730533 5.7091357773 5.5901633916 5.743164462 5.6152775188 5.4910209005 
5.7823484065 5.6444075337 5.5096229709 5.3824597928 5.8278025282 5.678536687 5.5314983644 5.3926039573 5.2659633393 
5.8809213739 5.718968232 5.5575666702 5.4046708639 5.2659633393 5.1440684722 5.9434319871 5.7674481418 5.5891129425 
5.4192596322 5.2659633393 5.1329233157 5.0201624502 6.0174235957 5.8263323547 5.6279784266 5.4372443565 5.2659633393 
5.1195510325 4.9978930058 4.8979782167 1.3852070904 1.2852923014 1.2630228569 1.1636342747 1.1502619915 1.139116835 
1.0172219679 1.0172219679 1.0172219679 1.0172219679 0.84594095064 0.86392567495 0.87851444325 0.89058134991 0.90072551443 
0.6552068806 0.69407236469 0.72561863695 0.75168694275 0.77356233629 0.79216440667 0.45685295248 0.51573716537 0.56421707518 
0.60464862014 0.63877777351 0.66790778838 0.69302191562 0.26576171152 0.33975332011 0.40226393329 0.45538277901 0.50083690068 
0.54002084522 0.57404952988 0.60381225391 
_paraPhiHalf 1 1002 double
0 3.1415926536 0 3.1415926536 1.5707963268 1.5707963268 1.5707963268 1.5707963268 2.5880182947 
0.5535743589 2.5880182947 0.5535743589 0 0 0 0 3.1415926536 3.1415926536 
3.1415926536 3.1415926536 3.1415926536 0.17788134 0.38438696014 0.60631181711 0.82323535693 1.0172219679 1.1799687454 
1.3118704726 1.4175000338 1.5022335207 0.17788134 0.38438696014 0.60631181711 0.82323535693 1.0172219679 1.1799687454 
1.3118704726 1.4175000338 1.5022335207 0.093902416448 0.17615329733 0.2478725152 0.31035131605 0.36486382811 0.41257334776 
0.45449736604 0.4915044461 0.52432611754 0.093902416448 0.17615329733 0.2478725152 0.31035131605 0.36486382811 0.41257334776 
0.45449736604 0.4915044461 0.52432611754 2.9637113136 2.7572056934 2.5352808365 2.3183572967 2.1243706857 1.9616239082 
1.829722181 1.7240926197 1.6393591329 2.9637113136 2.7572056934 2.5352808365 2.3183572967 2.1243706857 1.9616239082 
1.829722181 1.7240926197 1.6393591329 3.0476902371 2.9654393563 2.8937201384 2.8312413375 2.7767288255 2.7290193058 
2.6870952876 2.6500882075 2.617266536 3.0476902371 2.9654393563 2.8937201384 2.8312413375 2.7767288255 2.7290193058 
2.6870952876 2.6500882075 2.617266536 0 0 0 0 3.1415926536 3.1415926536 
3.1415926536 3.1415926536 3.1415926536 0.17788134 0.38438696014 0.60631181711 0.82323535693 1.0172219679 1.1799687454 
1.3118704726 1.4175000338 1.5022335207 0.17788134 0.38438696014 0.60631181711 0.82323535693 1.0172219679 1.1799687454 
1.3118704726 1.4175000338 1.5022335207 0.093902416448 0.17615329733 0.2478725152 0.31035131605 0.36486382811 0.41257334776 
0.45449736604 0.4915044461 0.52432611754 0.093902416448 0.17615329733 0.2478725152 0.31035131605 0.36486382811 0.41257334776 
0.45449736604 0.4915044461 0.52432611754 2.9637113136 2.7572056934 2.5352808365 2.3183572967 2.1243706857 1.9616239082 
1.829722181 1.7240926197 1.6393591329 2.9637113136 2.7572056934 2.5352808365 2.3183572967 2.1243706857 1.9616239082 
1.829722181 1.7240926197 1.6393591329 3.0476902371 2.9654393563 2.8937201384 2.8312413375 2.7767288255 2.7290193058 
2.6870952876 2.6500882075 2.617266536 3.0476902371 2.9654393563 2.8937201384 2.8312413375 2.7767288255 2.7290193058 
2.6870952876 2.6500882075 2.617266536 1.5707963268 1.5707963268 1.5707963268 1.5707963268 1.5707963268 1.5707963268 
1.5707963268 1.5707963268 1.5707963268 1.6743954455 1.7840462375 1.8974821136 2.0119052671 2.1243706857 2.232221744 
2.3334263672 2.426721652 2.5115728246 1.4671972081 1.3575464161 1.24411054 1.1296873865 1.0172219679 0.90937090954 
0.80816628637 0.71487100155 0.63001982895 1.6743954455 1.7840462375 1.8974821136 2.0119052671 2.1243706857 2.232221744 
2.3334263672 2.426721652 2.5115728246 1.4671972081 1.3575464161 1.24411054 1.1296873865 1.0172219679 0.90937090954 
0.80816628637 0.71487100155 0.63001982895 1.5707963268 1.5707963268 1.5707963268 1.5707963268 1.5707963268 1.5707963268 
1.5707963268 1.5707963268 1.5707963268 1.6743954455 1.7840462375 1.8974821136 2.0119052671 2.1243706857 2.232221744 
2.3334263672 2.426721652 2.5115728246 1.4671972081 1.3575464161 1.24411054 1.1296873865 1.0172219679 0.90937090954 
0.80816628637 0.71487100155 0.63001982895 1.6743954455 1.7840462375 1.8974821136 2.0119052671 2.1243706857 2.232221744 
2.3334263672 2.426721652 2.5115728246 1.4671972081 1.3575464161 1.24411054 1.1296873865 1.0172219679 0.90937090954 
0.80816628637 0.71487100155 0.63001982895 2.6824132222 2.7864913217 2.8992382033 3.0186096618 3.1415926536 3.0186096618 
2.8992382033 2.7864913217 2.6824132222 0.45917943135 0.35510133185 0.2423544503 0.12298299178 0 0.12298299178 
0.2423544503 0.35510133185 0.45917943135 0.22715816343 0.49462574053 0.3129712797 0.77059342779 0.68021497688 0.49462574053 
1.0172219679 1.0172219679 1.0172219679 1.0172219679 1.2156949949 1.271087727 1.3676273807 1.5707963268 2.1243706857 
1.3676273807 1.447813335 1.5707963268 1.7739652728 2.1243706857 2.6469669131 1.4827341049 1.5707963268 1.6937793186 
1.8705049266 2.1243706857 2.4613776767 2.8286213739 1.5707963268 1.6588585487 1.7739652728 1.9258976586 2.1243706857 
2.3709992258 2.6469669131 2.9144344902 0.26576171152 0.33975332011 0.45685295248 0.40226393329 0.51573716537 0.6552068806 
0.45538277901 0.56421707518 0.69407236469 0.84594095064 0.50083690068 0.60464862014 0.72561863695 0.86392567495 1.0172219679 
0.54002084522 0.63877777351 0.75168694275 0.87851444325 1.0172219679 1.1636342747 0.57404952988 0.66790778838 0.77356233629 
0.89058134991 1.0172219679 1.1502619915 1.2852923014 0.60381225391 0.69302191562 0.79216440667 0.90072551443 1.0172219679 
1.139116835 1.2630228569 1.3852070904 0.71487100155 0.80816628637 0.80816628637 0.90937090954 0.90937090954 0.90937090954 
1.0172219679 1.0172219679 1.0172219679 1.0172219679 1.1296873865 1.1296873865 1.1296873865 1.1296873865 1.1296873865 
1.24411054 1.24411054 1.24411054 1.24411054 1.24411054 1.24411054 1.3575464161 1.3575464161 1.3575464161 
1.3575464161 1.3575464161 1.3575464161 1.3575464161 1.4671972081 1.4671972081 1.4671972081 1.4671972081 1.4671972081 
1.4671972081 1.4671972081 1.4671972081 1.6743954455 1.6743954455 1.7840462375 1.6743954455 1.7840462375 1.8974821136 
1.6743954455 1.7840462375 1.8974821136 2.0119052671 1.6743954455 1.7840462375 1.8974821136 2.0119052671 2.1243706857 
1.6743954455 1.7840462375 1.8974821136 2.0119052671 2.1243706857 2.232221744 1.6743954455 1.7840462375 1.8974821136 
2.0119052671 2.1243706857 2.232221744 2.3334263672 1.6743954455 1.7840462375 1.8974821136 2.0119052671 2.1243706857 
2.232221744 2.3334263672 2.426721652 1.7563855631 1.8785697967 1.8563003522 2.0024758186 1.9913306621 1.9779583789 
2.1243706857 2.1243706857 2.1243706857 2.1243706857 2.2408671392 2.2510113037 2.2630782103 2.2776669786 2.295651703 
2.3494282469 2.3680303173 2.3899057108 2.4159740166 2.4475202889 2.486385773 2.448570738 2.4736848652 2.5028148801 
2.5369440334 2.5773755784 2.6258554882 2.6847397011 2.5377803997 2.5675431237 2.6015718084 2.6407557529 2.6862098746 
2.7393287203 2.8018393335 2.8758309421 2.718901062 2.8307207459 2.7598010554 2.95115522 2.8800620952 2.8058000847 
3.0774230472 3.00855263 2.9351694502 2.8576792927 3.0774230472 3.1415926536 3.0719036933 2.9967168029 2.91630358 
2.95115522 3.00855263 3.0719036933 3.1415926536 3.0653475414 2.9825888767 2.8307207459 2.8800620952 2.9351694502 
2.9967168029 3.0653475414 3.1415926536 3.0574329311 2.718901062 2.7598010554 2.8058000847 2.8576792927 2.91630358 
2.9825888767 3.0574329311 3.1415926536 2.718901062 2.7598010554 2.8307207459 2.8058000847 2.8800620952 2.95115522 
2.8576792927 2.9351694502 3.00855263 3.0774230472 2.91630358 2.9967168029 3.0719036933 3.1415926536 3.0774230472 
2.9825888767 3.0653475414 3.1415926536 3.0719036933 3.00855263 2.95115522 3.0574329311 3.1415926536 3.0653475414 