# vtk DataFile Version 5.1
vtk output
ASCII
DATASET POLYDATA
POINTS 1002 float
23.0154 45.6054 14.1533 13.2658 39.68 17.245 23.3097 42.1181 8.24072 
16.0662 34.5382 9.15412 14.4614 45.9838 11.6621 15.7533 43.4417 6.40433 
22.0673 38.9159 17.2828 23.361 35.855 12.8977 9.48905 37.6292 11.9742 
23.1733 49.983 9.06513 13.7493 32.9683 17.8074 29.9058 44.1523 13.4974 
22.0299 45.186 14.4921 20.9644 44.6879 14.8433 19.9499 44.0597 15.0583 
18.9955 43.3162 15.1349 18.0053 42.5683 15.2782 16.926 41.9287 15.6647 
15.8131 41.4 16.2156 14.7827 40.8899 16.7185 13.9289 40.3171 17.0571 
22.1043 45.846 14.1111 21.0976 46.0576 13.9946 20.217 46.134 13.6535 
19.5003 46.0386 13.1304 18.698 45.9315 12.6912 17.6545 45.999 12.4856 
16.578 46.166 12.3616 15.7121 46.2214 12.1583 15.0462 46.1233 11.9028 
23.2132 45.1074 14.4448 23.3213 44.5803 14.8252 23.3749 44.0115 15.1775 
23.3859 43.332 15.4226 23.3131 42.5254 15.6877 23.1106 41.7355 16.1329 
22.808 41.0831 16.6656 22.504 40.4671 17.0658 22.2641 39.7373 17.2533 
23.3711 46.1652 13.8617 23.5762 46.7229 13.5837 23.5949 47.32 13.2502 
23.5173 48.0944 12.8953 23.4914 48.9954 12.5962 23.5599 49.6995 12.2402 
23.6311 50.0136 11.6079 23.5994 50.0732 10.7137 23.4336 50.0544 9.80172 
24.0132 45.7453 14.1022 24.8042 46.0502 14.4106 25.4879 46.5395 15.1185 
26.4159 46.9607 15.7818 27.6257 46.956 15.9013 28.635 46.4419 15.563 
29.1594 45.6787 15.1539 29.4515 44.9814 14.7314 29.7359 44.4865 14.1625 
13.0948 40.2595 16.883 13.021 40.8344 16.3649 13.0284 41.4884 15.7981 
13.0445 42.2781 15.3014 13.051 43.1116 14.8048 13.1588 43.8376 14.1517 
13.4575 44.4288 13.3925 13.8602 44.9619 12.7103 14.2122 45.4837 12.1563 
13.8971 39.4879 17.4303 14.6415 39.3463 17.6163 15.4915 39.3013 17.8295 
16.4283 39.2538 18.0208 17.3695 39.0537 18.0394 18.2398 38.7647 17.7563 
19.1017 38.6203 17.2806 20.0628 38.6933 16.9404 21.0955 38.8384 16.964 
12.5455 39.373 17.1802 11.8301 39.0098 17.0334 11.1804 38.6091 16.7514 
10.6115 38.3029 16.3464 10.0165 38.2299 15.8563 9.3743 38.3044 15.2118 
8.93189 38.2874 14.3482 8.90033 38.0961 13.4062 9.16852 37.84 12.5961 
13.0607 38.8122 17.4541 12.8728 37.8205 17.632 12.611 36.9328 17.9317 
12.2282 36.2911 18.4102 11.8388 35.6707 18.8903 11.6713 34.778 19.1571 
11.8715 33.7881 19.1649 12.3929 33.1361 18.9352 13.0702 32.9374 18.4661 
22.7401 41.4416 8.24489 22.1677 40.7131 8.2548 21.5825 39.8963 8.2035 
20.9415 38.9372 8.09451 20.2563 37.8942 8.04091 19.5574 36.9416 8.13978 
18.7961 36.1779 8.36518 17.9185 35.5558 8.63678 16.9741 35.0112 8.9053 
22.8545 42.1512 7.74802 22.2789 42.2546 7.31276 21.6356 42.4736 6.94043 
20.9715 42.7384 6.58787 20.1895 42.9113 6.2659 19.1689 42.9604 6.05492 
18.0304 42.9928 5.98671 17.0389 43.1 6.02735 16.3036 43.2708 6.16317 
23.3658 41.6358 8.7445 23.5118 40.9701 9.15245 23.7973 40.1144 9.37955 
24.051 39.2349 9.61536 24.0365 38.5161 10.1443 23.7975 37.9554 10.9252 
23.5892 37.4337 11.6359 23.504 36.8988 12.1145 23.4471 36.3681 12.4793 
23.6184 42.8131 7.97053 23.8341 43.6006 7.85373 23.8585 44.5093 7.97024 
23.7559 45.5068 8.17561 23.6895 46.4998 8.24449 23.6917 47.4269 8.19234 
23.6609 48.2916 8.22367 23.5509 49.0617 8.42018 23.3876 49.6431 8.71741 
23.9091 42.5223 8.61701 24.5252 42.925 9.07819 25.227 43.2485 9.54148 
26.1019 43.4501 9.94952 27.0857 43.5607 10.3306 28.0253 43.6489 10.7276 
28.8545 43.7715 11.1884 29.514 43.9339 11.8073 29.8794 44.0798 12.6154 
15.8195 35.0503 8.87425 15.584 35.6205 8.5513 15.4205 36.368 8.20009 
15.3941 37.3727 7.89437 15.4753 38.5097 7.70291 15.536 39.5862 7.53663 
15.5146 40.5793 7.23111 15.4998 41.5599 6.82318 15.5865 42.5284 6.51561 
16.898 34.283 9.27814 17.8538 33.9919 9.42935 18.928 33.7139 9.60989 
20.0028 33.5401 9.86859 20.8891 33.5749 10.3299 21.5449 33.8496 11.0134 
22.0967 34.2831 11.7083 22.607 34.7818 12.2165 23.031 35.3124 12.5689 
15.0151 34.4249 9.2438 13.9371 34.3701 9.38636 12.9494 34.4282 9.60804 
12.1757 34.6385 9.90418 11.6015 35.0165 10.3058 11.0828 35.5033 10.8496 
10.564 35.9882 11.3994 10.1121 36.4571 11.7389 9.75942 36.9963 11.8666 
15.6715 33.9481 9.47896 15.2708 33.394 9.86553 14.9091 33.0293 10.4525 
14.6424 32.9356 11.4098 14.467 32.9903 12.6747 14.2934 33.0301 13.9311 
14.0659 33.0488 14.9967 13.849 33.0731 15.9716 13.7357 33.0509 16.9397 
14.2384 46.2288 11.1601 14.0697 46.5174 10.5096 14.04 46.753 9.69139 
14.1671 46.7587 8.80777 14.4193 46.4551 8.0916 14.767 45.9514 7.65975 
15.1336 45.3802 7.35602 15.4096 44.7653 7.00664 15.5854 44.1027 6.64779 
13.669 45.5704 11.7401 12.6916 45.192 11.7885 11.7668 44.7224 11.7132 
11.2271 43.9022 11.5547 11.0091 42.7084 11.5162 10.7019 41.488 11.6446 
10.1792 40.4819 11.7376 9.70488 39.5609 11.7203 9.48352 38.5829 11.7588 
15.0356 46.5672 11.3003 15.7602 47.1392 10.8908 16.7392 47.672 10.4881 
17.7655 48.2495 10.1818 18.5293 48.9056 9.93355 19.1587 49.5027 9.6126 
20.0537 49.9067 9.25861 21.2294 50.114 9.05054 22.3428 50.1433 9.02619 
15.0651 43.001 6.76393 14.248 42.4381 7.18871 13.4947 41.7717 7.66085 
12.8958 41.0734 8.21115 12.2083 40.3941 8.80817 11.2834 39.7395 9.34921 
10.4335 39.1167 9.85733 9.94794 38.5464 10.471 9.7082 38.0465 11.2138 
16.2098 44.2792 6.22377 16.6648 45.2822 6.10231 17.3174 46.4607 6.00543 
18.2997 47.6219 5.92319 19.3781 48.5113 5.9839 20.2066 49.1044 6.35516 
20.8349 49.5354 6.99812 21.5459 49.839 7.71778 22.3847 49.9802 8.40586 
22.5169 38.3929 17.4654 22.903 37.888 17.4491 23.1335 37.4697 17.1091 
23.2692 37.0756 16.5514 23.4237 36.6415 16.0606 23.5637 36.2553 15.6809 
23.5961 36.0294 15.1431 23.5432 35.936 14.3471 23.4657 35.8874 13.5234 
21.2146 38.0082 17.0813 20.2886 37.0741 17.1888 19.5578 36.2684 17.7009 
19.1039 35.5503 18.3364 18.6152 34.7324 18.7237 17.7619 33.8526 18.8292 
16.6323 33.1977 18.8045 15.5232 32.9143 18.6484 14.5672 32.8929 18.2996 
23.0339 39.4222 17.7417 23.8659 39.8753 18.0267 24.7156 40.4103 17.8073 
25.7491 41.1561 17.1931 26.7895 41.9863 16.608 27.5794 42.6512 16.2033 
28.2339 43.1173 15.7529 28.9427 43.5101 15.0901 29.5769 43.8688 14.2875 
23.1166 34.9404 13.2258 22.9155 33.9606 13.7085 22.612 33.1881 14.2889 
21.8919 32.8855 14.8266 20.5266 32.9761 15.252 18.7688 33.0995 15.6601 
17.162 33.0709 16.1745 15.9185 32.9947 16.7786 14.8441 32.9692 17.3517 
23.8196 36.7144 12.965 24.5702 37.5554 13.0379 25.5835 38.3324 13.0859 
26.4819 39.0698 13.1624 26.9 39.911 13.3376 27.1217 40.9865 13.5009 
27.7557 42.1545 13.485 28.7804 43.098 13.3659 29.6119 43.7081 13.3529 
9.40726 36.8499 12.6572 9.3622 36.1012 13.3577 9.36639 35.3341 14.0076 
9.37704 34.4304 14.7007 9.33623 33.49 15.5555 9.41497 32.8868 16.4466 
9.97599 32.7865 17.1155 11.1057 32.9222 17.4932 12.4808 32.9965 17.6922 
23.9793 49.7027 9.46967 24.7084 49.194 9.83354 25.5309 48.5036 10.2022 
26.5267 47.835 10.6765 27.4574 47.3158 11.3006 28.1148 46.7858 11.9693 
28.6719 46.0705 12.5129 29.2963 45.2829 12.8836 29.7963 44.63 13.1787 
21.0766 45.3396 14.3628 20.172 45.4308 14.0846 20.0696 44.6853 14.5476 
19.3951 45.4347 13.6668 19.244 44.7045 14.1977 19.1036 43.9679 14.6982 
18.5631 45.393 13.2607 18.384 44.779 13.9131 18.1947 44.0622 14.5025 
18.0751 43.3056 14.933 17.498 45.4235 13.0021 17.336 44.8636 13.6939 
17.1502 44.2576 14.4382 16.9995 43.5291 14.9755 16.9451 42.7082 15.3113 
16.3822 45.5458 12.8307 16.2093 44.926 13.4537 16.0526 44.3459 14.2616 
15.9058 43.7122 14.9756 15.8145 42.9361 15.4176 15.8011 42.1104 15.7703 
15.496 45.6227 12.622 15.2649 44.9628 13.1738 15.0688 44.3276 13.9308 
14.9284 43.707 14.7315 14.8212 43.0047 15.3215 14.7511 42.2274 15.7536 
14.7402 41.5 16.2183 14.8268 45.5778 12.3798 14.5315 44.969 12.9168 
14.2292 44.3443 13.6177 14.0302 43.704 14.4055 13.9366 42.994 15.0586 
13.8675 42.2287 15.5556 13.8131 41.511 16.0604 13.8268 40.8888 16.5994 
22.3503 46.4535 13.8165 22.4323 47.0735 13.4767 21.2242 46.7126 13.6761 
22.368 47.8048 13.0695 21.2275 47.3917 13.2641 20.3058 46.7649 13.2392 
22.3035 48.7 12.699 21.1743 48.1862 12.806 20.3346 47.4398 12.748 
19.618 46.6092 12.6252 22.3654 49.5091 12.3593 21.1735 49.0134 12.3906 
20.3341 48.2135 12.2545 19.6998 47.2812 12.0982 18.816 46.5157 12.1821 
22.5092 49.9461 11.8019 21.2434 49.5954 11.8837 20.2962 48.9356 11.763 
19.6902 48.0425 11.5671 18.8965 47.2111 11.6283 17.737 46.6298 11.9826 
22.5897 50.0807 10.9044 21.307 49.8655 11.0698 20.2077 49.4226 11.1177 
19.5373 48.7198 11.0192 18.8589 47.9164 11.0304 17.7968 47.2651 11.3547 
16.6299 46.7556 11.8087 22.5244 50.1307 9.88769 21.3004 50.0084 10.0305 
20.1095 49.7123 10.2369 19.3154 49.1972 10.3881 18.7012 48.4955 10.4788 
17.7972 47.8129 10.7064 16.677 47.2556 11.1255 15.7311 46.7154 11.5611 
21.3974 50.1152 8.2635 20.5041 49.938 7.51005 20.2384 50.0368 8.28252 
19.7636 49.5833 6.78518 19.4014 49.777 7.57755 19.1949 49.7222 8.6241 
18.9657 49.0962 6.20053 18.6206 49.3511 6.91068 18.4426 49.354 8.05734 
18.427 49.1889 9.16978 17.9456 48.4118 5.92026 17.6564 48.8325 6.36013 
17.5481 48.9244 7.44209 17.5867 48.8054 8.72023 17.6694 48.5623 9.6348 
16.9872 47.406 5.96351 16.6744 48.0955 6.12929 16.5133 48.4439 6.88272 
16.5384 48.4806 8.12115 16.6182 48.2871 9.24643 16.6729 47.9848 9.96504 
16.3916 46.2005 6.18382 16.0624 47.0318 6.29464 15.7515 47.6607 6.69095 
15.593 48.0094 7.57506 15.5737 48.027 8.69865 15.593 47.7778 9.63615 
15.6456 47.4413 10.3135 16.0165 45.0652 6.43268 15.7591 45.842 6.67026 
15.4021 46.5426 6.94338 15.0568 47.1144 7.423 14.8386 47.4483 8.23158 
14.7401 47.4436 9.19432 14.7411 47.1774 10.0495 14.852 46.8474 10.7336 
13.4276 45.8138 11.148 13.3179 46.0296 10.3496 12.5085 45.3588 11.0229 
13.4193 46.047 9.43204 12.5422 45.3748 10.0857 11.7283 44.7028 10.7789 
13.6958 45.7507 8.67019 12.8061 45.094 9.23571 11.9038 44.4633 9.86016 
11.2833 43.6771 10.6174 14.0571 45.25 8.25117 13.1946 44.5729 8.75009 
12.2563 43.9687 9.2581 11.4596 43.2819 9.8957 10.9843 42.408 10.7099 
14.4198 44.7269 7.98399 13.5806 44.0273 8.51026 12.69 43.3737 8.97804 
11.7921 42.731 9.50387 11.0479 41.9963 10.1374 10.5601 41.2033 10.8927 
14.6989 44.2042 7.59167 13.8715 43.5343 8.14924 13.0728 42.8253 8.66146 
[...]
POINT_DATA 1002
FIELD FieldData 4
_paraPhi 1 1002 double
6.2831853072 3.1415926536 6.2831853072 3.1415926536 4.7123889804 4.7123889804 1.5707963268 1.5707963268 3.6951670125 
5.7296109483 2.5880182947 0.5535743589 6.2831853072 6.2831853072 6.2831853072 6.2831853072 3.1415926536 3.1415926536 
3.1415926536 3.1415926536 3.1415926536 6.1053039672 5.898798347 5.6768734901 5.4599499503 5.2659633393 5.1032165617 
4.9713148346 4.8656852733 4.7809517865 0.17788134 0.38438696014 0.60631181711 0.82323535693 1.0172219679 1.1799687454 
1.3118704726 1.4175000338 1.5022335207 6.1892828907 6.1070320098 6.035312792 5.9728339911 5.9183214791 5.8706119594 
5.8286879411 5.7916808611 5.7588591896 0.093902416448 0.17615329733 0.2478725152 0.31035131605 0.36486382811 0.41257334776 
0.45449736604 0.4915044461 0.52432611754 3.3194739936 3.5259796137 3.7479044707 3.9648280105 4.1588146215 4.321561399 
4.4534631262 4.5590926874 4.6438261743 2.9637113136 2.7572056934 2.5352808365 2.3183572967 2.1243706857 1.9616239082 
1.829722181 1.7240926197 1.6393591329 3.23549507 3.3177459509 3.3894651688 3.4519439696 3.5064564817 3.5541660013 
3.5960900196 3.6330970997 3.6659187711 3.0476902371 2.9654393563 2.8937201384 2.8312413375 2.7767288255 2.7290193058 
2.6870952876 2.6500882075 2.617266536 6.2831853072 6.2831853072 6.2831853072 6.2831853072 3.1415926536 3.1415926536 
3.1415926536 3.1415926536 3.1415926536 6.1053039672 5.898798347 5.6768734901 5.4599499503 5.2659633393 5.1032165617 
4.9713148346 4.8656852733 4.7809517865 0.17788134 0.38438696014 0.60631181711 0.82323535693 1.0172219679 1.1799687454 
1.3118704726 1.4175000338 1.5022335207 6.1892828907 6.1070320098 6.035312792 5.9728339911 5.9183214791 5.8706119594 
5.8286879411 5.7916808611 5.7588591896 0.093902416448 0.17615329733 0.2478725152 0.31035131605 0.36486382811 0.41257334776 
0.45449736604 0.4915044461 0.52432611754 3.3194739936 3.5259796137 3.7479044707 3.9648280105 4.1588146215 4.321561399 
4.4534631262 4.5590926874 4.6438261743 2.9637113136 2.7572056934 2.5352808365 2.3183572967 2.1243706857 1.9616239082 
1.829722181 1.7240926197 1.6393591329 3.23549507 3.3177459509 3.3894651688 3.4519439696 3.5064564817 3.5541660013 
3.5960900196 3.6330970997 3.6659187711 3.0476902371 2.9654393563 2.8937201384 2.8312413375 2.7767288255 2.7290193058 
2.6870952876 2.6500882075 2.617266536 4.7123889804 4.7123889804 4.7123889804 4.7123889804 4.7123889804 4.7123889804 
4.7123889804 4.7123889804 4.7123889804 4.6087898617 4.4991390697 4.3857031936 4.2712800401 4.1588146215 4.0509635631 
3.94975894 3.8564636551 3.7716124825 4.8159880991 4.9256388911 5.0390747672 5.1534979207 5.2659633393 5.3738143976 
5.4750190208 5.5683143056 5.6531654782 4.6087898617 4.4991390697 4.3857031936 4.2712800401 4.1588146215 4.0509635631 
3.94975894 3.8564636551 3.7716124825 4.8159880991 4.9256388911 5.0390747672 5.1534979207 5.2659633393 5.3738143976 
5.4750190208 5.5683143056 5.6531654782 1.5707963268 1.5707963268 1.5707963268 1.5707963268 1.5707963268 1.5707963268 
1.5707963268 1.5707963268 1.5707963268 1.6743954455 1.7840462375 1.8974821136 2.0119052671 2.1243706857 2.232221744 
2.3334263672 2.426721652 2.5115728246 1.4671972081 1.3575464161 1.24411054 1.1296873865 1.0172219679 0.90937090954 
0.80816628637 0.71487100155 0.63001982895 1.6743954455 1.7840462375 1.8974821136 2.0119052671 2.1243706857 2.232221744 
2.3334263672 2.426721652 2.5115728246 1.4671972081 1.3575464161 1.24411054 1.1296873865 1.0172219679 0.90937090954 
0.80816628637 0.71487100155 0.63001982895 3.6007720849 3.4966939854 3.3839471039 3.2645756454 3.1415926536 3.0186096618 
2.8992382033 2.7864913217 2.6824132222 5.8240058758 5.9280839753 6.0408308569 6.1602023154 6.2831853072 0.12298299178 
0.2423544503 0.35510133185 0.45917943135 6.0560271438 5.7885595667 5.9702140275 5.5125918794 5.6029703303 5.7885595667 
5.2659633393 5.2659633393 5.2659633393 5.2659633393 5.0674903122 5.0120975802 4.9155579264 4.7123889804 4.1588146215 
4.9155579264 4.8353719722 4.7123889804 4.5092200343 4.1588146215 3.6362183941 4.8004512023 4.7123889804 4.5894059886 
4.4126803806 4.1588146215 3.8218076305 3.4545639333 4.7123889804 4.6243267584 4.5092200343 4.3572876485 4.1588146215 
3.9121860814 3.6362183941 3.368750817 6.0174235957 5.9434319871 5.8263323547 5.8809213739 5.7674481418 5.6279784266 
5.8278025282 5.718968232 5.5891129425 5.4372443565 5.7823484065 5.678536687 5.5575666702 5.4192596322 5.2659633393 
5.743164462 5.6444075337 5.5314983644 5.4046708639 5.2659633393 5.1195510325 5.7091357773 5.6152775188 5.5096229709 
5.3926039573 5.2659633393 5.1329233157 4.9978930058 5.6793730533 5.5901633916 5.4910209005 5.3824597928 5.2659633393 
5.1440684722 5.0201624502 4.8979782167 5.5683143056 5.4750190208 5.4750190208 5.3738143976 5.3738143976 5.3738143976 
5.2659633393 5.2659633393 5.2659633393 5.2659633393 5.1534979207 5.1534979207 5.1534979207 5.1534979207 5.1534979207 
5.0390747672 5.0390747672 5.0390747672 5.0390747672 5.0390747672 5.0390747672 4.9256388911 4.9256388911 4.9256388911 
4.9256388911 4.9256388911 4.9256388911 4.9256388911 4.8159880991 4.8159880991 4.8159880991 4.8159880991 4.8159880991 
4.8159880991 4.8159880991 4.8159880991 4.6087898617 4.6087898617 4.4991390697 4.6087898617 4.4991390697 4.3857031936 
4.6087898617 4.4991390697 4.3857031936 4.2712800401 4.6087898617 4.4991390697 4.3857031936 4.2712800401 4.1588146215 
4.6087898617 4.4991390697 4.3857031936 4.2712800401 4.1588146215 4.0509635631 4.6087898617 4.4991390697 4.3857031936 
4.2712800401 4.1588146215 4.0509635631 3.94975894 4.6087898617 4.4991390697 4.3857031936 4.2712800401 4.1588146215 
4.0509635631 3.94975894 3.8564636551 4.526799744 4.4046155105 4.426884955 4.2807094886 4.2918546451 4.3052269283 
4.1588146215 4.1588146215 4.1588146215 4.1588146215 4.042318168 4.0321740035 4.0201070968 4.0055183285 3.9875336042 
3.9337570603 3.9151549899 3.8932795963 3.8672112905 3.8356650183 3.7967995342 3.8346145692 3.809500442 3.7803704271 
3.7462412737 3.7058097288 3.657329819 3.5984456061 3.7454049075 3.7156421835 3.6816134988 3.6424295543 3.5969754326 
3.5438565869 3.4813459737 3.4073543651 3.5642842451 3.4524645613 3.5233842518 3.3320300872 3.403123212 3.4773852225 
3.20576226 3.2746326772 3.348015857 3.4255060145 3.0774230472 3.1415926536 3.2112816139 3.2864685043 3.3668817272 
2.95115522 3.00855263 3.0719036933 3.1415926536 3.2178377658 3.3005964304 2.8307207459 2.8800620952 2.9351694502 
2.9967168029 3.0653475414 3.1415926536 3.225752376 2.718901062 2.7598010554 2.8058000847 2.8576792927 2.91630358 
2.9825888767 3.0574329311 3.1415926536 3.5642842451 3.5233842518 3.4524645613 3.4773852225 3.403123212 3.3320300872 
3.4255060145 3.348015857 3.2746326772 3.20576226 3.3668817272 3.2864685043 3.2112816139 3.1415926536 3.0774230472 
3.3005964304 3.2178377658 3.1415926536 3.0719036933 3.00855263 2.95115522 3.225752376 3.1415926536 3.0653475414 
2.9967168029 2.9351694502 2.8800620952 2.8307207459 3.1415926536 3.0574329311 2.9825888767 2.91630358 2.8576792927 
2.8058000847 2.7598010554 2.718901062 4.526799744 4.426884955 4.4046155105 4.3052269283 4.2918546451 4.2807094886 
4.1588146215 4.1588146215 4.1588146215 4.1588146215 3.9875336042 4.0055183285 4.0201070968 4.0321740035 4.042318168 
3.7967995342 3.8356650183 3.8672112905 3.8932795963 3.9151549899 3.9337570603 3.5984456061 3.657329819 3.7058097288 
3.7462412737 3.7803704271 3.809500442 3.8346145692 3.4073543651 3.4813459737 3.5438565869 3.5969754326 3.6424295543 
3.6816134988 3.7156421835 3.7454049075 4.7123889804 4.8004512023 4.6243267584 4.9155579264 4.7123889804 4.5092200343 
5.0674903122 4.8353719722 4.5894059886 4.3572876485 5.2659633393 5.0120975802 4.7123889804 4.4126803806 4.1588146215 
5.5125918794 5.2659633393 4.9155579264 4.5092200343 4.1588146215 3.9121860814 5.7885595667 5.6029703303 5.2659633393 
4.7123889804 4.1588146215 3.8218076305 3.6362183941 6.0560271438 5.9702140275 5.7885595667 5.2659633393 4.1588146215 
3.6362183941 3.4545639333 3.368750817 0.22715816343 0.49462574053 0.3129712797 0.77059342779 0.68021497688 0.49462574053 
1.0172219679 1.0172219679 1.0172219679 1.0172219679 1.2156949949 1.271087727 1.3676273807 1.5707963268 2.1243706857 
1.3676273807 1.447813335 1.5707963268 1.7739652728 2.1243706857 2.6469669131 1.4827341049 1.5707963268 1.6937793186 
1.8705049266 2.1243706857 2.4613776767 2.8286213739 1.5707963268 1.6588585487 1.7739652728 1.9258976586 2.1243706857 
2.3709992258 2.6469669131 2.9144344902 1.7563855631 1.8785697967 1.8563003522 2.0024758186 1.9913306621 1.9779583789 
2.1243706857 2.1243706857 2.1243706857 2.1243706857 2.2408671392 2.2510113037 2.2630782103 2.2776669786 2.295651703 
2.3494282469 2.3680303173 2.3899057108 2.4159740166 2.4475202889 2.486385773 2.448570738 2.4736848652 2.5028148801 
2.5369440334 2.5773755784 2.6258554882 2.6847397011 2.5377803997 2.5675431237 2.6015718084 2.6407557529 2.6862098746 
2.7393287203 2.8018393335 2.8758309421 1.6743954455 1.6743954455 1.7840462375 1.6743954455 1.7840462375 1.8974821136 
1.6743954455 1.7840462375 1.8974821136 2.0119052671 1.6743954455 1.7840462375 1.8974821136 2.0119052671 2.1243706857 
1.6743954455 1.7840462375 1.8974821136 2.0119052671 2.1243706857 2.232221744 1.6743954455 1.7840462375 1.8974821136 
2.0119052671 2.1243706857 2.232221744 2.3334263672 1.6743954455 1.7840462375 1.8974821136 2.0119052671 2.1243706857 
2.232221744 2.3334263672 2.426721652 1.4671972081 1.3575464161 1.4671972081 1.24411054 1.3575464161 1.4671972081 
1.1296873865 1.24411054 1.3575464161 1.4671972081 1.0172219679 1.1296873865 1.24411054 1.3575464161 1.4671972081 
0.90937090954 1.0172219679 1.1296873865 1.24411054 1.3575464161 1.4671972081 0.80816628637 0.90937090954 1.0172219679 
1.1296873865 1.24411054 1.3575464161 1.4671972081 0.71487100155 0.80816628637 0.90937090954 1.0172219679 1.1296873865 
1.24411054 1.3575464161 1.4671972081 0.60381225391 0.57404952988 0.69302191562 0.54002084522 0.66790778838 0.79216440667 
0.50083690068 0.63877777351 0.77356233629 0.90072551443 0.45538277901 0.60464862014 0.75168694275 0.89058134991 1.0172219679 
0.40226393329 0.56421707518 0.72561863695 0.87851444325 1.0172219679 1.139116835 0.33975332011 0.51573716537 0.69407236469 
0.86392567495 1.0172219679 1.1502619915 1.2630228569 0.26576171152 0.45685295248 0.6552068806 0.84594095064 1.0172219679 
1.1636342747 1.2852923014 1.3852070904 0.22715816343 0.3129712797 0.49462574053 0.49462574053 0.68021497688 0.77059342779 
1.0172219679 1.0172219679 1.0172219679 1.0172219679 2.1243706857 1.5707963268 1.3676273807 1.271087727 1.2156949949 
2.6469669131 2.1243706857 1.7739652728 1.5707963268 1.447813335 1.3676273807 2.8286213739 2.4613776767 2.1243706857 
1.8705049266 1.6937793186 1.5707963268 1.4827341049 2.9144344902 2.6469669131 2.3709992258 2.1243706857 1.9258976586 
1.7739652728 1.6588585487 1.5707963268 1.7563855631 1.8563003522 1.8785697967 1.9779583789 1.9913306621 2.0024758186 
2.1243706857 2.1243706857 2.1243706857 2.1243706857 2.295651703 2.2776669786 2.2630782103 2.2510113037 2.2408671392 
2.486385773 2.4475202889 2.4159740166 2.3899057108 2.3680303173 2.3494282469 2.6847397011 2.6258554882 2.5773755784 
2.5369440334 2.5028148801 2.4736848652 2.448570738 2.8758309421 2.8018393335 2.7393287203 2.6862098746 2.6407557529 
2.6015718084 2.5675431237 2.5377803997 5.8604937156 5.901393709 5.9723133995 5.9473927383 6.0216547488 6.0927478736 
5.9992719463 6.0767621038 6.1501452836 6.2190157008 6.0578962336 6.1383094565 6.2134963469 0 0.064169606361 
6.1241815303 6.206940195 6.2831853072 0.069688960264 0.13304002361 0.19043743361 6.1990255847 0 0.07624511221 
0.14487585072 0.20642320337 0.26153055843 0.3108719077 0 0.084159722458 0.15900377685 0.22528907359 0.28391336087 
0.3357925689 0.38179159818 0.42269159155 5.8604937156 5.9723133995 5.901393709 6.0927478736 6.0216547488 5.9473927383 
6.2190157008 6.1501452836 6.0767621038 5.9992719463 0.064169606361 0 6.2134963469 6.1383094565 6.0578962336 
0.19043743361 0.13304002361 0.069688960264 6.2831853072 6.206940195 6.1241815303 0.3108719077 0.26153055843 0.20642320337 
0.14487585072 0.07624511221 6.2831853072 6.1990255847 0.42269159155 0.38179159818 0.3357925689 0.28391336087 0.22528907359 
0.15900377685 0.084159722458 0 5.6793730533 5.7091357773 5.5901633916 5.743164462 5.6152775188 5.4910209005 
5.7823484065 5.6444075337 5.5096229709 5.3824597928 5.8278025282 5.678536687 5.5314983644 5.3926039573 5.2659633393 
5.8809213739 5.718968232 5.5575666702 5.4046708639 5.2659633393 5.1440684722 5.9434319871 5.7674481418 5.5891129425 
5.4192596322 5.2659633393 5.1329233157 5.0201624502 6.0174235957 5.8263323547 5.6279784266 5.4372443565 5.2659633393 
5.1195510325 4.9978930058 4.8979782167 1.3852070904 1.2852923014 1.2630228569 1.1636342747 1.1502619915 1.139116835 
1.0172219679 1.0172219679 1.0172219679 1.0172219679 0.84594095064 0.86392567495 0.87851444325 0.89058134991 0.90072551443 
0.6552068806 0.69407236469 0.72561863695 0.75168694275 0.77356233629 0.79216440667 0.45685295248 0.51573716537 0.56421707518 
0.60464862014 0.63877777351 0.66790778838 0.69302191562 0.26576171152 0.33975332011 0.40226393329 0.45538277901 0.50083690068 
0.54002084522 0.57404952988 0.60381225391 
_paraPhiHalf 1 1002 double
0 3.1415926536 0 3.1415926536 1.5707963268 1.5707963268 1.5707963268 1.5707963268 2.5880182947 
0.5535743589 2.5880182947 0.5535743589 0 0 0 0 3.1415926536 3.1415926536 
3.1415926536 3.1415926536 3.1415926536 0.17788134 0.38438696014 0.60631181711 0.82323535693 1.0172219679 1.1799687454 
1.3118704726 1.4175000338 1.5022335207 0.17788134 0.38438696014 0.60631181711 0.82323535693 1.0172219679 1.1799687454 
1.3118704726 1.4175000338 1.5022335207 0.093902416448 0.17615329733 0.2478725152 0.31035131605 0.36486382811 0.41257334776 
0.45449736604 0.4915044461 0.52432611754 0.093902416448 0.17615329733 0.2478725152 0.31035131605 0.36486382811 0.41257334776 
0.45449736604 0.4915044461 0.52432611754 2.9637113136 2.7572056934 2.5352808365 2.3183572967 2.1243706857 1.9616239082 
1.829722181 1.7240926197 1.6393591329 2.9637113136 2.7572056934 2.5352808365 2.3183572967 2.1243706857 1.9616239082 
1.829722181 1.7240926197 1.6393591329 3.0476902371 2.9654393563 2.8937201384 2.8312413375 2.7767288255 2.7290193058 
2.6870952876 2.6500882075 2.617266536 3.0476902371 2.9654393563 2.8937201384 2.8312413375 2.7767288255 2.7290193058 
2.6870952876 2.6500882075 2.617266536 0 0 0 0 3.1415926536 3.1415926536 
3.1415926536 3.1415926536 3.1415926536 0.17788134 0.38438696014 0.60631181711 0.82323535693 1.0172219679 1.1799687454 
1.3118704726 1.4175000338 1.5022335207 0.17788134 0.38438696014 0.60631181711 0.82323535693 1.0172219679 1.1799687454 
1.3118704726 1.4175000338 1.5022335207 0.093902416448 0.17615329733 0.2478725152 0.31035131605 0.36486382811 0.41257334776 
0.45449736604 0.4915044461 0.52432611754 0.093902416448 0.17615329733 0.2478725152 0.31035131605 0.36486382811 0.41257334776 
0.45449736604 0.4915044461 0.52432611754 2.9637113136 2.7572056934 2.5352808365 2.3183572967 2.1243706857 1.9616239082 
1.829722181 1.7240926197 1.6393591329 2.9637113136 2.7572056934 2.5352808365 2.3183572967 2.1243706857 1.9616239082 
1.829722181 1.7240926197 1.6393591329 3.0476902371 2.9654393563 2.8937201384 2.8312413375 2.7767288255 2.7290193058 
2.6870952876 2.6500882075 2.617266536 3.0476902371 2.9654393563 2.8937201384 2.8312413375 2.7767288255 2.7290193058 
2.6870952876 2.6500882075 2.617266536 1.5707963268 1.5707963268 1.5707963268 1.5707963268 1.5707963268 1.5707963268 
1.5707963268 1.5707963268 1.5707963268 1.6743954455 1.7840462375 1.8974821136 2.0119052671 2.1243706857 2.232221744 
2.3334263672 2.426721652 2.5115728246 1.4671972081 1.3575464161 1.24411054 1.1296873865 1.0172219679 0.90937090954 
0.80816628637 0.71487100155 0.63001982895 1.6743954455 1.7840462375 1.8974821136 2.0119052671 2.1243706857 2.232221744 
2.3334263672 2.426721652 2.5115728246 1.4671972081 1.3575464161 1.24411054 1.1296873865 1.0172219679 0.90937090954 
0.80816628637 0.71487100155 0.63001982895 1.5707963268 1.5707963268 1.5707963268 1.5707963268 1.5707963268 1.5707963268 
1.5707963268 1.5707963268 1.5707963268 1.6743954455 1.7840462375 1.8974821136 2.0119052671 2.1243706857 2.232221744 
2.3334263672 2.426721652 2.5115728246 1.4671972081 1.3575464161 1.24411054 1.1296873865 1.0172219679 0.90937090954 
0.80816628637 0.71487100155 0.63001982895 1.6743954455 1.7840462375 1.8974821136 2.0119052671 2.1243706857 2.232221744 
2.3334263672 2.426721652 2.5115728246 1.4671972081 1.3575464161 1.24411054 1.1296873865 1.0172219679 0.90937090954 
0.80816628637 0.71487100155 0.63001982895 2.6824132222 2.7864913217 2.8992382033 3.0186096618 3.1415926536 3.0186096618 
2.8992382033 2.7864913217 2.6824132222 0.45917943135 0.35510133185 0.2423544503 0.12298299178 0 0.12298299178 
0.2423544503 0.35510133185 0.45917943135 0.22715816343 0.49462574053 0.3129712797 0.77059342779 0.68021497688 0.49462574053 
1.0172219679 1.0172219679 1.0172219679 1.0172219679 1.2156949949 1.271087727 1.3676273807 1.5707963268 2.1243706857 
1.3676273807 1.447813335 1.5707963268 1.7739652728 2.1243706857 2.6469669131 1.4827341049 1.5707963268 1.6937793186 
1.8705049266 2.1243706857 2.4613776767 2.8286213739 1.5707963268 1.6588585487 1.7739652728 1.9258976586 2.1243706857 
2.3709992258 2.6469669131 2.9144344902 0.26576171152 0.33975332011 0.45685295248 0.40226393329 0.51573716537 0.6552068806 
0.45538277901 0.56421707518 0.69407236469 0.84594095064 0.50083690068 0.60464862014 0.72561863695 0.86392567495 1.0172219679 
0.54002084522 0.63877777351 0.75168694275 0.87851444325 1.0172219679 1.1636342747 0.57404952988 0.66790778838 0.77356233629 
0.89058134991 1.0172219679 1.1502619915 1.2852923014 0.60381225391 0.69302191562 0.79216440667 0.90072551443 1.0172219679 
1.139116835 1.2630228569 1.3852070904 0.71487100155 0.80816628637 0.80816628637 0.90937090954 0.90937090954 0.90937090954 
1.0172219679 1.0172219679 1.0172219679 1.0172219679 1.1296873865 1.1296873865 1.1296873865 1.1296873865 1.1296873865 
1.24411054 1.24411054 1.24411054 1.24411054 1.24411054 1.24411054 1.3575464161 1.3575464161 1.3575464161 
1.3575464161 1.3575464161 1.3575464161 1.3575464161 1.4671972081 1.4671972081 1.4671972081 1.4671972081 1.4671972081 
1.4671972081 1.4671972081 1.4671972081 1.6743954455 1.6743954455 1.7840462375 1.6743954455 1.7840462375 1.8974821136 
1.6743954455 1.7840462375 1.8974821136 2.0119052671 1.6743954455 1.7840462375 1.8974821136 2.0119052671 2.1243706857 
1.6743954455 1.7840462375 1.8974821136 2.0119052671 2.1243706857 2.232221744 1.6743954455 1.7840462375 1.8974821136 
2.0119052671 2.1243706857 2.232221744 2.3334263672 1.6743954455 1.7840462375 1.8974821136 2.0119052671 2.1243706857 
2.232221744 2.3334263672 2.426721652 1.7563855631 1.8785697967 1.8563003522 2.0024758186 1.9913306621 1.9779583789 
2.1243706857 2.1243706857 2.1243706857 2.1243706857 2.2408671392 2.2510113037 2.2630782103 2.2776669786 2.295651703 
2.3494282469 2.3680303173 2.3899057108 2.4159740166 2.4475202889 2.486385773 2.448570738 2.4736848652 2.5028148801 
2.5369440334 2.5773755784 2.6258554882 2.6847397011 2.5377803997 2.5675431237 2.6015718084 2.6407557529 2.6862098746 
2.7393287203 2.8018393335 2.8758309421 2.718901062 2.8307207459 2.7598010554 2.95115522 2.8800620952 2.8058000847 
3.0774230472 3.00855263 2.9351694502 2.8576792927 3.0774230472 3.1415926536 3.0719036933 2.9967168029 2.91630358 
2.95115522 3.00855263 3.0719036933 3.1415926536 3.0653475414 2.9825888767 2.8307207459 2.8800620952 2.9351694502 
2.9967168029 3.0653475414 3.1415926536 3.0574329311 2.718901062 2.7598010554 2.8058000847 2.8576792927 2.91630358 
2.9825888767 3.0574329311 3.1415926536 2.718901062 2.7598010554 2.8307207459 2.8058000847 2.8800620952 2.95115522 
2.8576792927 2.9351694502 3.00855263 3.0774230472 2.91630358 2.9967168029 3.0719036933 3.1415926536 3.0774230472 
2.9825888767 3.0653475414 3.1415926536 3.0719036933 3.00855263 2.95115522 3.0574329311 3.1415926536 3.0653475414 