# vtk DataFile Version 5.1
vtk output
ASCII
DATASET POLYDATA
POINTS 1002 float
-5.0946 -0.299794 -4.10435 5.03472 0.168887 -3.21151 -4.95785 -0.00751262 4.5335 
4.74251 -0.214069 4.17276 -0.242309 6.7579 -3.83913 0.204784 6.5544 2.70637 
0.188601 -6.65586 -3.50985 0.257435 -6.15718 2.87405 8.50466 4.28826 -0.257995 
-8.97427 4.70692 -1.18144 9.35453 -5.09608 -0.164134 -8.962 -4.29502 -0.0636399 
-4.11716 -0.224645 -4.32261 -3.0515 -0.146076 -4.47989 -2.00758 -0.18522 -4.3862 
-1.06147 -0.327641 -3.95706 -0.140427 -0.393214 -3.40356 0.879393 -0.293468 -3.04499 
1.99049 -0.13422 -2.96523 3.09375 -0.00840556 -3.02871 4.12081 0.0895229 -3.11804 
-4.63712 0.367037 -4.17505 -4.18107 1.03271 -4.06567 -3.81538 1.61568 -3.6089 
-3.4157 2.204 -2.85812 -2.74488 2.96468 -2.21318 -1.86638 3.88311 -2.13739 
-1.15745 4.78542 -2.67696 -0.792499 5.5689 -3.40048 -0.567798 6.22753 -3.83815 
-4.89529 -0.909306 -4.12523 -4.53115 -1.51102 -4.1831 -3.9895 -2.13762 -4.338 
-3.39831 -2.86766 -4.56948 -2.86648 -3.66851 -4.72224 -2.33428 -4.39324 -4.61153 
-1.70288 -4.99886 -4.26242 -1.00676 -5.57296 -3.90223 -0.356705 -6.14595 -3.67183 
-5.78795 0.101889 -3.94408 -6.56839 0.609191 -3.7446 -7.39237 1.15399 -3.48316 
-8.14473 1.64881 -3.143 -8.76358 2.14583 -2.81349 -9.26511 2.80238 -2.6619 
-9.59552 3.60228 -2.64828 -9.63977 4.2945 -2.47246 -9.39257 4.6634 -1.94364 
-5.90499 -0.683978 -3.92056 -6.65178 -1.00377 -3.75166 -7.3267 -1.34016 -3.5258 
-7.9668 -1.80028 -3.18483 -8.53745 -2.32735 -2.83029 -8.92737 -2.78147 -2.55906 
-9.09677 -3.18267 -2.2237 -9.11982 -3.62105 -1.62774 -9.07133 -4.03802 -0.830008 
4.73115 0.783567 -3.2725 4.31284 1.44794 -3.20618 3.87498 2.11019 -2.99517 
3.46208 2.79275 -2.68571 2.9935 3.57818 -2.3071 2.38566 4.39694 -1.94282 
1.6738 5.06334 -1.87923 0.953586 5.58814 -2.34803 0.300072 6.14109 -3.15437 
4.67242 -0.481417 -3.04854 4.18883 -1.18926 -2.93324 3.67536 -1.9146 -2.88468 
3.24606 -2.61673 -2.92384 2.88235 -3.31521 -3.16236 2.42635 -4.06559 -3.61327 
1.80821 -4.85238 -4.01075 1.15222 -5.58395 -4.08843 0.60409 -6.18979 -3.86356 
5.74402 0.598072 -3.39276 6.43635 1.055 -3.54639 7.09073 1.57017 -3.56995 
7.73953 2.15532 -3.45338 8.40487 2.76927 -3.26202 8.966 3.33565 -2.94974 
9.22621 3.7778 -2.39009 9.14331 4.05629 -1.62728 8.85427 4.2021 -0.86729 
5.6756 -0.171972 -3.19741 6.25395 -0.587211 -3.18578 6.82771 -1.08724 -3.20466 
7.46068 -1.61158 -3.20519 8.04765 -2.11255 -3.07162 8.43459 -2.67899 -2.7277 
8.68903 -3.40991 -2.18538 8.97037 -4.19433 -1.50927 9.24572 -4.796 -0.799523 
-4.15825 0.010565 4.87675 -3.24582 0.0457438 5.21727 -2.18265 0.138095 5.36632 
-0.989436 0.224888 5.3104 0.241061 0.238443 5.24572 1.3862 0.215835 5.266 
2.37715 0.184612 5.21861 3.23891 0.0929342 4.96886 4.02369 -0.0650254 4.57571 
-4.5534 0.705469 4.73162 -3.94086 1.48078 4.79128 -3.26938 2.26451 4.77554 
-2.74139 3.08444 4.74261 -2.334 3.95537 4.60599 -1.83585 4.746 4.28856 
-1.20417 5.31948 3.89492 -0.608779 5.73234 3.52857 -0.154737 6.12952 3.14873 
-4.71253 -0.637186 4.44309 -4.35628 -1.24169 4.39175 -3.99898 -1.88828 4.44983 
-3.70477 -2.65157 4.54755 -3.3271 -3.41386 4.4897 -2.64379 -4.00549 4.19984 
-1.70754 -4.49249 3.80438 -0.82556 -5.03111 3.43853 -0.189924 -5.61574 3.13433 
-5.55972 0.361875 4.46595 -6.20485 0.68563 4.46828 -6.85894 0.949348 4.27481 
-7.46311 1.23957 3.58827 -7.96416 1.6524 2.51726 -8.33981 2.17492 1.51654 
-8.6085 2.75368 0.797425 -8.80853 3.39233 0.181585 -8.9442 4.07685 -0.494229 
-5.62261 -0.463187 4.16841 -6.35208 -0.948795 3.81059 -7.16847 -1.37645 3.50871 
-7.95302 -1.69047 3.15051 -8.53847 -1.98518 2.59635 -8.92518 -2.40224 1.97591 
-9.20604 -2.93504 1.52084 -9.34474 -3.46846 1.15981 -9.25201 -3.92778 0.647971 
4.49602 0.431324 4.12295 4.14294 1.15625 4.04625 3.66465 1.94819 3.98806 
3.1364 2.74411 3.92274 2.66624 3.50656 3.79066 2.23405 4.26638 3.62456 
1.7302 5.00714 3.4784 1.15835 5.63608 3.3007 0.630453 6.12669 3.03189 
4.50984 -0.780138 4.42328 4.24568 -1.41339 4.64117 3.91066 -2.12322 4.78634 
3.39871 -2.89174 4.86155 2.69016 -3.6748 4.90547 1.95603 -4.41545 4.86238 
1.38524 -5.04771 4.57831 0.98425 -5.53315 4.03084 0.635674 -5.89101 3.40148 
5.30537 0.0842774 3.77382 5.84373 0.454483 3.33482 6.29619 0.860501 2.81346 
6.68918 1.29802 2.23081 7.11681 1.82215 1.69787 7.59166 2.42395 1.28737 
8.01304 2.98232 0.941739 8.30188 3.43522 0.572081 8.45794 3.85017 0.162117 
5.31479 -0.670049 3.93478 5.94058 -1.11598 3.68596 6.6488 -1.55675 3.44429 
7.43213 -2.03489 3.14255 8.1854 -2.56727 2.66852 8.78977 -3.1247 2.03414 
9.22674 -3.69073 1.40138 9.50032 -4.25398 0.869628 9.55379 -4.75072 0.375364 
-0.223427 7.40019 -3.80978 -0.0764404 7.82023 -3.30222 0.0873247 7.81258 -2.45956 
0.115061 7.56082 -1.52949 0.0329546 7.55837 -0.627571 0.0100341 7.89504 0.218894 
0.0857386 8.07123 0.955492 0.15913 7.75331 1.58544 0.186573 7.14218 2.16994 
0.609414 6.82594 -3.22031 1.73138 6.90071 -2.58426 3.00896 7.02015 -2.226 
4.2993 7.20981 -2.07765 5.46528 7.44822 -1.79686 6.38744 7.52505 -1.29546 
7.06094 7.13444 -0.826853 7.60248 6.2549 -0.553553 8.09175 5.20325 -0.400341 
-0.939946 7.07033 -4.24556 -1.56952 7.2009 -3.97056 -2.18857 6.92122 -2.97235 
-2.94739 6.27632 -1.83743 -3.98704 5.71114 -1.25037 -5.24955 5.6173 -1.26499 
-6.49551 5.83112 -1.45403 -7.54319 5.86123 -1.51341 -8.36121 5.4502 -1.40327 
0.845188 6.68729 2.4029 1.65636 6.69232 2.03857 2.62278 6.51212 1.71868 
3.63965 6.26843 1.53865 4.64172 6.17687 1.41167 5.621 6.21304 1.17241 
6.5174 6.07549 0.828958 7.26911 5.59494 0.484874 7.91142 4.9227 0.13989 
-0.416073 6.72787 2.66059 -1.15078 6.90824 2.6098 -2.03507 6.91743 2.49399 
-2.98006 6.4485 2.19315 -3.90086 5.53415 1.71978 -4.87795 4.77047 1.24911 
-5.9903 4.63361 0.813045 -7.12544 4.8822 0.250209 -8.12996 4.98018 -0.472307 
0.270792 -7.20519 -3.11917 0.377032 -7.77991 -2.58665 0.555897 -8.31878 -1.90611 
0.807845 -8.66267 -1.112 0.986876 -8.6179 -0.233689 0.912443 -8.18799 0.666241 
0.627752 -7.61337 1.44536 0.368016 -7.08705 2.01697 0.26586 -6.61512 2.45445 
0.940533 -6.77707 -3.49847 1.77228 -6.69677 -3.20857 2.72494 -6.50864 -2.59384 
3.81826 -6.42558 -1.9666 4.96691 -6.51237 -1.67615 6.03209 -6.56394 -1.60907 
6.9889 -6.39954 -1.40678 7.89497 -6.05691 -0.996199 8.71909 -5.61891 -0.54544 
-0.511257 -6.67793 -3.22507 -1.3132 -6.50725 -2.96357 -2.2888 -6.21969 -2.7264 
-3.41859 -5.9671 -2.42026 -4.54389 -5.8619 -2.07285 -5.53916 -5.87113 -1.82525 
-6.44872 -5.81923 -1.62052 -7.34449 -5.52485 -1.24385 -8.20001 -4.96721 -0.666257 
0.944651 -6.51126 2.89305 1.79566 -6.84024 2.83485 2.85885 -7.11995 2.62379 
3.95621 -7.21438 2.25498 4.87363 -6.95025 1.84147 5.73391 -6.4214 1.476 
6.79737 -5.96492 1.10515 7.95566 -5.71865 0.669749 8.85546 -5.49595 0.225313 
-0.480823 -6.03658 2.59297 -1.42495 -5.88325 2.36402 -2.49978 -5.75945 2.16307 
-3.55421 -5.63166 1.90906 -4.55954 -5.39852 1.54555 -5.60365 -5.12256 1.12713 
-6.65878 -4.98425 0.768281 -7.58591 -4.94075 0.499474 -8.33566 -4.74888 0.245317 
9.08093 3.48463 -0.433343 9.57507 2.71478 -0.610006 9.92527 1.79665 -0.784282 
10.1963 0.70275 -0.919563 10.4256 -0.30923 -0.910068 10.511 -1.15332 -0.700664 
10.3924 -2.09009 -0.415577 10.1428 -3.21405 -0.229037 9.8081 -4.28626 -0.172689 
-9.7938 3.77106 -1.35853 -10.651 2.69151 -1.39944 -11.528 1.61753 -1.31692 
-12.3271 0.462595 -1.13521 -12.805 -0.7343 -0.851906 -12.6774 -1.63078 -0.495192 
-11.9224 -2.16314 -0.170361 -10.8588 -2.70895 0.0149159 -9.83124 -3.47677 0.0342701 
-3.58146 0.481888 -4.36803 -3.10185 1.12596 -4.14534 -2.52666 0.525603 -4.35916 
-2.74355 1.67242 -3.54688 -2.09393 1.0988 -3.93157 -1.54991 0.412831 -3.96521 
-2.32712 2.29841 -2.77159 -1.74091 1.64397 -3.27189 -1.12094 0.985702 -3.389 
-0.593322 0.290946 -3.32166 -1.66424 3.14736 -2.25159 -1.27013 2.36985 -2.65219 
-0.655848 1.65408 -2.90527 -0.0283853 1.00755 -2.86288 0.46155 0.360234 -2.8529 
-0.920233 4.08685 -2.25294 -0.608451 3.30215 -2.2769 -0.0623939 2.51077 -2.58937 
0.61476 1.82467 -2.73833 1.17707 1.21093 -2.70971 1.59634 0.554072 -2.78143 
-0.385739 4.91333 -2.62718 0.0407664 4.22927 -2.16156 0.597033 3.46812 -2.28715 
1.27284 2.69746 -2.6447 1.874 2.02559 -2.81833 2.31587 1.38821 -2.86361 
2.7045 0.691506 -2.94566 -0.0486542 5.5836 -3.00812 0.53215 4.99054 -2.22359 
1.18042 4.35244 -1.99547 1.86853 3.57967 -2.30758 2.47539 2.79221 -2.70511 
2.9339 2.10412 -2.93654 3.33552 1.44163 -3.06254 3.75086 0.749297 -3.12942 
-5.39408 0.782258 -3.92202 -6.27554 1.2735 -3.60131 -5.04082 1.42524 -3.63756 
-7.13323 1.80005 -3.24941 -5.98836 1.88959 -3.16547 -4.68337 2.02686 -3.00211 
-7.7714 2.3542 -2.92813 -6.7487 2.44846 -2.81516 -5.48439 2.53777 -2.50673 
-4.04159 2.73354 -2.26536 -8.17966 3.05933 -2.75571 -7.1498 3.15567 -2.67748 
-5.96155 3.17113 -2.33153 -4.48516 3.32766 -1.99604 -3.00977 3.63035 -1.96948 
-8.47764 3.98037 -2.74646 -7.34179 4.07661 -2.69137 -6.13068 3.94735 -2.37443 
-4.70376 3.94785 -2.02417 -3.21101 4.25733 -2.06182 -1.99727 4.61799 -2.4327 
-8.65815 4.87699 -2.64216 -7.51572 5.05943 -2.62363 -6.2462 4.81966 -2.34209 
-4.84274 4.59329 -1.99588 -3.43269 4.81002 -2.08841 -2.26209 5.28676 -2.73249 
-1.42764 5.57345 -3.34297 -8.62117 5.40037 -2.177 -7.62335 5.72837 -2.2303 
-6.40921 5.53916 -2.033 -5.03856 5.20732 -1.71478 -3.7015 5.30359 -1.75553 
-2.61721 5.85331 -2.5057 -1.82722 6.33471 -3.5383 -1.1952 6.41879 -4.06673 
-7.43525 5.47784 -0.611757 -6.33729 5.11762 0.131051 -6.54646 5.65335 -0.696418 
-5.186 4.98029 0.62309 -5.42492 5.4041 -0.0597778 -5.4506 5.69746 -0.721601 
-4.15868 5.67425 0.974872 -4.37413 5.91098 0.249974 -4.41187 6.05533 -0.340095 
-4.2502 5.98384 -0.790068 -3.24628 6.8808 1.38317 -3.49205 7.20236 0.489134 
-3.55012 7.19514 -0.267765 -3.40214 6.95211 -0.752427 -3.17766 6.64087 -1.21421 
-2.30154 7.67321 1.77483 -2.61705 8.27415 0.861584 -2.77761 8.32197 -0.1013 
-2.6852 7.97325 -0.842411 -2.50041 7.64573 -1.44356 -2.35516 7.35859 -2.19497 
-1.34136 7.73082 2.00335 -1.63137 8.47034 1.22967 -1.87502 8.63273 0.285859 
[...]
POINT_DATA 1002
FIELD FieldData 4
_paraPhi 1 1002 double
6.2831853072 3.1415926536 6.2831853072 3.1415926536 4.7123889804 4.7123889804 1.5707963268 1.5707963268 3.6951670125 
5.7296109483 2.5880182947 0.5535743589 6.2831853072 6.2831853072 6.2831853072 6.2831853072 3.1415926536 3.1415926536 
3.1415926536 3.1415926536 3.1415926536 6.1053039672 5.898798347 5.6768734901 5.4599499503 5.2659633393 5.1032165617 
4.9713148346 4.8656852733 4.7809517865 0.17788134 0.38438696014 0.60631181711 0.82323535693 1.0172219679 1.1799687454 
1.3118704726 1.4175000338 1.5022335207 6.1892828907 6.1070320098 6.035312792 5.9728339911 5.9183214791 5.8706119594 
5.8286879411 5.7916808611 5.7588591896 0.093902416448 0.17615329733 0.2478725152 0.31035131605 0.36486382811 0.41257334776 
0.45449736604 0.4915044461 0.52432611754 3.3194739936 3.5259796137 3.7479044707 3.9648280105 4.1588146215 4.321561399 
4.4534631262 4.5590926874 4.6438261743 2.9637113136 2.7572056934 2.5352808365 2.3183572967 2.1243706857 1.9616239082 
1.829722181 1.7240926197 1.6393591329 3.23549507 3.3177459509 3.3894651688 3.4519439696 3.5064564817 3.5541660013 
3.5960900196 3.6330970997 3.6659187711 3.0476902371 2.9654393563 2.8937201384 2.8312413375 2.7767288255 2.7290193058 
2.6870952876 2.6500882075 2.617266536 6.2831853072 6.2831853072 6.2831853072 6.2831853072 3.1415926536 3.1415926536 
3.1415926536 3.1415926536 3.1415926536 6.1053039672 5.898798347 5.6768734901 5.4599499503 5.2659633393 5.1032165617 
4.9713148346 4.8656852733 4.7809517865 0.17788134 0.38438696014 0.60631181711 0.82323535693 1.0172219679 1.1799687454 
1.3118704726 1.4175000338 1.5022335207 6.1892828907 6.1070320098 6.035312792 5.9728339911 5.9183214791 5.8706119594 
5.8286879411 5.7916808611 5.7588591896 0.093902416448 0.17615329733 0.2478725152 0.31035131605 0.36486382811 0.41257334776 
0.45449736604 0.4915044461 0.52432611754 3.3194739936 3.5259796137 3.7479044707 3.9648280105 4.1588146215 4.321561399 
4.4534631262 4.5590926874 4.6438261743 2.9637113136 2.7572056934 2.5352808365 2.3183572967 2.1243706857 1.9616239082 
1.829722181 1.7240926197 1.6393591329 3.23549507 3.3177459509 3.3894651688 3.4519439696 3.5064564817 3.5541660013 
3.5960900196 3.6330970997 3.6659187711 3.0476902371 2.9654393563 2.8937201384 2.8312413375 2.7767288255 2.7290193058 
2.6870952876 2.6500882075 2.617266536 4.7123889804 4.7123889804 4.7123889804 4.7123889804 4.7123889804 4.7123889804 
4.7123889804 4.7123889804 4.7123889804 4.6087898617 4.4991390697 4.3857031936 4.2712800401 4.1588146215 4.0509635631 
3.94975894 3.8564636551 3.7716124825 4.8159880991 4.9256388911 5.0390747672 5.1534979207 5.2659633393 5.3738143976 
5.4750190208 5.5683143056 5.6531654782 4.6087898617 4.4991390697 4.3857031936 4.2712800401 4.1588146215 4.0509635631 
3.94975894 3.8564636551 3.7716124825 4.8159880991 4.9256388911 5.0390747672 5.1534979207 5.2659633393 5.3738143976 
5.4750190208 5.5683143056 5.6531654782 1.5707963268 1.5707963268 1.5707963268 1.5707963268 1.5707963268 1.5707963268 
1.5707963268 1.5707963268 1.5707963268 1.6743954455 1.7840462375 1.8974821136 2.0119052671 2.1243706857 2.232221744 
2.3334263672 2.426721652 2.5115728246 1.4671972081 1.3575464161 1.24411054 1.1296873865 1.0172219679 0.90937090954 
0.80816628637 0.71487100155 0.63001982895 1.6743954455 1.7840462375 1.8974821136 2.0119052671 2.1243706857 2.232221744 
2.3334263672 2.426721652 2.5115728246 1.4671972081 1.3575464161 1.24411054 1.1296873865 1.0172219679 0.90937090954 
0.80816628637 0.71487100155 0.63001982895 3.6007720849 3.4966939854 3.3839471039 3.2645756454 3.1415926536 3.0186096618 
2.8992382033 2.7864913217 2.6824132222 5.8240058758 5.9280839753 6.0408308569 6.1602023154 6.2831853072 0.12298299178 
0.2423544503 0.35510133185 0.45917943135 6.0560271438 5.7885595667 5.9702140275 5.5125918794 5.6029703303 5.7885595667 
5.2659633393 5.2659633393 5.2659633393 5.2659633393 5.0674903122 5.0120975802 4.9155579264 4.7123889804 4.1588146215 
4.9155579264 4.8353719722 4.7123889804 4.5092200343 4.1588146215 3.6362183941 4.8004512023 4.7123889804 4.5894059886 
4.4126803806 4.1588146215 3.8218076305 3.4545639333 4.7123889804 4.6243267584 4.5092200343 4.3572876485 4.1588146215 
3.9121860814 3.6362183941 3.368750817 6.0174235957 5.9434319871 5.8263323547 5.8809213739 5.7674481418 5.6279784266 
5.8278025282 5.718968232 5.5891129425 5.4372443565 5.7823484065 5.678536687 5.5575666702 5.4192596322 5.2659633393 
5.743164462 5.6444075337 5.5314983644 5.4046708639 5.2659633393 5.1195510325 5.7091357773 5.6152775188 5.5096229709 
5.3926039573 5.2659633393 5.1329233157 4.9978930058 5.6793730533 5.5901633916 5.4910209005 5.3824597928 5.2659633393 
5.1440684722 5.0201624502 4.8979782167 5.5683143056 5.4750190208 5.4750190208 5.3738143976 5.3738143976 5.3738143976 
5.2659633393 5.2659633393 5.2659633393 5.2659633393 5.1534979207 5.1534979207 5.1534979207 5.1534979207 5.1534979207 
5.0390747672 5.0390747672 5.0390747672 5.0390747672 5.0390747672 5.0390747672 4.9256388911 4.9256388911 4.9256388911 
4.9256388911 4.9256388911 4.9256388911 4.9256388911 4.8159880991 4.8159880991 4.8159880991 4.8159880991 4.8159880991 
4.8159880991 4.8159880991 4.8159880991 4.6087898617 4.6087898617 4.4991390697 4.6087898617 4.4991390697 4.3857031936 
4.6087898617 4.4991390697 4.3857031936 4.2712800401 4.6087898617 4.4991390697 4.3857031936 4.2712800401 4.1588146215 
4.6087898617 4.4991390697 4.3857031936 4.2712800401 4.1588146215 4.0509635631 4.6087898617 4.4991390697 4.3857031936 
4.2712800401 4.1588146215 4.0509635631 3.94975894 4.6087898617 4.4991390697 4.3857031936 4.2712800401 4.1588146215 
4.0509635631 3.94975894 3.8564636551 4.526799744 4.4046155105 4.426884955 4.2807094886 4.2918546451 4.3052269283 
4.1588146215 4.1588146215 4.1588146215 4.1588146215 4.042318168 4.0321740035 4.0201070968 4.0055183285 3.9875336042 
3.9337570603 3.9151549899 3.8932795963 3.8672112905 3.8356650183 3.7967995342 3.8346145692 3.809500442 3.7803704271 
3.7462412737 3.7058097288 3.657329819 3.5984456061 3.7454049075 3.7156421835 3.6816134988 3.6424295543 3.5969754326 
3.5438565869 3.4813459737 3.4073543651 3.5642842451 3.4524645613 3.5233842518 3.3320300872 3.403123212 3.4773852225 
3.20576226 3.2746326772 3.348015857 3.4255060145 3.0774230472 3.1415926536 3.2112816139 3.2864685043 3.3668817272 
2.95115522 3.00855263 3.0719036933 3.1415926536 3.2178377658 3.3005964304 2.8307207459 2.8800620952 2.9351694502 
2.9967168029 3.0653475414 3.1415926536 3.225752376 2.718901062 2.7598010554 2.8058000847 2.8576792927 2.91630358 
2.9825888767 3.0574329311 3.1415926536 3.5642842451 3.5233842518 3.4524645613 3.4773852225 3.403123212 3.3320300872 
3.4255060145 3.348015857 3.2746326772 3.20576226 3.3668817272 3.2864685043 3.2112816139 3.1415926536 3.0774230472 
3.3005964304 3.2178377658 3.1415926536 3.0719036933 3.00855263 2.95115522 3.225752376 3.1415926536 3.0653475414 
2.9967168029 2.9351694502 2.8800620952 2.8307207459 3.1415926536 3.0574329311 2.9825888767 2.91630358 2.8576792927 
2.8058000847 2.7598010554 2.718901062 4.526799744 4.426884955 4.4046155105 4.3052269283 4.2918546451 4.2807094886 
4.1588146215 4.1588146215 4.1588146215 4.1588146215 3.9875336042 4.0055183285 4.0201070968 4.0321740035 4.042318168 
3.7967995342 3.8356650183 3.8672112905 3.8932795963 3.9151549899 3.9337570603 3.5984456061 3.657329819 3.7058097288 
3.7462412737 3.7803704271 3.809500442 3.8346145692 3.4073543651 3.4813459737 3.5438565869 3.5969754326 3.6424295543 
3.6816134988 3.7156421835 3.7454049075 4.7123889804 4.8004512023 4.6243267584 4.9155579264 4.7123889804 4.5092200343 
5.0674903122 4.8353719722 4.5894059886 4.3572876485 5.2659633393 5.0120975802 4.7123889804 4.4126803806 4.1588146215 
5.5125918794 5.2659633393 4.9155579264 4.5092200343 4.1588146215 3.9121860814 5.7885595667 5.6029703303 5.2659633393 
4.7123889804 4.1588146215 3.8218076305 3.6362183941 6.0560271438 5.9702140275 5.7885595667 5.2659633393 4.1588146215 
3.6362183941 3.4545639333 3.368750817 0.22715816343 0.49462574053 0.3129712797 0.77059342779 0.68021497688 0.49462574053 
1.0172219679 1.0172219679 1.0172219679 1.0172219679 1.2156949949 1.271087727 1.3676273807 1.5707963268 2.1243706857 
1.3676273807 1.447813335 1.5707963268 1.7739652728 2.1243706857 2.6469669131 1.4827341049 1.5707963268 1.6937793186 
1.8705049266 2.1243706857 2.4613776767 2.8286213739 1.5707963268 1.6588585487 1.7739652728 1.9258976586 2.1243706857 
2.3709992258 2.6469669131 2.9144344902 1.7563855631 1.8785697967 1.8563003522 2.0024758186 1.9913306621 1.9779583789 
2.1243706857 2.1243706857 2.1243706857 2.1243706857 2.2408671392 2.2510113037 2.2630782103 2.2776669786 2.295651703 
2.3494282469 2.3680303173 2.3899057108 2.4159740166 2.4475202889 2.486385773 2.448570738 2.4736848652 2.5028148801 
2.5369440334 2.5773755784 2.6258554882 2.6847397011 2.5377803997 2.5675431237 2.6015718084 2.6407557529 2.6862098746 
2.7393287203 2.8018393335 2.8758309421 1.6743954455 1.6743954455 1.7840462375 1.6743954455 1.7840462375 1.8974821136 
1.6743954455 1.7840462375 1.8974821136 2.0119052671 1.6743954455 1.7840462375 1.8974821136 2.0119052671 2.1243706857 
1.6743954455 1.7840462375 1.8974821136 2.0119052671 2.1243706857 2.232221744 1.6743954455 1.7840462375 1.8974821136 
2.0119052671 2.1243706857 2.232221744 2.3334263672 1.6743954455 1.7840462375 1.8974821136 2.0119052671 2.1243706857 
2.232221744 2.3334263672 2.426721652 1.4671972081 1.3575464161 1.4671972081 1.24411054 1.3575464161 1.4671972081 
1.1296873865 1.24411054 1.3575464161 1.4671972081 1.0172219679 1.1296873865 1.24411054 1.3575464161 1.4671972081 
0.90937090954 1.0172219679 1.1296873865 1.24411054 1.3575464161 1.4671972081 0.80816628637 0.90937090954 1.0172219679 
1.1296873865 1.24411054 1.3575464161 1.4671972081 0.71487100155 0.80816628637 0.90937090954 1.0172219679 1.1296873865 
1.24411054 1.3575464161 1.4671972081 0.60381225391 0.57404952988 0.69302191562 0.54002084522 0.66790778838 0.79216440667 
0.50083690068 0.63877777351 0.77356233629 0.90072551443 0.45538277901 0.60464862014 0.75168694275 0.89058134991 1.0172219679 
0.40226393329 0.56421707518 0.72561863695 0.87851444325 1.0172219679 1.139116835 0.33975332011 0.51573716537 0.69407236469 
0.86392567495 1.0172219679 1.1502619915 1.2630228569 0.26576171152 0.45685295248 0.6552068806 0.84594095064 1.0172219679 
1.1636342747 1.2852923014 1.3852070904 0.22715816343 0.3129712797 0.49462574053 0.49462574053 0.68021497688 0.77059342779 
1.0172219679 1.0172219679 1.0172219679 1.0172219679 2.1243706857 1.5707963268 1.3676273807 1.271087727 1.2156949949 
2.6469669131 2.1243706857 1.7739652728 1.5707963268 1.447813335 1.3676273807 2.8286213739 2.4613776767 2.1243706857 
1.8705049266 1.6937793186 1.5707963268 1.4827341049 2.9144344902 2.6469669131 2.3709992258 2.1243706857 1.9258976586 
1.7739652728 1.6588585487 1.5707963268 1.7563855631 1.8563003522 1.8785697967 1.9779583789 1.9913306621 2.0024758186 
2.1243706857 2.1243706857 2.1243706857 2.1243706857 2.295651703 2.2776669786 2.2630782103 2.2510113037 2.2408671392 
2.486385773 2.4475202889 2.4159740166 2.3899057108 2.3680303173 2.3494282469 2.6847397011 2.6258554882 2.5773755784 
2.5369440334 2.5028148801 2.4736848652 2.448570738 2.8758309421 2.8018393335 2.7393287203 2.6862098746 2.6407557529 
2.6015718084 2.5675431237 2.5377803997 5.8604937156 5.901393709 5.9723133995 5.9473927383 6.0216547488 6.0927478736 
5.9992719463 6.0767621038 6.1501452836 6.2190157008 6.0578962336 6.1383094565 6.2134963469 0 0.064169606361 
6.1241815303 6.206940195 6.2831853072 0.069688960264 0.13304002361 0.19043743361 6.1990255847 0 0.07624511221 
0.14487585072 0.20642320337 0.26153055843 0.3108719077 0 0.084159722458 0.15900377685 0.22528907359 0.28391336087 
0.3357925689 0.38179159818 0.42269159155 5.8604937156 5.9723133995 5.901393709 6.0927478736 6.0216547488 5.9473927383 
6.2190157008 6.1501452836 6.0767621038 5.9992719463 0.064169606361 0 6.2134963469 6.1383094565 6.0578962336 
0.19043743361 0.13304002361 0.069688960264 6.2831853072 6.206940195 6.1241815303 0.3108719077 0.26153055843 0.20642320337 
0.14487585072 0.07624511221 6.2831853072 6.1990255847 0.42269159155 0.38179159818 0.3357925689 0.28391336087 0.22528907359 
0.15900377685 0.084159722458 0 5.6793730533 5.7091357773 5.5901633916 5.743164462 5.6152775188 5.4910209005 
5.7823484065 5.6444075337 5.5096229709 5.3824597928 5.8278025282 5.678536687 5.5314983644 5.3926039573 5.2659633393 
5.8809213739 5.718968232 5.5575666702 5.4046708639 5.2659633393 5.1440684722 5.9434319871 5.7674481418 5.5891129425 
5.4192596322 5.2659633393 5.1329233157 5.0201624502 6.0174235957 5.8263323547 5.6279784266 5.4372443565 5.2659633393 
5.1195510325 4.9978930058 4.8979782167 1.3852070904 1.2852923014 1.2630228569 1.1636342747 1.1502619915 1.139116835 
1.0172219679 1.0172219679 1.0172219679 1.0172219679 0.84594095064 0.86392567495 0.87851444325 0.89058134991 0.90072551443 
0.6552068806 0.69407236469 0.72561863695 0.75168694275 0.77356233629 0.79216440667 0.45685295248 0.51573716537 0.56421707518 
0.60464862014 0.63877777351 0.66790778838 0.69302191562 0.26576171152 0.33975332011 0.40226393329 0.45538277901 0.50083690068 
0.54002084522 0.57404952988 0.60381225391 
_paraPhiHalf 1 1002 double
0 3.1415926536 0 3.1415926536 1.5707963268 1.5707963268 1.5707963268 1.5707963268 2.5880182947 
0.5535743589 2.5880182947 0.5535743589 0 0 0 0 3.1415926536 3.1415926536 
3.1415926536 3.1415926536 3.1415926536 0.17788134 0.38438696014 0.60631181711 0.82323535693 1.0172219679 1.1799687454 
1.3118704726 1.4175000338 1.5022335207 0.17788134 0.38438696014 0.60631181711 0.82323535693 1.0172219679 1.1799687454 
1.3118704726 1.4175000338 1.5022335207 0.093902416448 0.17615329733 0.2478725152 0.31035131605 0.36486382811 0.41257334776 
0.45449736604 0.4915044461 0.52432611754 0.093902416448 0.17615329733 0.2478725152 0.31035131605 0.36486382811 0.41257334776 
0.45449736604 0.4915044461 0.52432611754 2.9637113136 2.7572056934 2.5352808365 2.3183572967 2.1243706857 1.9616239082 
1.829722181 1.7240926197 1.6393591329 2.9637113136 2.7572056934 2.5352808365 2.3183572967 2.1243706857 1.9616239082 
1.829722181 1.7240926197 1.6393591329 3.0476902371 2.9654393563 2.8937201384 2.8312413375 2.7767288255 2.7290193058 
2.6870952876 2.6500882075 2.617266536 3.0476902371 2.9654393563 2.8937201384 2.8312413375 2.7767288255 2.7290193058 
2.6870952876 2.6500882075 2.617266536 0 0 0 0 3.1415926536 3.1415926536 
3.1415926536 3.1415926536 3.1415926536 0.17788134 0.38438696014 0.60631181711 0.82323535693 1.0172219679 1.1799687454 
1.3118704726 1.4175000338 1.5022335207 0.17788134 0.38438696014 0.60631181711 0.82323535693 1.0172219679 1.1799687454 
1.3118704726 1.4175000338 1.5022335207 0.093902416448 0.17615329733 0.2478725152 0.31035131605 0.36486382811 0.41257334776 
0.45449736604 0.4915044461 0.52432611754 0.093902416448 0.17615329733 0.2478725152 0.31035131605 0.36486382811 0.41257334776 
0.45449736604 0.4915044461 0.52432611754 2.9637113136 2.7572056934 2.5352808365 2.3183572967 2.1243706857 1.9616239082 
1.829722181 1.7240926197 1.6393591329 2.9637113136 2.7572056934 2.5352808365 2.3183572967 2.1243706857 1.9616239082 
1.829722181 1.7240926197 1.6393591329 3.0476902371 2.9654393563 2.8937201384 2.8312413375 2.7767288255 2.7290193058 
2.6870952876 2.6500882075 2.617266536 3.0476902371 2.9654393563 2.8937201384 2.8312413375 2.7767288255 2.7290193058 
2.6870952876 2.6500882075 2.617266536 1.5707963268 1.5707963268 1.5707963268 1.5707963268 1.5707963268 1.5707963268 
1.5707963268 1.5707963268 1.5707963268 1.6743954455 1.7840462375 1.8974821136 2.0119052671 2.1243706857 2.232221744 
2.3334263672 2.426721652 2.5115728246 1.4671972081 1.3575464161 1.24411054 1.1296873865 1.0172219679 0.90937090954 
0.80816628637 0.71487100155 0.63001982895 1.6743954455 1.7840462375 1.8974821136 2.0119052671 2.1243706857 2.232221744 
2.3334263672 2.426721652 2.5115728246 1.4671972081 1.3575464161 1.24411054 1.1296873865 1.0172219679 0.90937090954 
0.80816628637 0.71487100155 0.63001982895 1.5707963268 1.5707963268 1.5707963268 1.5707963268 1.5707963268 1.5707963268 
1.5707963268 1.5707963268 1.5707963268 1.6743954455 1.7840462375 1.8974821136 2.0119052671 2.1243706857 2.232221744 
2.3334263672 2.426721652 2.5115728246 1.4671972081 1.3575464161 1.24411054 1.1296873865 1.0172219679 0.90937090954 
0.80816628637 0.71487100155 0.63001982895 1.6743954455 1.7840462375 1.8974821136 2.0119052671 2.1243706857 2.232221744 
2.3334263672 2.426721652 2.5115728246 1.4671972081 1.3575464161 1.24411054 1.1296873865 1.0172219679 0.90937090954 
0.80816628637 0.71487100155 0.63001982895 2.6824132222 2.7864913217 2.8992382033 3.0186096618 3.1415926536 3.0186096618 
2.8992382033 2.7864913217 2.6824132222 0.45917943135 0.35510133185 0.2423544503 0.12298299178 0 0.12298299178 
0.2423544503 0.35510133185 0.45917943135 0.22715816343 0.49462574053 0.3129712797 0.77059342779 0.68021497688 0.49462574053 
1.0172219679 1.0172219679 1.0172219679 1.0172219679 1.2156949949 1.271087727 1.3676273807 1.5707963268 2.1243706857 
1.3676273807 1.447813335 1.5707963268 1.7739652728 2.1243706857 2.6469669131 1.4827341049 1.5707963268 1.6937793186 
1.8705049266 2.1243706857 2.4613776767 2.8286213739 1.5707963268 1.6588585487 1.7739652728 1.9258976586 2.1243706857 
2.3709992258 2.6469669131 2.9144344902 0.26576171152 0.33975332011 0.45685295248 0.40226393329 0.51573716537 0.6552068806 
0.45538277901 0.56421707518 0.69407236469 0.84594095064 0.50083690068 0.60464862014 0.72561863695 0.86392567495 1.0172219679 
0.54002084522 0.63877777351 0.75168694275 0.87851444325 1.0172219679 1.1636342747 0.57404952988 0.66790778838 0.77356233629 
0.89058134991 1.0172219679 1.1502619915 1.2852923014 0.60381225391 0.69302191562 0.79216440667 0.90072551443 1.0172219679 
1.139116835 1.2630228569 1.3852070904 0.71487100155 0.80816628637 0.80816628637 0.90937090954 0.90937090954 0.90937090954 
1.0172219679 1.0172219679 1.0172219679 1.0172219679 1.1296873865 1.1296873865 1.1296873865 1.1296873865 1.1296873865 
1.24411054 1.24411054 1.24411054 1.24411054 1.24411054 1.24411054 1.3575464161 1.3575464161 1.3575464161 
1.3575464161 1.3575464161 1.3575464161 1.3575464161 1.4671972081 1.4671972081 1.4671972081 1.4671972081 1.4671972081 
1.4671972081 1.4671972081 1.4671972081 1.6743954455 1.6743954455 1.7840462375 1.6743954455 1.7840462375 1.8974821136 
1.6743954455 1.7840462375 1.8974821136 2.0119052671 1.6743954455 1.7840462375 1.8974821136 2.0119052671 2.1243706857 
1.6743954455 1.7840462375 1.8974821136 2.0119052671 2.1243706857 2.232221744 1.6743954455 1.7840462375 1.8974821136 
2.0119052671 2.1243706857 2.232221744 2.3334263672 1.6743954455 1.7840462375 1.8974821136 2.0119052671 2.1243706857 
2.232221744 2.3334263672 2.426721652 1.7563855631 1.8785697967 1.8563003522 2.0024758186 1.9913306621 1.9779583789 
2.1243706857 2.1243706857 2.1243706857 2.1243706857 2.2408671392 2.2510113037 2.2630782103 2.2776669786 2.295651703 
2.3494282469 2.3680303173 2.3899057108 2.4159740166 2.4475202889 2.486385773 2.448570738 2.4736848652 2.5028148801 
2.5369440334 2.5773755784 2.6258554882 2.6847397011 2.5377803997 2.5675431237 2.6015718084 2.6407557529 2.6862098746 
2.7393287203 2.8018393335 2.8758309421 2.718901062 2.8307207459 2.7598010554 2.95115522 2.8800620952 2.8058000847 
3.0774230472 3.00855263 2.9351694502 2.8576792927 3.0774230472 3.1415926536 3.0719036933 2.9967168029 2.91630358 
2.95115522 3.00855263 3.0719036933 3.1415926536 3.0653475414 2.9825888767 2.8307207459 2.8800620952 2.9351694502 
2.9967168029 3.0653475414 3.1415926536 3.0574329311 2.718901062 2.7598010554 2.8058000847 2.8576792927 2.91630358 
2.9825888767 3.0574329311 3.1415926536 2.718901062 2.7598010554 2.8307207459 2.8058000847 2.8800620952 2.95115522 
2.8576792927 2.9351694502 3.00855263 3.0774230472 2.91630358 2.9967168029 3.0719036933 3.1415926536 3.0774230472 
2.9825888767 3.0653475414 3.1415926536 3.0719036933 3.00855263 2.95115522 3.0574329311 3.1415926536 3.0653475414 