# vtk DataFile Version 5.1
vtk output
ASCII
DATASET POLYDATA
POINTS 1002 float
13.3895 30.37 9.02941 21.0399 37.4767 7.13313 12.2792 34.2551 16.1203 
21.2921 38.7711 13.5328 14.9567 39.1011 7.98705 13.5163 39.8263 12.5502 
21.8092 29.4776 10.5559 20.8152 32.7966 15.999 22.1035 44.0256 9.22338 
7.6619 32.6189 11.5274 26.7038 37.9849 10.8668 11.4641 28.1151 14.1491 
14.295 30.8912 8.8403 15.1291 31.3274 8.43892 15.9271 31.846 8.03967 
16.78 32.6234 7.87074 17.6887 33.5366 7.79978 18.5555 34.3214 7.52688 
19.3227 35.01 7.12293 19.9945 35.8074 6.91068 20.5678 36.694 6.97261 
13.4044 31.0639 9.05822 13.5912 31.7753 9.05386 13.845 32.6011 9.04145 
14.0033 33.626 9.00841 14.0531 34.6782 8.86398 14.149 35.5243 8.5789 
14.3685 36.2759 8.28615 14.6212 37.1824 8.1141 14.8147 38.2023 8.04122 
14.1076 30.0498 8.95076 14.9459 29.8148 8.98575 15.833 29.7231 9.16885 
16.7639 29.6664 9.32303 17.84 29.4384 9.30456 19.0486 29.0761 9.28808 
20.1386 28.8868 9.49292 20.9066 29.0085 9.85308 21.412 29.267 10.2132 
12.3271 30.1981 9.07206 11.1462 30.0108 9.01248 10.0402 29.9159 9.01501 
9.17511 30.0179 9.29108 8.53646 30.2763 9.76848 8.04459 30.5802 10.1465 
7.70897 30.9535 10.3674 7.55541 31.4739 10.6442 7.55351 32.077 11.0669 
12.8584 29.4981 8.97707 12.346 28.5915 8.86797 11.8631 28.0219 8.99862 
11.4159 27.9694 9.66266 11.0595 28.1159 10.7133 10.862 28.0965 11.6536 
10.8324 28.0017 12.2816 10.9414 28.0354 12.8238 11.1624 28.1243 13.465 
20.5264 37.8208 6.90638 20.0022 37.9883 6.45553 19.4209 38.0484 5.97493 
18.7591 38.2114 5.84882 18.094 38.5484 6.21229 17.4914 38.8705 6.73527 
16.8966 39.0172 7.0877 16.2512 39.0479 7.32016 15.5869 39.0723 7.61325 
21.3502 36.5606 7.0664 21.7258 35.5893 6.93597 21.9915 34.7715 7.0758 
22.0342 34.1275 7.65913 21.9625 33.3938 8.37857 21.9499 32.3894 8.84335 
21.9872 31.3238 9.12577 21.9685 30.4986 9.50966 21.8866 29.937 10.0316 
21.2046 38.3765 7.11617 21.4655 39.176 6.91781 21.7276 39.9552 6.7316 
21.87 40.86 6.81774 21.9212 41.8475 7.11134 22.0245 42.6989 7.33476 
22.2011 43.3114 7.51691 22.3199 43.7356 7.92247 22.2825 43.9868 8.57192 
21.624 37.5878 7.28369 22.2183 37.6429 7.46061 22.8284 37.797 7.76513 
23.4612 38.0975 8.19235 24.1554 38.3654 8.6215 24.9445 38.4451 8.99278 
25.729 38.396 9.35295 26.3192 38.3027 9.76116 26.6273 38.1606 10.2623 
13.2 34.8751 16.2404 14.2343 35.1973 16.015 15.2216 35.3274 15.51 
16.1331 35.5943 15.075 17.13 36.1236 14.8852 18.2704 36.6597 14.6806 
19.3374 37.0212 14.2535 20.1362 37.391 13.7976 20.7313 37.9884 13.5605 
12.1702 34.9344 16.1245 12.0695 35.555 16.0097 11.9787 36.0593 15.6579 
11.9898 36.5123 15.093 12.1861 37.0627 14.5176 12.4792 37.7609 14.1014 
12.7084 38.4883 13.8008 12.8778 39.0964 13.4654 13.1241 39.531 13.0317 
13.0472 33.9784 16.1686 14.0289 33.6367 16.0777 15.0272 33.3544 16.0054 
15.9128 33.2235 16.1641 16.8145 33.1655 16.4952 17.8566 33.0595 16.6732 
18.886 32.9285 16.5584 19.7077 32.8494 16.3309 20.3233 32.818 16.1523 
11.4721 33.8425 15.7824 10.878 33.3202 15.356 10.344 32.9259 15.0609 
9.60895 32.8031 14.8839 8.72546 32.8119 14.596 8.07356 32.7573 14.1033 
7.81143 32.6639 13.4963 7.73274 32.6261 12.8336 7.67254 32.6269 12.1492 
11.8398 33.298 15.9604 11.4056 32.3086 15.8899 10.9892 31.465 15.9721 
10.577 30.6862 16.1255 10.2126 29.7418 16.2087 10.0439 28.7262 16.1408 
10.1829 28.0513 15.8807 10.5667 27.8851 15.4061 11.0312 27.9976 14.7822 
20.8651 38.8175 13.1991 20.3132 38.8935 12.9819 19.6199 39.1173 13.005 
18.8076 39.43 13.0913 17.9195 39.5889 12.9647 16.9692 39.5459 12.7177 
15.9636 39.5504 12.6449 14.9864 39.7128 12.7307 14.1581 39.8544 12.7333 
21.3154 38.1008 13.8878 21.3084 37.3553 14.3856 21.2171 36.8819 15.1064 
21.1081 36.8675 16.0356 21.1419 36.8862 16.9012 21.3042 36.3335 17.2913 
21.3695 35.2779 17.0904 21.2286 34.2503 16.6108 20.9997 33.471 16.2121 
21.717 39.6131 13.3806 22.2434 40.3699 13.1837 22.6861 41.0641 12.8567 
22.8645 41.7502 12.4461 22.7948 42.3011 12.0021 22.638 42.5991 11.4717 
22.5019 42.8346 10.8659 22.3955 43.2282 10.2969 22.2799 43.6952 9.77871 
21.9417 39.2578 13.705 22.8024 39.69 13.6929 23.9619 39.9473 13.5731 
25.2678 40.0136 13.6392 26.3336 39.8618 13.8714 26.8968 39.4384 13.7793 
27.045 38.8678 13.1099 27.0014 38.4043 12.1914 26.8833 38.1427 11.4135 
14.663 39.5311 8.18494 14.3869 39.8005 8.36844 14.0947 39.9842 8.61735 
13.7303 40.2157 9.07519 13.398 40.4212 9.73477 13.2872 40.3881 10.3996 
13.3713 40.1478 10.9591 13.4587 39.9456 11.4887 13.4818 39.8756 12.0412 
15.5047 39.8598 7.69447 16.1626 40.6065 7.4591 16.9127 41.4386 7.3426 
17.5855 42.3903 7.30845 18.0387 43.2466 7.27253 18.4857 43.7851 7.32419 
19.2844 44.073 7.65459 20.3805 44.2372 8.21986 21.3891 44.2348 8.78285 
14.2093 38.6021 8.44084 13.2883 38.0286 8.86539 12.1718 37.3829 9.09591 
11.0212 36.7073 9.13639 10.0759 36.051 9.25674 9.37477 35.3855 9.66496 
8.79239 34.6416 10.2192 8.29245 33.8552 10.6943 7.91886 33.1556 11.0922 
14.4386 40.1614 12.2051 15.5186 40.6373 11.8594 16.5306 41.3615 11.555 
17.3037 42.2098 11.2305 17.9315 42.8816 10.8229 18.6553 43.2771 10.4107 
19.5684 43.5699 10.0945 20.5485 43.8556 9.83614 21.421 44.0368 9.54932 
12.6824 39.4931 12.5281 11.8508 39.0291 12.3972 10.9825 38.5627 12.2361 
10.124 38.16 12.1129 9.43629 37.581 12.0007 8.99326 36.5907 11.875 
8.66651 35.383 11.7804 8.32381 34.2981 11.7247 7.97279 33.4088 11.6509 
22.0319 29.2675 11.1366 22.2583 29.0558 11.8356 22.3235 29.0497 12.6064 
22.1388 29.3925 13.332 21.8649 29.9463 13.9303 21.6759 30.4964 14.4614 
21.5096 31.0475 14.9955 21.273 31.6706 15.4646 21.02 32.2916 15.7859 
22.2348 29.9344 10.6154 22.6822 30.4998 10.727 23.0493 31.4368 10.8938 
23.2206 32.8519 11.0256 23.3168 34.3762 11.0299 23.6777 35.5473 10.9496 
24.4521 36.3483 10.8813 25.405 36.9903 10.8402 26.2038 37.5377 10.8219 
21.4833 28.8731 10.823 20.9995 28.2727 11.1038 20.232 27.9062 11.4505 
19.1579 27.8732 11.8705 17.8492 27.9709 12.3395 16.3923 27.9875 12.8365 
14.9239 27.9768 13.2941 13.6066 28.0401 13.632 12.4792 28.1174 13.8813 
21.3602 33.2346 15.8805 21.8883 33.7216 15.671 22.3685 34.2035 15.3155 
22.8691 34.701 14.7563 23.4961 35.3112 14.0597 24.2299 36.0251 13.4051 
24.9781 36.6778 12.8385 25.6983 37.171 12.2289 26.3192 37.5746 11.5284 
20.3636 32.0747 15.9632 19.7801 31.2383 15.8778 19.0173 30.3599 15.7501 
18.1657 29.554 15.7064 17.2908 28.8468 15.779 16.2825 28.2495 15.7901 
15.053 27.8993 15.5771 13.7256 27.8734 15.1592 12.4979 28.0158 14.6496 
22.8304 43.7109 9.27857 23.7165 43.3235 9.34331 24.8946 42.9857 9.40621 
26.0538 42.6887 9.56178 26.6243 42.228 9.89659 26.5861 41.4362 10.2728 
26.5275 40.4064 10.4711 26.7291 39.3942 10.5194 26.8866 38.5826 10.6199 
7.31824 31.8541 11.7684 6.92236 31.0446 12.0816 6.52114 30.1754 12.4368 
6.19475 29.3274 12.8253 6.10351 28.6385 13.2795 6.49489 28.183 13.7412 
7.47468 27.9694 14.034 8.82277 27.966 14.1007 10.2073 28.061 14.0902 
14.3602 31.5523 8.79473 14.574 32.3227 8.77829 15.187 32.0442 8.35032 
14.78 33.3276 8.74844 15.3997 32.993 8.34419 15.9765 32.759 7.99275 
14.8214 34.4888 8.60631 15.5995 34.1724 8.28783 16.2396 33.8896 7.98581 
16.8627 33.7093 7.8273 14.7939 35.4898 8.31742 15.6455 35.335 8.09297 
16.5106 35.0723 7.86517 17.1705 34.8274 7.6713 17.7834 34.5975 7.58231 
14.9154 36.2607 7.99491 15.664 36.263 7.83096 16.6045 36.122 7.65547 
17.4238 35.8513 7.37501 18.0066 35.5719 7.16749 18.5887 35.3022 7.13228 
15.1843 37.0892 7.77293 15.8258 37.101 7.60372 16.6282 37.0563 7.45346 
17.4558 36.8182 7.09182 18.1219 36.4947 6.69531 18.6726 36.2507 6.61378 
19.2818 36.055 6.78405 15.4325 38.094 7.6657 16.0674 38.0558 7.43521 
16.7368 38.0201 7.26335 17.4263 37.8245 6.88948 18.0972 37.4785 6.36242 
18.7232 37.2046 6.12993 19.3195 37.0863 6.37001 19.9308 36.9593 6.75664 
12.369 30.9802 9.09126 11.1989 30.8662 8.9576 12.589 31.7682 9.05594 
10.1105 30.8462 8.93393 11.4133 31.7287 8.89254 12.8655 32.6673 9.0643 
9.28172 31.0104 9.25216 10.2899 31.796 8.8711 11.7117 32.7086 8.95515 
13.0957 33.7333 9.11251 8.71095 31.2971 9.72082 9.4175 32.067 9.12801 
10.5664 32.9009 8.89883 12.0511 33.8492 9.07844 13.3048 34.7727 9.04452 
8.3231 31.6427 10.0503 8.86036 32.4782 9.47862 9.64257 33.3314 8.9722 
10.9342 34.1748 8.94775 12.3963 34.9769 9.08102 13.5455 35.6656 8.82894 
8.0733 32.0912 10.3076 8.56244 32.9343 9.8248 9.10665 33.8477 9.21433 
10.0078 34.678 8.8905 11.3349 35.3925 8.97604 12.7083 36.0133 8.9899 
13.7951 36.5882 8.62899 7.93891 32.6339 10.6647 8.39857 33.4037 10.2383 
8.89847 34.2837 9.66668 9.52922 35.1063 9.13726 10.4839 35.8107 8.96725 
11.7421 36.4425 9.03644 12.9962 37.0424 8.92546 14.0146 37.6276 8.52326 
8.19283 34.1003 11.2171 8.50061 35.1554 11.2789 8.58947 34.8896 10.7979 
8.82456 36.3623 11.3007 8.92962 35.9905 10.8346 9.1891 35.6244 10.3023 
9.21788 37.5474 11.3614 9.28525 37.1995 10.8282 9.60906 36.6543 10.3403 
9.88565 36.2536 9.78008 9.80786 38.376 11.483 9.71696 38.3337 10.8758 
9.98679 37.8437 10.341 10.385 37.2433 9.85212 10.6796 36.9005 9.41722 
10.6313 38.815 11.6302 10.3632 39.0888 11.0119 10.4166 38.9761 10.4005 
10.8141 38.4375 9.86158 11.2746 37.9224 9.46691 11.6816 37.6439 9.23162 
11.5803 39.1494 11.7915 11.2818 39.4611 11.1897 11.1197 39.693 10.5677 
11.3259 39.4999 9.93397 11.8282 39.0217 9.42592 12.3446 38.6472 9.14914 
12.8053 38.3891 9.01472 12.544 39.5231 11.9455 12.3697 39.6943 11.3594 
12.171 39.9901 10.7828 12.1579 40.1131 10.1456 12.4886 39.8823 9.49301 
12.9933 39.5319 9.0197 13.4407 39.2835 8.78688 13.8259 39.0234 8.63903 
15.2795 40.2139 7.89315 15.1024 40.4398 8.16198 16.0284 40.9436 7.73273 
14.9084 40.6457 8.61156 15.9311 41.2369 8.16599 16.814 41.8537 7.75986 
14.6662 40.8412 9.28858 15.788 41.502 8.808 16.6637 42.2394 8.35873 
17.3802 42.8286 7.88364 14.5062 40.8463 10.0215 15.6193 41.5803 9.55551 
16.4388 42.4629 9.07417 17.0614 43.1506 8.61755 17.7125 43.5468 8.04543 
14.5065 40.6173 10.6301 15.5508 41.3661 10.222 16.277 42.3593 9.76043 
16.7772 43.2203 9.35171 17.3772 43.7029 8.9429 18.2569 43.9399 8.35085 
14.5373 40.3744 11.1592 15.5729 41.0446 10.7927 16.2997 42.0164 10.3797 
[...]
POINT_DATA 1002
FIELD FieldData 4
_paraPhi 1 1002 double
6.2831853072 3.1415926536 6.2831853072 3.1415926536 4.7123889804 4.7123889804 1.5707963268 1.5707963268 3.6951670125 
5.7296109483 2.5880182947 0.5535743589 6.2831853072 6.2831853072 6.2831853072 6.2831853072 3.1415926536 3.1415926536 
3.1415926536 3.1415926536 3.1415926536 6.1053039672 5.898798347 5.6768734901 5.4599499503 5.2659633393 5.1032165617 
4.9713148346 4.8656852733 4.7809517865 0.17788134 0.38438696014 0.60631181711 0.82323535693 1.0172219679 1.1799687454 
1.3118704726 1.4175000338 1.5022335207 6.1892828907 6.1070320098 6.035312792 5.9728339911 5.9183214791 5.8706119594 
5.8286879411 5.7916808611 5.7588591896 0.093902416448 0.17615329733 0.2478725152 0.31035131605 0.36486382811 0.41257334776 
0.45449736604 0.4915044461 0.52432611754 3.3194739936 3.5259796137 3.7479044707 3.9648280105 4.1588146215 4.321561399 
4.4534631262 4.5590926874 4.6438261743 2.9637113136 2.7572056934 2.5352808365 2.3183572967 2.1243706857 1.9616239082 
1.829722181 1.7240926197 1.6393591329 3.23549507 3.3177459509 3.3894651688 3.4519439696 3.5064564817 3.5541660013 
3.5960900196 3.6330970997 3.6659187711 3.0476902371 2.9654393563 2.8937201384 2.8312413375 2.7767288255 2.7290193058 
2.6870952876 2.6500882075 2.617266536 6.2831853072 6.2831853072 6.2831853072 6.2831853072 3.1415926536 3.1415926536 
3.1415926536 3.1415926536 3.1415926536 6.1053039672 5.898798347 5.6768734901 5.4599499503 5.2659633393 5.1032165617 
4.9713148346 4.8656852733 4.7809517865 0.17788134 0.38438696014 0.60631181711 0.82323535693 1.0172219679 1.1799687454 
1.3118704726 1.4175000338 1.5022335207 6.1892828907 6.1070320098 6.035312792 5.9728339911 5.9183214791 5.8706119594 
5.8286879411 5.7916808611 5.7588591896 0.093902416448 0.17615329733 0.2478725152 0.31035131605 0.36486382811 0.41257334776 
0.45449736604 0.4915044461 0.52432611754 3.3194739936 3.5259796137 3.7479044707 3.9648280105 4.1588146215 4.321561399 
4.4534631262 4.5590926874 4.6438261743 2.9637113136 2.7572056934 2.5352808365 2.3183572967 2.1243706857 1.9616239082 
1.829722181 1.7240926197 1.6393591329 3.23549507 3.3177459509 3.3894651688 3.4519439696 3.5064564817 3.5541660013 
3.5960900196 3.6330970997 3.6659187711 3.0476902371 2.9654393563 2.8937201384 2.8312413375 2.7767288255 2.7290193058 
2.6870952876 2.6500882075 2.617266536 4.7123889804 4.7123889804 4.7123889804 4.7123889804 4.7123889804 4.7123889804 
4.7123889804 4.7123889804 4.7123889804 4.6087898617 4.4991390697 4.3857031936 4.2712800401 4.1588146215 4.0509635631 
3.94975894 3.8564636551 3.7716124825 4.8159880991 4.9256388911 5.0390747672 5.1534979207 5.2659633393 5.3738143976 
5.4750190208 5.5683143056 5.6531654782 4.6087898617 4.4991390697 4.3857031936 4.2712800401 4.1588146215 4.0509635631 
3.94975894 3.8564636551 3.7716124825 4.8159880991 4.9256388911 5.0390747672 5.1534979207 5.2659633393 5.3738143976 
5.4750190208 5.5683143056 5.6531654782 1.5707963268 1.5707963268 1.5707963268 1.5707963268 1.5707963268 1.5707963268 
1.5707963268 1.5707963268 1.5707963268 1.6743954455 1.7840462375 1.8974821136 2.0119052671 2.1243706857 2.232221744 
2.3334263672 2.426721652 2.5115728246 1.4671972081 1.3575464161 1.24411054 1.1296873865 1.0172219679 0.90937090954 
0.80816628637 0.71487100155 0.63001982895 1.6743954455 1.7840462375 1.8974821136 2.0119052671 2.1243706857 2.232221744 
2.3334263672 2.426721652 2.5115728246 1.4671972081 1.3575464161 1.24411054 1.1296873865 1.0172219679 0.90937090954 
0.80816628637 0.71487100155 0.63001982895 3.6007720849 3.4966939854 3.3839471039 3.2645756454 3.1415926536 3.0186096618 
2.8992382033 2.7864913217 2.6824132222 5.8240058758 5.9280839753 6.0408308569 6.1602023154 6.2831853072 0.12298299178 
0.2423544503 0.35510133185 0.45917943135 6.0560271438 5.7885595667 5.9702140275 5.5125918794 5.6029703303 5.7885595667 
5.2659633393 5.2659633393 5.2659633393 5.2659633393 5.0674903122 5.0120975802 4.9155579264 4.7123889804 4.1588146215 
4.9155579264 4.8353719722 4.7123889804 4.5092200343 4.1588146215 3.6362183941 4.8004512023 4.7123889804 4.5894059886 
4.4126803806 4.1588146215 3.8218076305 3.4545639333 4.7123889804 4.6243267584 4.5092200343 4.3572876485 4.1588146215 
3.9121860814 3.6362183941 3.368750817 6.0174235957 5.9434319871 5.8263323547 5.8809213739 5.7674481418 5.6279784266 
5.8278025282 5.718968232 5.5891129425 5.4372443565 5.7823484065 5.678536687 5.5575666702 5.4192596322 5.2659633393 
5.743164462 5.6444075337 5.5314983644 5.4046708639 5.2659633393 5.1195510325 5.7091357773 5.6152775188 5.5096229709 
5.3926039573 5.2659633393 5.1329233157 4.9978930058 5.6793730533 5.5901633916 5.4910209005 5.3824597928 5.2659633393 
5.1440684722 5.0201624502 4.8979782167 5.5683143056 5.4750190208 5.4750190208 5.3738143976 5.3738143976 5.3738143976 
5.2659633393 5.2659633393 5.2659633393 5.2659633393 5.1534979207 5.1534979207 5.1534979207 5.1534979207 5.1534979207 
5.0390747672 5.0390747672 5.0390747672 5.0390747672 5.0390747672 5.0390747672 4.9256388911 4.9256388911 4.9256388911 
4.9256388911 4.9256388911 4.9256388911 4.9256388911 4.8159880991 4.8159880991 4.8159880991 4.8159880991 4.8159880991 
4.8159880991 4.8159880991 4.8159880991 4.6087898617 4.6087898617 4.4991390697 4.6087898617 4.4991390697 4.3857031936 
4.6087898617 4.4991390697 4.3857031936 4.2712800401 4.6087898617 4.4991390697 4.3857031936 4.2712800401 4.1588146215 
4.6087898617 4.4991390697 4.3857031936 4.2712800401 4.1588146215 4.0509635631 4.6087898617 4.4991390697 4.3857031936 
4.2712800401 4.1588146215 4.0509635631 3.94975894 4.6087898617 4.4991390697 4.3857031936 4.2712800401 4.1588146215 
4.0509635631 3.94975894 3.8564636551 4.526799744 4.4046155105 4.426884955 4.2807094886 4.2918546451 4.3052269283 
4.1588146215 4.1588146215 4.1588146215 4.1588146215 4.042318168 4.0321740035 4.0201070968 4.0055183285 3.9875336042 
3.9337570603 3.9151549899 3.8932795963 3.8672112905 3.8356650183 3.7967995342 3.8346145692 3.809500442 3.7803704271 
3.7462412737 3.7058097288 3.657329819 3.5984456061 3.7454049075 3.7156421835 3.6816134988 3.6424295543 3.5969754326 
3.5438565869 3.4813459737 3.4073543651 3.5642842451 3.4524645613 3.5233842518 3.3320300872 3.403123212 3.4773852225 
3.20576226 3.2746326772 3.348015857 3.4255060145 3.0774230472 3.1415926536 3.2112816139 3.2864685043 3.3668817272 
2.95115522 3.00855263 3.0719036933 3.1415926536 3.2178377658 3.3005964304 2.8307207459 2.8800620952 2.9351694502 
2.9967168029 3.0653475414 3.1415926536 3.225752376 2.718901062 2.7598010554 2.8058000847 2.8576792927 2.91630358 
2.9825888767 3.0574329311 3.1415926536 3.5642842451 3.5233842518 3.4524645613 3.4773852225 3.403123212 3.3320300872 
3.4255060145 3.348015857 3.2746326772 3.20576226 3.3668817272 3.2864685043 3.2112816139 3.1415926536 3.0774230472 
3.3005964304 3.2178377658 3.1415926536 3.0719036933 3.00855263 2.95115522 3.225752376 3.1415926536 3.0653475414 
2.9967168029 2.9351694502 2.8800620952 2.8307207459 3.1415926536 3.0574329311 2.9825888767 2.91630358 2.8576792927 
2.8058000847 2.7598010554 2.718901062 4.526799744 4.426884955 4.4046155105 4.3052269283 4.2918546451 4.2807094886 
4.1588146215 4.1588146215 4.1588146215 4.1588146215 3.9875336042 4.0055183285 4.0201070968 4.0321740035 4.042318168 
3.7967995342 3.8356650183 3.8672112905 3.8932795963 3.9151549899 3.9337570603 3.5984456061 3.657329819 3.7058097288 
3.7462412737 3.7803704271 3.809500442 3.8346145692 3.4073543651 3.4813459737 3.5438565869 3.5969754326 3.6424295543 
3.6816134988 3.7156421835 3.7454049075 4.7123889804 4.8004512023 4.6243267584 4.9155579264 4.7123889804 4.5092200343 
5.0674903122 4.8353719722 4.5894059886 4.3572876485 5.2659633393 5.0120975802 4.7123889804 4.4126803806 4.1588146215 
5.5125918794 5.2659633393 4.9155579264 4.5092200343 4.1588146215 3.9121860814 5.7885595667 5.6029703303 5.2659633393 
4.7123889804 4.1588146215 3.8218076305 3.6362183941 6.0560271438 5.9702140275 5.7885595667 5.2659633393 4.1588146215 
3.6362183941 3.4545639333 3.368750817 0.22715816343 0.49462574053 0.3129712797 0.77059342779 0.68021497688 0.49462574053 
1.0172219679 1.0172219679 1.0172219679 1.0172219679 1.2156949949 1.271087727 1.3676273807 1.5707963268 2.1243706857 
1.3676273807 1.447813335 1.5707963268 1.7739652728 2.1243706857 2.6469669131 1.4827341049 1.5707963268 1.6937793186 
1.8705049266 2.1243706857 2.4613776767 2.8286213739 1.5707963268 1.6588585487 1.7739652728 1.9258976586 2.1243706857 
2.3709992258 2.6469669131 2.9144344902 1.7563855631 1.8785697967 1.8563003522 2.0024758186 1.9913306621 1.9779583789 
2.1243706857 2.1243706857 2.1243706857 2.1243706857 2.2408671392 2.2510113037 2.2630782103 2.2776669786 2.295651703 
2.3494282469 2.3680303173 2.3899057108 2.4159740166 2.4475202889 2.486385773 2.448570738 2.4736848652 2.5028148801 
2.5369440334 2.5773755784 2.6258554882 2.6847397011 2.5377803997 2.5675431237 2.6015718084 2.6407557529 2.6862098746 
2.7393287203 2.8018393335 2.8758309421 1.6743954455 1.6743954455 1.7840462375 1.6743954455 1.7840462375 1.8974821136 
1.6743954455 1.7840462375 1.8974821136 2.0119052671 1.6743954455 1.7840462375 1.8974821136 2.0119052671 2.1243706857 
1.6743954455 1.7840462375 1.8974821136 2.0119052671 2.1243706857 2.232221744 1.6743954455 1.7840462375 1.8974821136 
2.0119052671 2.1243706857 2.232221744 2.3334263672 1.6743954455 1.7840462375 1.8974821136 2.0119052671 2.1243706857 
2.232221744 2.3334263672 2.426721652 1.4671972081 1.3575464161 1.4671972081 1.24411054 1.3575464161 1.4671972081 
1.1296873865 1.24411054 1.3575464161 1.4671972081 1.0172219679 1.1296873865 1.24411054 1.3575464161 1.4671972081 
0.90937090954 1.0172219679 1.1296873865 1.24411054 1.3575464161 1.4671972081 0.80816628637 0.90937090954 1.0172219679 
1.1296873865 1.24411054 1.3575464161 1.4671972081 0.71487100155 0.80816628637 0.90937090954 1.0172219679 1.1296873865 
1.24411054 1.3575464161 1.4671972081 0.60381225391 0.57404952988 0.69302191562 0.54002084522 0.66790778838 0.79216440667 
0.50083690068 0.63877777351 0.77356233629 0.90072551443 0.45538277901 0.60464862014 0.75168694275 0.89058134991 1.0172219679 
0.40226393329 0.56421707518 0.72561863695 0.87851444325 1.0172219679 1.139116835 0.33975332011 0.51573716537 0.69407236469 
0.86392567495 1.0172219679 1.1502619915 1.2630228569 0.26576171152 0.45685295248 0.6552068806 0.84594095064 1.0172219679 
1.1636342747 1.2852923014 1.3852070904 0.22715816343 0.3129712797 0.49462574053 0.49462574053 0.68021497688 0.77059342779 
1.0172219679 1.0172219679 1.0172219679 1.0172219679 2.1243706857 1.5707963268 1.3676273807 1.271087727 1.2156949949 
2.6469669131 2.1243706857 1.7739652728 1.5707963268 1.447813335 1.3676273807 2.8286213739 2.4613776767 2.1243706857 
1.8705049266 1.6937793186 1.5707963268 1.4827341049 2.9144344902 2.6469669131 2.3709992258 2.1243706857 1.9258976586 
1.7739652728 1.6588585487 1.5707963268 1.7563855631 1.8563003522 1.8785697967 1.9779583789 1.9913306621 2.0024758186 
2.1243706857 2.1243706857 2.1243706857 2.1243706857 2.295651703 2.2776669786 2.2630782103 2.2510113037 2.2408671392 
2.486385773 2.4475202889 2.4159740166 2.3899057108 2.3680303173 2.3494282469 2.6847397011 2.6258554882 2.5773755784 
2.5369440334 2.5028148801 2.4736848652 2.448570738 2.8758309421 2.8018393335 2.7393287203 2.6862098746 2.6407557529 
2.6015718084 2.5675431237 2.5377803997 5.8604937156 5.901393709 5.9723133995 5.9473927383 6.0216547488 6.0927478736 
5.9992719463 6.0767621038 6.1501452836 6.2190157008 6.0578962336 6.1383094565 6.2134963469 0 0.064169606361 
6.1241815303 6.206940195 6.2831853072 0.069688960264 0.13304002361 0.19043743361 6.1990255847 0 0.07624511221 
0.14487585072 0.20642320337 0.26153055843 0.3108719077 0 0.084159722458 0.15900377685 0.22528907359 0.28391336087 
0.3357925689 0.38179159818 0.42269159155 5.8604937156 5.9723133995 5.901393709 6.0927478736 6.0216547488 5.9473927383 
6.2190157008 6.1501452836 6.0767621038 5.9992719463 0.064169606361 0 6.2134963469 6.1383094565 6.0578962336 
0.19043743361 0.13304002361 0.069688960264 6.2831853072 6.206940195 6.1241815303 0.3108719077 0.26153055843 0.20642320337 
0.14487585072 0.07624511221 6.2831853072 6.1990255847 0.42269159155 0.38179159818 0.3357925689 0.28391336087 0.22528907359 
0.15900377685 0.084159722458 0 5.6793730533 5.7091357773 5.5901633916 5.743164462 5.6152775188 5.4910209005 
5.7823484065 5.6444075337 5.5096229709 5.3824597928 5.8278025282 5.678536687 5.5314983644 5.3926039573 5.2659633393 
5.8809213739 5.718968232 5.5575666702 5.4046708639 5.2659633393 5.1440684722 5.9434319871 5.7674481418 5.5891129425 
5.4192596322 5.2659633393 5.1329233157 5.0201624502 6.0174235957 5.8263323547 5.6279784266 5.4372443565 5.2659633393 
5.1195510325 4.9978930058 4.8979782167 1.3852070904 1.2852923014 1.2630228569 1.1636342747 1.1502619915 1.139116835 
1.0172219679 1.0172219679 1.0172219679 1.0172219679 0.84594095064 0.86392567495 0.87851444325 0.89058134991 0.90072551443 
0.6552068806 0.69407236469 0.72561863695 0.75168694275 0.77356233629 0.79216440667 0.45685295248 0.51573716537 0.56421707518 
0.60464862014 0.63877777351 0.66790778838 0.69302191562 0.26576171152 0.33975332011 0.40226393329 0.45538277901 0.50083690068 
0.54002084522 0.57404952988 0.60381225391 
_paraPhiHalf 1 1002 double
0 3.1415926536 0 3.1415926536 1.5707963268 1.5707963268 1.5707963268 1.5707963268 2.5880182947 
0.5535743589 2.5880182947 0.5535743589 0 0 0 0 3.1415926536 3.1415926536 
3.1415926536 3.1415926536 3.1415926536 0.17788134 0.38438696014 0.60631181711 0.82323535693 1.0172219679 1.1799687454 
1.3118704726 1.4175000338 1.5022335207 0.17788134 0.38438696014 0.60631181711 0.82323535693 1.0172219679 1.1799687454 
1.3118704726 1.4175000338 1.5022335207 0.093902416448 0.17615329733 0.2478725152 0.31035131605 0.36486382811 0.41257334776 
0.45449736604 0.4915044461 0.52432611754 0.093902416448 0.17615329733 0.2478725152 0.31035131605 0.36486382811 0.41257334776 
0.45449736604 0.4915044461 0.52432611754 2.9637113136 2.7572056934 2.5352808365 2.3183572967 2.1243706857 1.9616239082 
1.829722181 1.7240926197 1.6393591329 2.9637113136 2.7572056934 2.5352808365 2.3183572967 2.1243706857 1.9616239082 
1.829722181 1.7240926197 1.6393591329 3.0476902371 2.9654393563 2.8937201384 2.8312413375 2.7767288255 2.7290193058 
2.6870952876 2.6500882075 2.617266536 3.0476902371 2.9654393563 2.8937201384 2.8312413375 2.7767288255 2.7290193058 
2.6870952876 2.6500882075 2.617266536 0 0 0 0 3.1415926536 3.1415926536 
3.1415926536 3.1415926536 3.1415926536 0.17788134 0.38438696014 0.60631181711 0.82323535693 1.0172219679 1.1799687454 
1.3118704726 1.4175000338 1.5022335207 0.17788134 0.38438696014 0.60631181711 0.82323535693 1.0172219679 1.1799687454 
1.3118704726 1.4175000338 1.5022335207 0.093902416448 0.17615329733 0.2478725152 0.31035131605 0.36486382811 0.41257334776 
0.45449736604 0.4915044461 0.52432611754 0.093902416448 0.17615329733 0.2478725152 0.31035131605 0.36486382811 0.41257334776 
0.45449736604 0.4915044461 0.52432611754 2.9637113136 2.7572056934 2.5352808365 2.3183572967 2.1243706857 1.9616239082 
1.829722181 1.7240926197 1.6393591329 2.9637113136 2.7572056934 2.5352808365 2.3183572967 2.1243706857 1.9616239082 
1.829722181 1.7240926197 1.6393591329 3.0476902371 2.9654393563 2.8937201384 2.8312413375 2.7767288255 2.7290193058 
2.6870952876 2.6500882075 2.617266536 3.0476902371 2.9654393563 2.8937201384 2.8312413375 2.7767288255 2.7290193058 
2.6870952876 2.6500882075 2.617266536 1.5707963268 1.5707963268 1.5707963268 1.5707963268 1.5707963268 1.5707963268 
1.5707963268 1.5707963268 1.5707963268 1.6743954455 1.7840462375 1.8974821136 2.0119052671 2.1243706857 2.232221744 
2.3334263672 2.426721652 2.5115728246 1.4671972081 1.3575464161 1.24411054 1.1296873865 1.0172219679 0.90937090954 
0.80816628637 0.71487100155 0.63001982895 1.6743954455 1.7840462375 1.8974821136 2.0119052671 2.1243706857 2.232221744 
2.3334263672 2.426721652 2.5115728246 1.4671972081 1.3575464161 1.24411054 1.1296873865 1.0172219679 0.90937090954 
0.80816628637 0.71487100155 0.63001982895 1.5707963268 1.5707963268 1.5707963268 1.5707963268 1.5707963268 1.5707963268 
1.5707963268 1.5707963268 1.5707963268 1.6743954455 1.7840462375 1.8974821136 2.0119052671 2.1243706857 2.232221744 
2.3334263672 2.426721652 2.5115728246 1.4671972081 1.3575464161 1.24411054 1.1296873865 1.0172219679 0.90937090954 
0.80816628637 0.71487100155 0.63001982895 1.6743954455 1.7840462375 1.8974821136 2.0119052671 2.1243706857 2.232221744 
2.3334263672 2.426721652 2.5115728246 1.4671972081 1.3575464161 1.24411054 1.1296873865 1.0172219679 0.90937090954 
0.80816628637 0.71487100155 0.63001982895 2.6824132222 2.7864913217 2.8992382033 3.0186096618 3.1415926536 3.0186096618 
2.8992382033 2.7864913217 2.6824132222 0.45917943135 0.35510133185 0.2423544503 0.12298299178 0 0.12298299178 
0.2423544503 0.35510133185 0.45917943135 0.22715816343 0.49462574053 0.3129712797 0.77059342779 0.68021497688 0.49462574053 
1.0172219679 1.0172219679 1.0172219679 1.0172219679 1.2156949949 1.271087727 1.3676273807 1.5707963268 2.1243706857 
1.3676273807 1.447813335 1.5707963268 1.7739652728 2.1243706857 2.6469669131 1.4827341049 1.5707963268 1.6937793186 
1.8705049266 2.1243706857 2.4613776767 2.8286213739 1.5707963268 1.6588585487 1.7739652728 1.9258976586 2.1243706857 
2.3709992258 2.6469669131 2.9144344902 0.26576171152 0.33975332011 0.45685295248 0.40226393329 0.51573716537 0.6552068806 
0.45538277901 0.56421707518 0.69407236469 0.84594095064 0.50083690068 0.60464862014 0.72561863695 0.86392567495 1.0172219679 
0.54002084522 0.63877777351 0.75168694275 0.87851444325 1.0172219679 1.1636342747 0.57404952988 0.66790778838 0.77356233629 
0.89058134991 1.0172219679 1.1502619915 1.2852923014 0.60381225391 0.69302191562 0.79216440667 0.90072551443 1.0172219679 
1.139116835 1.2630228569 1.3852070904 0.71487100155 0.80816628637 0.80816628637 0.90937090954 0.90937090954 0.90937090954 
1.0172219679 1.0172219679 1.0172219679 1.0172219679 1.1296873865 1.1296873865 1.1296873865 1.1296873865 1.1296873865 
1.24411054 1.24411054 1.24411054 1.24411054 1.24411054 1.24411054 1.3575464161 1.3575464161 1.3575464161 
1.3575464161 1.3575464161 1.3575464161 1.3575464161 1.4671972081 1.4671972081 1.4671972081 1.4671972081 1.4671972081 
1.4671972081 1.4671972081 1.4671972081 1.6743954455 1.6743954455 1.7840462375 1.6743954455 1.7840462375 1.8974821136 
1.6743954455 1.7840462375 1.8974821136 2.0119052671 1.6743954455 1.7840462375 1.8974821136 2.0119052671 2.1243706857 
1.6743954455 1.7840462375 1.8974821136 2.0119052671 2.1243706857 2.232221744 1.6743954455 1.7840462375 1.8974821136 
2.0119052671 2.1243706857 2.232221744 2.3334263672 1.6743954455 1.7840462375 1.8974821136 2.0119052671 2.1243706857 
2.232221744 2.3334263672 2.426721652 1.7563855631 1.8785697967 1.8563003522 2.0024758186 1.9913306621 1.9779583789 
2.1243706857 2.1243706857 2.1243706857 2.1243706857 2.2408671392 2.2510113037 2.2630782103 2.2776669786 2.295651703 
2.3494282469 2.3680303173 2.3899057108 2.4159740166 2.4475202889 2.486385773 2.448570738 2.4736848652 2.5028148801 
2.5369440334 2.5773755784 2.6258554882 2.6847397011 2.5377803997 2.5675431237 2.6015718084 2.6407557529 2.6862098746 
2.7393287203 2.8018393335 2.8758309421 2.718901062 2.8307207459 2.7598010554 2.95115522 2.8800620952 2.8058000847 
3.0774230472 3.00855263 2.9351694502 2.8576792927 3.0774230472 3.1415926536 3.0719036933 2.9967168029 2.91630358 
2.95115522 3.00855263 3.0719036933 3.1415926536 3.0653475414 2.9825888767 2.8307207459 2.8800620952 2.9351694502 
2.9967168029 3.0653475414 3.1415926536 3.0574329311 2.718901062 2.7598010554 2.8058000847 2.8576792927 2.91630358 
2.9825888767 3.0574329311 3.1415926536 2.718901062 2.7598010554 2.8307207459 2.8058000847 2.8800620952 2.95115522 
2.8576792927 2.9351694502 3.00855263 3.0774230472 2.91630358 2.9967168029 3.0719036933 3.1415926536 3.0774230472 
2.9825888767 3.0653475414 3.1415926536 3.0719036933 3.00855263 2.95115522 3.0574329311 3.1415926536 3.0653475414 