# vtk DataFile Version 5.1
vtk output
ASCII
DATASET POLYDATA
POINTS 1002 float
-5.34682 -0.0513699 -3.77341 4.93625 0.131716 -2.15618 -5.4067 -0.0358462 4.02539 
4.82069 -0.0555085 3.29525 0.808799 6.10764 -3.32175 0.566562 6.62739 2.83196 
-0.00755934 -5.83502 -2.6002 0.679878 -5.53146 2.35244 9.72673 4.77206 0.181048 
-10.9559 4.21168 -1.48245 8.14888 -4.91555 -0.377297 -8.83748 -4.65157 -0.480751 
-4.39826 -0.0620211 -4.07031 -3.20634 -0.0164224 -4.30974 -1.86822 0.0823276 -4.32572 
-0.673522 0.136622 -4.04994 0.193898 0.050029 -3.5078 0.943399 -0.102536 -2.76937 
1.88706 -0.14696 -2.06739 3.00954 -0.0492396 -1.72621 4.07344 0.0741197 -1.82606 
-5.12273 0.439057 -3.73469 -4.71036 1.02648 -3.60786 -4.10016 1.67194 -3.39333 
-3.34989 2.30521 -3.12753 -2.5395 2.93167 -2.86555 -1.72824 3.62206 -2.69675 
-0.966684 4.35579 -2.73122 -0.294131 5.02678 -2.96452 0.289421 5.59762 -3.22326 
-4.93412 -0.524642 -3.97062 -4.46883 -1.02689 -4.19044 -3.97196 -1.56691 -4.33184 
-3.4332 -2.1486 -4.27678 -2.87713 -2.77885 -4.05284 -2.36161 -3.46078 -3.82407 
-1.86674 -4.15597 -3.64322 -1.30787 -4.79935 -3.39814 -0.666422 -5.35765 -3.02686 
-6.11263 0.275645 -3.54176 -6.90276 0.664444 -3.40839 -7.70988 1.12525 -3.28063 
-8.52142 1.61654 -3.01755 -9.30628 2.06091 -2.64429 -10.0341 2.48738 -2.34147 
-10.6682 3.01349 -2.18415 -11.106 3.60336 -2.06514 -11.2133 4.04827 -1.84921 
-5.92465 -0.321599 -3.57617 -6.45874 -0.655397 -3.32981 -6.99887 -1.08994 -3.02685 
-7.56141 -1.57285 -2.68899 -8.10165 -2.03125 -2.41708 -8.55688 -2.52466 -2.23838 
-8.87965 -3.15862 -1.99359 -9.0322 -3.85178 -1.55901 -9.00395 -4.38719 -1.01177 
4.71849 0.640494 -2.14897 4.42192 1.21479 -2.13059 4.00679 1.82597 -2.10537 
3.47015 2.44848 -2.05165 2.88269 3.13248 -2.04043 2.34629 3.92843 -2.31079 
1.90264 4.73046 -2.93644 1.52013 5.36494 -3.54551 1.15967 5.79572 -3.6936 
4.5892 -0.38601 -1.92742 4.12934 -0.981595 -1.74062 3.64982 -1.65011 -1.73783 
3.23531 -2.32104 -1.99698 2.83524 -2.94743 -2.3456 2.30959 -3.58763 -2.54891 
1.63727 -4.28028 -2.62033 0.960977 -4.93539 -2.67965 0.410307 -5.45338 -2.70243 
5.53215 0.450308 -2.5296 6.07828 0.803781 -2.84783 6.73628 1.24691 -3.01005 
7.64996 1.83632 -2.97033 8.7174 2.59485 -2.75819 9.62253 3.42685 -2.45049 
10.1246 4.11742 -2.03822 10.2204 4.52548 -1.42129 10.0453 4.70223 -0.617081 
5.54729 -0.180997 -2.3722 6.19513 -0.544814 -2.55373 6.79919 -0.945284 -2.66834 
7.27459 -1.4088 -2.69688 7.66827 -1.99723 -2.60786 8.05137 -2.70902 -2.34848 
8.32485 -3.43217 -1.90895 8.37149 -4.05173 -1.37437 8.26282 -4.53951 -0.85162 
-4.34393 0.141755 3.89831 -3.17733 0.28821 3.94494 -1.9766 0.379355 4.25229 
-0.770971 0.424457 4.64349 0.403599 0.408722 4.7398 1.4652 0.29372 4.38613 
2.39283 0.120375 3.87997 3.25549 -0.0055364 3.56578 4.08082 -0.0472855 3.43732 
-4.93977 0.577519 4.27199 -4.34569 1.253 4.71765 -3.66336 1.97079 5.08066 
-2.92939 2.74053 5.12229 -2.16196 3.56183 4.98383 -1.41352 4.3715 4.85257 
-0.778366 5.09513 4.56488 -0.286399 5.71285 3.9829 0.135652 6.22723 3.31941 
-5.11607 -0.509329 3.8703 -4.65205 -0.967477 3.80314 -4.04596 -1.39798 3.63085 
-3.39179 -1.8721 3.24348 -2.74479 -2.44363 2.8899 -2.05715 -3.05343 2.82441 
-1.29049 -3.64826 2.87479 -0.521329 -4.26447 2.76855 0.143762 -4.91391 2.53749 
-6.13803 0.149787 4.2288 -6.85797 0.366407 4.20209 -7.6118 0.658688 3.75188 
-8.36623 1.06554 2.94572 -8.9712 1.55442 2.0478 -9.42216 2.06382 1.22041 
-9.93239 2.60365 0.436512 -10.5363 3.19817 -0.331915 -10.9551 3.77464 -1.00641 
-6.27103 -0.514186 4.11395 -7.11975 -1.01411 4.22549 -7.93231 -1.54225 4.10373 
-8.67736 -2.07494 3.59206 -9.21312 -2.52062 2.82968 -9.38301 -2.86345 2.05803 
-9.25937 -3.25535 1.3539 -9.08056 -3.78517 0.691175 -8.9602 -4.31358 0.0731733 
4.49116 0.508486 3.12784 4.09517 1.06996 2.9466 3.6793 1.70713 2.94894 
3.2692 2.49857 3.20915 2.81621 3.35086 3.4451 2.28285 4.07231 3.32373 
1.74252 4.66419 2.96898 1.28749 5.29094 2.75938 0.914041 5.98873 2.78301 
4.6629 -0.651838 3.52713 4.45772 -1.2798 3.73495 4.21636 -1.90604 3.88299 
3.91483 -2.57111 3.90484 3.48708 -3.30405 3.78587 2.90381 -4.00202 3.59873 
2.23619 -4.54652 3.3847 1.60379 -4.95354 3.10469 1.08336 -5.2831 2.74388 
5.32279 0.302539 2.97324 5.81166 0.682621 2.55403 6.29335 1.08498 2.10479 
6.82544 1.56253 1.72422 7.47719 2.17136 1.47433 8.22933 2.85541 1.38058 
8.93015 3.47306 1.38879 9.41539 3.96649 1.28932 9.6536 4.38795 0.876772 
5.41798 -0.474553 3.14919 5.99332 -1.00635 2.82044 6.54048 -1.55977 2.50637 
7.07399 -2.04432 2.37151 7.59791 -2.54085 2.2001 8.05952 -3.18245 1.69161 
8.35146 -3.88037 0.983531 8.41456 -4.41958 0.405928 8.3101 -4.73598 0.0035408 
0.85405 6.64269 -2.80313 0.787368 7.29684 -2.07437 0.662664 7.92361 -1.40279 
0.613337 8.22353 -0.877335 0.696331 8.08951 -0.258857 0.81146 7.80396 0.628942 
0.836261 7.63179 1.56225 0.759667 7.47581 2.22575 0.649677 7.14005 2.59058 
1.61922 6.40404 -3.55756 2.60997 6.59781 -3.49713 3.60847 6.56651 -3.08933 
4.48697 6.26174 -2.46217 5.41043 5.86884 -1.86356 6.55694 5.67701 -1.48491 
7.74379 5.7011 -1.25833 8.68019 5.65639 -0.929604 9.31243 5.33167 -0.396573 
0.155377 6.04032 -2.6622 -0.616349 5.84798 -1.95095 -1.79368 5.5312 -1.4711 
-3.46079 5.26771 -1.33287 -5.17801 5.29609 -1.39396 -6.49242 5.54488 -1.47963 
-7.56649 5.63576 -1.54504 -8.75634 5.34937 -1.58882 -9.99061 4.80555 -1.57821 
1.26477 6.57272 2.47071 2.0391 6.4449 2.13561 2.91046 6.26432 1.80337 
3.92695 6.05342 1.44792 5.06424 5.86381 1.13666 6.18861 5.72887 0.964165 
7.21796 5.60772 0.894293 8.17663 5.4299 0.784123 9.04445 5.15387 0.541506 
-0.126351 6.91435 2.93992 -0.966697 6.99235 2.74835 -1.97263 6.78581 2.31955 
-3.19561 6.33251 1.87928 -4.63473 5.7863 1.48531 -6.13625 5.32331 0.951877 
-7.52845 5.01619 0.22381 -8.79075 4.79708 -0.504118 -9.95365 4.54916 -1.07236 
0.154252 -6.3629 -2.1865 0.292892 -6.99714 -1.71745 0.448694 -7.59713 -1.23601 
0.677339 -7.85372 -0.694476 0.913698 -7.61928 -0.0123138 1.01142 -7.14277 0.731589 
0.94965 -6.73121 1.33465 0.839975 -6.3919 1.73309 0.754304 -5.99718 2.0399 
0.949714 -6.01379 -2.25637 2.03285 -6.07406 -1.89741 3.11345 -6.10256 -1.60527 
4.10834 -6.26233 -1.43726 5.08159 -6.57732 -1.39463 6.07012 -6.79757 -1.38226 
6.91372 -6.64878 -1.25102 7.46827 -6.14541 -0.96259 7.8209 -5.51135 -0.632166 
-0.777925 -5.82486 -2.60447 -1.61092 -5.69817 -2.43987 -2.61431 -5.57001 -2.1819 
-3.76769 -5.56699 -1.96719 -4.88544 -5.67136 -1.84538 -5.86406 -5.74481 -1.72386 
-6.76729 -5.68559 -1.49812 -7.60945 -5.46897 -1.17388 -8.30852 -5.10859 -0.822238 
1.45083 -5.96849 2.50213 2.38303 -6.35662 2.70117 3.44196 -6.71355 2.82188 
4.55756 -7.04498 2.74064 5.70181 -7.26283 2.45531 6.75588 -7.22734 2.0068 
7.47022 -6.87943 1.39222 7.77958 -6.29262 0.68175 7.922 -5.60344 0.0525049 
0.00632122 -5.31158 2.03346 -0.831774 -5.01642 1.69945 -2.06891 -4.83955 1.4395 
-3.70758 -5.02345 1.38955 -5.32093 -5.52506 1.48851 -6.46762 -5.93111 1.4023 
-7.17781 -5.91303 0.946312 -7.74423 -5.55222 0.33959 -8.30716 -5.09432 -0.145964 
10.1893 3.98744 0.187626 10.4141 2.99006 -0.0471798 10.4188 1.93608 -0.53231 
10.4134 0.94233 -0.982867 10.5615 -0.0406546 -1.06636 10.6405 -1.10562 -0.818842 
10.2758 -2.20688 -0.555657 9.49722 -3.22573 -0.446292 8.69555 -4.11903 -0.423697 
-11.8884 3.59656 -1.59196 -12.5002 2.91466 -1.57476 -12.6742 2.0881 -1.31182 
-12.4955 1.03831 -0.873557 -12.1048 -0.206379 -0.517654 -11.5487 -1.47694 -0.380555 
-10.8626 -2.57038 -0.371261 -10.1401 -3.40817 -0.395303 -9.45824 -4.06618 -0.438667 
-4.00821 0.490691 -3.94407 -3.44572 1.15701 -3.69012 -2.65262 0.595495 -4.03568 
-2.73628 1.8596 -3.33174 -2.01457 1.2947 -3.63366 -1.28623 0.686931 -3.87674 
-1.95697 2.51394 -2.94311 -1.33377 1.98515 -3.17375 -0.740094 1.32433 -3.37311 
-0.23317 0.655552 -3.44916 -1.20824 3.15818 -2.65146 -0.660405 2.62026 -2.74055 
-0.192011 1.94626 -2.88482 0.184468 1.20114 -2.88758 0.552531 0.508256 -2.80725 
-0.555613 3.87166 -2.62761 -0.0638925 3.28079 -2.48898 0.37911 2.57694 -2.4569 
0.714762 1.80165 -2.40419 1.05447 1.05713 -2.25096 1.46766 0.409793 -2.12357 
0.0182859 4.60435 -2.93628 0.4432 4.01754 -2.60829 0.91206 3.28345 -2.26578 
1.32934 2.48627 -2.06188 1.73171 1.7246 -1.90637 2.18709 1.04841 -1.77534 
2.64033 0.46209 -1.72695 0.579989 5.25269 -3.38944 0.947099 4.74377 -3.06346 
1.39404 4.03765 -2.47424 1.88068 3.22558 -2.02783 2.39058 2.45326 -1.84358 
2.92079 1.76918 -1.77954 3.41408 1.14669 -1.76428 3.79958 0.579427 -1.79333 
-5.88022 0.81939 -3.50657 -6.6238 1.26758 -3.35112 -5.41848 1.42926 -3.39615 
-7.39549 1.78303 -3.14475 -6.11478 1.89116 -3.22456 -4.76119 2.05636 -3.24486 
-8.19017 2.30456 -2.75418 -6.87875 2.42669 -2.92358 -5.46329 2.51496 -3.10004 
-3.98536 2.68704 -3.07605 -8.89232 2.78498 -2.27578 -7.63079 2.99015 -2.39509 
-6.24416 3.08499 -2.73154 -4.69143 3.18655 -2.95238 -3.10363 3.38334 -2.8691 
-9.41772 3.31313 -1.95345 -8.1603 3.57059 -1.87005 -6.91281 3.7069 -2.14139 
-5.4204 3.78003 -2.52962 -3.69246 3.92083 -2.67927 -2.12478 4.1436 -2.66584 
-9.79263 3.94756 -1.85014 -8.44559 4.23214 -1.64151 -7.27838 4.357 -1.69228 
-5.98388 4.35916 -1.97104 -4.27201 4.42 -2.19574 -2.50554 4.61819 -2.3292 
-1.17779 4.85459 -2.58126 -10.0093 4.51795 -1.7894 -8.635 4.90224 -1.64801 
-7.44085 5.04492 -1.57505 -6.3059 4.93775 -1.62866 -4.7786 4.83559 -1.70304 
-2.94703 4.95997 -1.78593 -1.41037 5.23285 -2.07032 -0.411393 5.46771 -2.62288 
-8.96875 5.27917 -1.22631 -7.83754 5.61959 -0.634826 -7.8148 5.88535 -1.28513 
-6.55389 5.90226 0.202944 -6.76093 6.24656 -0.620092 -6.70015 6.08269 -1.22087 
-5.06696 6.26647 0.982916 -5.43821 6.56349 0.297202 -5.58941 6.41552 -0.492537 
-5.47075 5.87955 -1.07793 -3.53058 6.73162 1.43163 -3.87904 6.96145 0.982069 
-4.12877 6.84042 0.309375 -4.12175 6.34083 -0.434238 -3.84755 5.72723 -0.962061 
-2.18176 7.1539 1.72231 -2.38126 7.35257 1.26102 -2.55704 7.34238 0.717956 
-2.60777 7.05168 0.0299838 -2.43241 6.51417 -0.572118 -2.09949 5.95193 -1.01764 
-1.07206 7.38331 2.10832 -1.13767 7.57824 1.50317 -1.19244 7.66764 0.860259 
[...]
POINT_DATA 1002
FIELD FieldData 4
_paraPhi 1 1002 double
6.2831853072 3.1415926536 6.2831853072 3.1415926536 4.7123889804 4.7123889804 1.5707963268 1.5707963268 3.6951670125 
5.7296109483 2.5880182947 0.5535743589 6.2831853072 6.2831853072 6.2831853072 6.2831853072 3.1415926536 3.1415926536 
3.1415926536 3.1415926536 3.1415926536 6.1053039672 5.898798347 5.6768734901 5.4599499503 5.2659633393 5.1032165617 
4.9713148346 4.8656852733 4.7809517865 0.17788134 0.38438696014 0.60631181711 0.82323535693 1.0172219679 1.1799687454 
1.3118704726 1.4175000338 1.5022335207 6.1892828907 6.1070320098 6.035312792 5.9728339911 5.9183214791 5.8706119594 
5.8286879411 5.7916808611 5.7588591896 0.093902416448 0.17615329733 0.2478725152 0.31035131605 0.36486382811 0.41257334776 
0.45449736604 0.4915044461 0.52432611754 3.3194739936 3.5259796137 3.7479044707 3.9648280105 4.1588146215 4.321561399 
4.4534631262 4.5590926874 4.6438261743 2.9637113136 2.7572056934 2.5352808365 2.3183572967 2.1243706857 1.9616239082 
1.829722181 1.7240926197 1.6393591329 3.23549507 3.3177459509 3.3894651688 3.4519439696 3.5064564817 3.5541660013 
3.5960900196 3.6330970997 3.6659187711 3.0476902371 2.9654393563 2.8937201384 2.8312413375 2.7767288255 2.7290193058 
2.6870952876 2.6500882075 2.617266536 6.2831853072 6.2831853072 6.2831853072 6.2831853072 3.1415926536 3.1415926536 
3.1415926536 3.1415926536 3.1415926536 6.1053039672 5.898798347 5.6768734901 5.4599499503 5.2659633393 5.1032165617 
4.9713148346 4.8656852733 4.7809517865 0.17788134 0.38438696014 0.60631181711 0.82323535693 1.0172219679 1.1799687454 
1.3118704726 1.4175000338 1.5022335207 6.1892828907 6.1070320098 6.035312792 5.9728339911 5.9183214791 5.8706119594 
5.8286879411 5.7916808611 5.7588591896 0.093902416448 0.17615329733 0.2478725152 0.31035131605 0.36486382811 0.41257334776 
0.45449736604 0.4915044461 0.52432611754 3.3194739936 3.5259796137 3.7479044707 3.9648280105 4.1588146215 4.321561399 
4.4534631262 4.5590926874 4.6438261743 2.9637113136 2.7572056934 2.5352808365 2.3183572967 2.1243706857 1.9616239082 
1.829722181 1.7240926197 1.6393591329 3.23549507 3.3177459509 3.3894651688 3.4519439696 3.5064564817 3.5541660013 
3.5960900196 3.6330970997 3.6659187711 3.0476902371 2.9654393563 2.8937201384 2.8312413375 2.7767288255 2.7290193058 
2.6870952876 2.6500882075 2.617266536 4.7123889804 4.7123889804 4.7123889804 4.7123889804 4.7123889804 4.7123889804 
4.7123889804 4.7123889804 4.7123889804 4.6087898617 4.4991390697 4.3857031936 4.2712800401 4.1588146215 4.0509635631 
3.94975894 3.8564636551 3.7716124825 4.8159880991 4.9256388911 5.0390747672 5.1534979207 5.2659633393 5.3738143976 
5.4750190208 5.5683143056 5.6531654782 4.6087898617 4.4991390697 4.3857031936 4.2712800401 4.1588146215 4.0509635631 
3.94975894 3.8564636551 3.7716124825 4.8159880991 4.9256388911 5.0390747672 5.1534979207 5.2659633393 5.3738143976 
5.4750190208 5.5683143056 5.6531654782 1.5707963268 1.5707963268 1.5707963268 1.5707963268 1.5707963268 1.5707963268 
1.5707963268 1.5707963268 1.5707963268 1.6743954455 1.7840462375 1.8974821136 2.0119052671 2.1243706857 2.232221744 
2.3334263672 2.426721652 2.5115728246 1.4671972081 1.3575464161 1.24411054 1.1296873865 1.0172219679 0.90937090954 
0.80816628637 0.71487100155 0.63001982895 1.6743954455 1.7840462375 1.8974821136 2.0119052671 2.1243706857 2.232221744 
2.3334263672 2.426721652 2.5115728246 1.4671972081 1.3575464161 1.24411054 1.1296873865 1.0172219679 0.90937090954 
0.80816628637 0.71487100155 0.63001982895 3.6007720849 3.4966939854 3.3839471039 3.2645756454 3.1415926536 3.0186096618 
2.8992382033 2.7864913217 2.6824132222 5.8240058758 5.9280839753 6.0408308569 6.1602023154 6.2831853072 0.12298299178 
0.2423544503 0.35510133185 0.45917943135 6.0560271438 5.7885595667 5.9702140275 5.5125918794 5.6029703303 5.7885595667 
5.2659633393 5.2659633393 5.2659633393 5.2659633393 5.0674903122 5.0120975802 4.9155579264 4.7123889804 4.1588146215 
4.9155579264 4.8353719722 4.7123889804 4.5092200343 4.1588146215 3.6362183941 4.8004512023 4.7123889804 4.5894059886 
4.4126803806 4.1588146215 3.8218076305 3.4545639333 4.7123889804 4.6243267584 4.5092200343 4.3572876485 4.1588146215 
3.9121860814 3.6362183941 3.368750817 6.0174235957 5.9434319871 5.8263323547 5.8809213739 5.7674481418 5.6279784266 
5.8278025282 5.718968232 5.5891129425 5.4372443565 5.7823484065 5.678536687 5.5575666702 5.4192596322 5.2659633393 
5.743164462 5.6444075337 5.5314983644 5.4046708639 5.2659633393 5.1195510325 5.7091357773 5.6152775188 5.5096229709 
5.3926039573 5.2659633393 5.1329233157 4.9978930058 5.6793730533 5.5901633916 5.4910209005 5.3824597928 5.2659633393 
5.1440684722 5.0201624502 4.8979782167 5.5683143056 5.4750190208 5.4750190208 5.3738143976 5.3738143976 5.3738143976 
5.2659633393 5.2659633393 5.2659633393 5.2659633393 5.1534979207 5.1534979207 5.1534979207 5.1534979207 5.1534979207 
5.0390747672 5.0390747672 5.0390747672 5.0390747672 5.0390747672 5.0390747672 4.9256388911 4.9256388911 4.9256388911 
4.9256388911 4.9256388911 4.9256388911 4.9256388911 4.8159880991 4.8159880991 4.8159880991 4.8159880991 4.8159880991 
4.8159880991 4.8159880991 4.8159880991 4.6087898617 4.6087898617 4.4991390697 4.6087898617 4.4991390697 4.3857031936 
4.6087898617 4.4991390697 4.3857031936 4.2712800401 4.6087898617 4.4991390697 4.3857031936 4.2712800401 4.1588146215 
4.6087898617 4.4991390697 4.3857031936 4.2712800401 4.1588146215 4.0509635631 4.6087898617 4.4991390697 4.3857031936 
4.2712800401 4.1588146215 4.0509635631 3.94975894 4.6087898617 4.4991390697 4.3857031936 4.2712800401 4.1588146215 
4.0509635631 3.94975894 3.8564636551 4.526799744 4.4046155105 4.426884955 4.2807094886 4.2918546451 4.3052269283 
4.1588146215 4.1588146215 4.1588146215 4.1588146215 4.042318168 4.0321740035 4.0201070968 4.0055183285 3.9875336042 
3.9337570603 3.9151549899 3.8932795963 3.8672112905 3.8356650183 3.7967995342 3.8346145692 3.809500442 3.7803704271 
3.7462412737 3.7058097288 3.657329819 3.5984456061 3.7454049075 3.7156421835 3.6816134988 3.6424295543 3.5969754326 
3.5438565869 3.4813459737 3.4073543651 3.5642842451 3.4524645613 3.5233842518 3.3320300872 3.403123212 3.4773852225 
3.20576226 3.2746326772 3.348015857 3.4255060145 3.0774230472 3.1415926536 3.2112816139 3.2864685043 3.3668817272 
2.95115522 3.00855263 3.0719036933 3.1415926536 3.2178377658 3.3005964304 2.8307207459 2.8800620952 2.9351694502 
2.9967168029 3.0653475414 3.1415926536 3.225752376 2.718901062 2.7598010554 2.8058000847 2.8576792927 2.91630358 
2.9825888767 3.0574329311 3.1415926536 3.5642842451 3.5233842518 3.4524645613 3.4773852225 3.403123212 3.3320300872 
3.4255060145 3.348015857 3.2746326772 3.20576226 3.3668817272 3.2864685043 3.2112816139 3.1415926536 3.0774230472 
3.3005964304 3.2178377658 3.1415926536 3.0719036933 3.00855263 2.95115522 3.225752376 3.1415926536 3.0653475414 
2.9967168029 2.9351694502 2.8800620952 2.8307207459 3.1415926536 3.0574329311 2.9825888767 2.91630358 2.8576792927 
2.8058000847 2.7598010554 2.718901062 4.526799744 4.426884955 4.4046155105 4.3052269283 4.2918546451 4.2807094886 
4.1588146215 4.1588146215 4.1588146215 4.1588146215 3.9875336042 4.0055183285 4.0201070968 4.0321740035 4.042318168 
3.7967995342 3.8356650183 3.8672112905 3.8932795963 3.9151549899 3.9337570603 3.5984456061 3.657329819 3.7058097288 
3.7462412737 3.7803704271 3.809500442 3.8346145692 3.4073543651 3.4813459737 3.5438565869 3.5969754326 3.6424295543 
3.6816134988 3.7156421835 3.7454049075 4.7123889804 4.8004512023 4.6243267584 4.9155579264 4.7123889804 4.5092200343 
5.0674903122 4.8353719722 4.5894059886 4.3572876485 5.2659633393 5.0120975802 4.7123889804 4.4126803806 4.1588146215 
5.5125918794 5.2659633393 4.9155579264 4.5092200343 4.1588146215 3.9121860814 5.7885595667 5.6029703303 5.2659633393 
4.7123889804 4.1588146215 3.8218076305 3.6362183941 6.0560271438 5.9702140275 5.7885595667 5.2659633393 4.1588146215 
3.6362183941 3.4545639333 3.368750817 0.22715816343 0.49462574053 0.3129712797 0.77059342779 0.68021497688 0.49462574053 
1.0172219679 1.0172219679 1.0172219679 1.0172219679 1.2156949949 1.271087727 1.3676273807 1.5707963268 2.1243706857 
1.3676273807 1.447813335 1.5707963268 1.7739652728 2.1243706857 2.6469669131 1.4827341049 1.5707963268 1.6937793186 
1.8705049266 2.1243706857 2.4613776767 2.8286213739 1.5707963268 1.6588585487 1.7739652728 1.9258976586 2.1243706857 
2.3709992258 2.6469669131 2.9144344902 1.7563855631 1.8785697967 1.8563003522 2.0024758186 1.9913306621 1.9779583789 
2.1243706857 2.1243706857 2.1243706857 2.1243706857 2.2408671392 2.2510113037 2.2630782103 2.2776669786 2.295651703 
2.3494282469 2.3680303173 2.3899057108 2.4159740166 2.4475202889 2.486385773 2.448570738 2.4736848652 2.5028148801 
2.5369440334 2.5773755784 2.6258554882 2.6847397011 2.5377803997 2.5675431237 2.6015718084 2.6407557529 2.6862098746 
2.7393287203 2.8018393335 2.8758309421 1.6743954455 1.6743954455 1.7840462375 1.6743954455 1.7840462375 1.8974821136 
1.6743954455 1.7840462375 1.8974821136 2.0119052671 1.6743954455 1.7840462375 1.8974821136 2.0119052671 2.1243706857 
1.6743954455 1.7840462375 1.8974821136 2.0119052671 2.1243706857 2.232221744 1.6743954455 1.7840462375 1.8974821136 
2.0119052671 2.1243706857 2.232221744 2.3334263672 1.6743954455 1.7840462375 1.8974821136 2.0119052671 2.1243706857 
2.232221744 2.3334263672 2.426721652 1.4671972081 1.3575464161 1.4671972081 1.24411054 1.3575464161 1.4671972081 
1.1296873865 1.24411054 1.3575464161 1.4671972081 1.0172219679 1.1296873865 1.24411054 1.3575464161 1.4671972081 
0.90937090954 1.0172219679 1.1296873865 1.24411054 1.3575464161 1.4671972081 0.80816628637 0.90937090954 1.0172219679 
1.1296873865 1.24411054 1.3575464161 1.4671972081 0.71487100155 0.80816628637 0.90937090954 1.0172219679 1.1296873865 
1.24411054 1.3575464161 1.4671972081 0.60381225391 0.57404952988 0.69302191562 0.54002084522 0.66790778838 0.79216440667 
0.50083690068 0.63877777351 0.77356233629 0.90072551443 0.45538277901 0.60464862014 0.75168694275 0.89058134991 1.0172219679 
0.40226393329 0.56421707518 0.72561863695 0.87851444325 1.0172219679 1.139116835 0.33975332011 0.51573716537 0.69407236469 
0.86392567495 1.0172219679 1.1502619915 1.2630228569 0.26576171152 0.45685295248 0.6552068806 0.84594095064 1.0172219679 
1.1636342747 1.2852923014 1.3852070904 0.22715816343 0.3129712797 0.49462574053 0.49462574053 0.68021497688 0.77059342779 
1.0172219679 1.0172219679 1.0172219679 1.0172219679 2.1243706857 1.5707963268 1.3676273807 1.271087727 1.2156949949 
2.6469669131 2.1243706857 1.7739652728 1.5707963268 1.447813335 1.3676273807 2.8286213739 2.4613776767 2.1243706857 
1.8705049266 1.6937793186 1.5707963268 1.4827341049 2.9144344902 2.6469669131 2.3709992258 2.1243706857 1.9258976586 
1.7739652728 1.6588585487 1.5707963268 1.7563855631 1.8563003522 1.8785697967 1.9779583789 1.9913306621 2.0024758186 
2.1243706857 2.1243706857 2.1243706857 2.1243706857 2.295651703 2.2776669786 2.2630782103 2.2510113037 2.2408671392 
2.486385773 2.4475202889 2.4159740166 2.3899057108 2.3680303173 2.3494282469 2.6847397011 2.6258554882 2.5773755784 
2.5369440334 2.5028148801 2.4736848652 2.448570738 2.8758309421 2.8018393335 2.7393287203 2.6862098746 2.6407557529 
2.6015718084 2.5675431237 2.5377803997 5.8604937156 5.901393709 5.9723133995 5.9473927383 6.0216547488 6.0927478736 
5.9992719463 6.0767621038 6.1501452836 6.2190157008 6.0578962336 6.1383094565 6.2134963469 0 0.064169606361 
6.1241815303 6.206940195 6.2831853072 0.069688960264 0.13304002361 0.19043743361 6.1990255847 0 0.07624511221 
0.14487585072 0.20642320337 0.26153055843 0.3108719077 0 0.084159722458 0.15900377685 0.22528907359 0.28391336087 
0.3357925689 0.38179159818 0.42269159155 5.8604937156 5.9723133995 5.901393709 6.0927478736 6.0216547488 5.9473927383 
6.2190157008 6.1501452836 6.0767621038 5.9992719463 0.064169606361 0 6.2134963469 6.1383094565 6.0578962336 
0.19043743361 0.13304002361 0.069688960264 6.2831853072 6.206940195 6.1241815303 0.3108719077 0.26153055843 0.20642320337 
0.14487585072 0.07624511221 6.2831853072 6.1990255847 0.42269159155 0.38179159818 0.3357925689 0.28391336087 0.22528907359 
0.15900377685 0.084159722458 0 5.6793730533 5.7091357773 5.5901633916 5.743164462 5.6152775188 5.4910209005 
5.7823484065 5.6444075337 5.5096229709 5.3824597928 5.8278025282 5.678536687 5.5314983644 5.3926039573 5.2659633393 
5.8809213739 5.718968232 5.5575666702 5.4046708639 5.2659633393 5.1440684722 5.9434319871 5.7674481418 5.5891129425 
5.4192596322 5.2659633393 5.1329233157 5.0201624502 6.0174235957 5.8263323547 5.6279784266 5.4372443565 5.2659633393 
5.1195510325 4.9978930058 4.8979782167 1.3852070904 1.2852923014 1.2630228569 1.1636342747 1.1502619915 1.139116835 
1.0172219679 1.0172219679 1.0172219679 1.0172219679 0.84594095064 0.86392567495 0.87851444325 0.89058134991 0.90072551443 
0.6552068806 0.69407236469 0.72561863695 0.75168694275 0.77356233629 0.79216440667 0.45685295248 0.51573716537 0.56421707518 
0.60464862014 0.63877777351 0.66790778838 0.69302191562 0.26576171152 0.33975332011 0.40226393329 0.45538277901 0.50083690068 
0.54002084522 0.57404952988 0.60381225391 
_paraPhiHalf 1 1002 double
0 3.1415926536 0 3.1415926536 1.5707963268 1.5707963268 1.5707963268 1.5707963268 2.5880182947 
0.5535743589 2.5880182947 0.5535743589 0 0 0 0 3.1415926536 3.1415926536 
3.1415926536 3.1415926536 3.1415926536 0.17788134 0.38438696014 0.60631181711 0.82323535693 1.0172219679 1.1799687454 
1.3118704726 1.4175000338 1.5022335207 0.17788134 0.38438696014 0.60631181711 0.82323535693 1.0172219679 1.1799687454 
1.3118704726 1.4175000338 1.5022335207 0.093902416448 0.17615329733 0.2478725152 0.31035131605 0.36486382811 0.41257334776 
0.45449736604 0.4915044461 0.52432611754 0.093902416448 0.17615329733 0.2478725152 0.31035131605 0.36486382811 0.41257334776 
0.45449736604 0.4915044461 0.52432611754 2.9637113136 2.7572056934 2.5352808365 2.3183572967 2.1243706857 1.9616239082 
1.829722181 1.7240926197 1.6393591329 2.9637113136 2.7572056934 2.5352808365 2.3183572967 2.1243706857 1.9616239082 
1.829722181 1.7240926197 1.6393591329 3.0476902371 2.9654393563 2.8937201384 2.8312413375 2.7767288255 2.7290193058 
2.6870952876 2.6500882075 2.617266536 3.0476902371 2.9654393563 2.8937201384 2.8312413375 2.7767288255 2.7290193058 
2.6870952876 2.6500882075 2.617266536 0 0 0 0 3.1415926536 3.1415926536 
3.1415926536 3.1415926536 3.1415926536 0.17788134 0.38438696014 0.60631181711 0.82323535693 1.0172219679 1.1799687454 
1.3118704726 1.4175000338 1.5022335207 0.17788134 0.38438696014 0.60631181711 0.82323535693 1.0172219679 1.1799687454 
1.3118704726 1.4175000338 1.5022335207 0.093902416448 0.17615329733 0.2478725152 0.31035131605 0.36486382811 0.41257334776 
0.45449736604 0.4915044461 0.52432611754 0.093902416448 0.17615329733 0.2478725152 0.31035131605 0.36486382811 0.41257334776 
0.45449736604 0.4915044461 0.52432611754 2.9637113136 2.7572056934 2.5352808365 2.3183572967 2.1243706857 1.9616239082 
1.829722181 1.7240926197 1.6393591329 2.9637113136 2.7572056934 2.5352808365 2.3183572967 2.1243706857 1.9616239082 
1.829722181 1.7240926197 1.6393591329 3.0476902371 2.9654393563 2.8937201384 2.8312413375 2.7767288255 2.7290193058 
2.6870952876 2.6500882075 2.617266536 3.0476902371 2.9654393563 2.8937201384 2.8312413375 2.7767288255 2.7290193058 
2.6870952876 2.6500882075 2.617266536 1.5707963268 1.5707963268 1.5707963268 1.5707963268 1.5707963268 1.5707963268 
1.5707963268 1.5707963268 1.5707963268 1.6743954455 1.7840462375 1.8974821136 2.0119052671 2.1243706857 2.232221744 
2.3334263672 2.426721652 2.5115728246 1.4671972081 1.3575464161 1.24411054 1.1296873865 1.0172219679 0.90937090954 
0.80816628637 0.71487100155 0.63001982895 1.6743954455 1.7840462375 1.8974821136 2.0119052671 2.1243706857 2.232221744 
2.3334263672 2.426721652 2.5115728246 1.4671972081 1.3575464161 1.24411054 1.1296873865 1.0172219679 0.90937090954 
0.80816628637 0.71487100155 0.63001982895 1.5707963268 1.5707963268 1.5707963268 1.5707963268 1.5707963268 1.5707963268 
1.5707963268 1.5707963268 1.5707963268 1.6743954455 1.7840462375 1.8974821136 2.0119052671 2.1243706857 2.232221744 
2.3334263672 2.426721652 2.5115728246 1.4671972081 1.3575464161 1.24411054 1.1296873865 1.0172219679 0.90937090954 
0.80816628637 0.71487100155 0.63001982895 1.6743954455 1.7840462375 1.8974821136 2.0119052671 2.1243706857 2.232221744 
2.3334263672 2.426721652 2.5115728246 1.4671972081 1.3575464161 1.24411054 1.1296873865 1.0172219679 0.90937090954 
0.80816628637 0.71487100155 0.63001982895 2.6824132222 2.7864913217 2.8992382033 3.0186096618 3.1415926536 3.0186096618 
2.8992382033 2.7864913217 2.6824132222 0.45917943135 0.35510133185 0.2423544503 0.12298299178 0 0.12298299178 
0.2423544503 0.35510133185 0.45917943135 0.22715816343 0.49462574053 0.3129712797 0.77059342779 0.68021497688 0.49462574053 
1.0172219679 1.0172219679 1.0172219679 1.0172219679 1.2156949949 1.271087727 1.3676273807 1.5707963268 2.1243706857 
1.3676273807 1.447813335 1.5707963268 1.7739652728 2.1243706857 2.6469669131 1.4827341049 1.5707963268 1.6937793186 
1.8705049266 2.1243706857 2.4613776767 2.8286213739 1.5707963268 1.6588585487 1.7739652728 1.9258976586 2.1243706857 
2.3709992258 2.6469669131 2.9144344902 0.26576171152 0.33975332011 0.45685295248 0.40226393329 0.51573716537 0.6552068806 
0.45538277901 0.56421707518 0.69407236469 0.84594095064 0.50083690068 0.60464862014 0.72561863695 0.86392567495 1.0172219679 
0.54002084522 0.63877777351 0.75168694275 0.87851444325 1.0172219679 1.1636342747 0.57404952988 0.66790778838 0.77356233629 
0.89058134991 1.0172219679 1.1502619915 1.2852923014 0.60381225391 0.69302191562 0.79216440667 0.90072551443 1.0172219679 
1.139116835 1.2630228569 1.3852070904 0.71487100155 0.80816628637 0.80816628637 0.90937090954 0.90937090954 0.90937090954 
1.0172219679 1.0172219679 1.0172219679 1.0172219679 1.1296873865 1.1296873865 1.1296873865 1.1296873865 1.1296873865 
1.24411054 1.24411054 1.24411054 1.24411054 1.24411054 1.24411054 1.3575464161 1.3575464161 1.3575464161 
1.3575464161 1.3575464161 1.3575464161 1.3575464161 1.4671972081 1.4671972081 1.4671972081 1.4671972081 1.4671972081 
1.4671972081 1.4671972081 1.4671972081 1.6743954455 1.6743954455 1.7840462375 1.6743954455 1.7840462375 1.8974821136 
1.6743954455 1.7840462375 1.8974821136 2.0119052671 1.6743954455 1.7840462375 1.8974821136 2.0119052671 2.1243706857 
1.6743954455 1.7840462375 1.8974821136 2.0119052671 2.1243706857 2.232221744 1.6743954455 1.7840462375 1.8974821136 
2.0119052671 2.1243706857 2.232221744 2.3334263672 1.6743954455 1.7840462375 1.8974821136 2.0119052671 2.1243706857 
2.232221744 2.3334263672 2.426721652 1.7563855631 1.8785697967 1.8563003522 2.0024758186 1.9913306621 1.9779583789 
2.1243706857 2.1243706857 2.1243706857 2.1243706857 2.2408671392 2.2510113037 2.2630782103 2.2776669786 2.295651703 
2.3494282469 2.3680303173 2.3899057108 2.4159740166 2.4475202889 2.486385773 2.448570738 2.4736848652 2.5028148801 
2.5369440334 2.5773755784 2.6258554882 2.6847397011 2.5377803997 2.5675431237 2.6015718084 2.6407557529 2.6862098746 
2.7393287203 2.8018393335 2.8758309421 2.718901062 2.8307207459 2.7598010554 2.95115522 2.8800620952 2.8058000847 
3.0774230472 3.00855263 2.9351694502 2.8576792927 3.0774230472 3.1415926536 3.0719036933 2.9967168029 2.91630358 
2.95115522 3.00855263 3.0719036933 3.1415926536 3.0653475414 2.9825888767 2.8307207459 2.8800620952 2.9351694502 
2.9967168029 3.0653475414 3.1415926536 3.0574329311 2.718901062 2.7598010554 2.8058000847 2.8576792927 2.91630358 
2.9825888767 3.0574329311 3.1415926536 2.718901062 2.7598010554 2.8307207459 2.8058000847 2.8800620952 2.95115522 
2.8576792927 2.9351694502 3.00855263 3.0774230472 2.91630358 2.9967168029 3.0719036933 3.1415926536 3.0774230472 
2.9825888767 3.0653475414 3.1415926536 3.0719036933 3.00855263 2.95115522 3.0574329311 3.1415926536 3.0653475414 