# vtk DataFile Version 5.1
vtk output
ASCII
DATASET POLYDATA
POINTS 1002 float
21.4144 40.0391 13.6357 11.1174 34.2996 15.9909 22.2739 36.1739 8.82865 
14.2585 28.7471 9.65913 13.0677 40.3628 9.89279 14.1246 37.6132 6.00889 
19.6879 33.2085 18.83 21.8386 29.5773 14.4692 7.26382 32.3627 11.268 
24.0871 44.1552 7.70131 11.2817 27.0454 19.5504 28.4606 38.3945 13.3083 
20.6366 39.4522 13.6173 19.808 38.829 13.6493 18.8559 38.228 13.8303 
17.7105 37.6592 14.1652 16.4079 37.1022 14.5597 15.1043 36.5412 14.9345 
13.9348 35.9613 15.2581 12.9079 35.37 15.5202 11.9725 34.8073 15.7489 
20.8609 40.1332 13.2299 20.2894 40.1753 12.7915 19.5193 40.2282 12.3699 
18.4884 40.3208 11.9422 17.4525 40.3893 11.4698 16.6328 40.3592 10.9771 
15.864 40.2743 10.5253 14.9371 40.244 10.1789 13.9412 40.295 9.97868 
21.5211 39.5249 14.0119 21.6149 38.9478 14.4381 21.6549 38.3379 14.9233 
21.603 37.6886 15.4528 21.4163 36.9541 15.9912 21.07 36.1113 16.5019 
20.6181 35.2315 17.0191 20.1818 34.4389 17.6241 19.8617 33.7827 18.2842 
21.8393 40.6801 13.3828 22.3006 41.2694 12.9766 22.7922 41.7376 12.4113 
23.2539 42.1919 11.8522 23.6012 42.8427 11.3472 23.8276 43.694 10.6913 
24.0024 44.4481 9.83428 24.1445 44.7875 9.00771 24.1901 44.6378 8.32928 
22.3596 40.2533 13.838 23.4876 40.3632 13.9703 24.5905 40.3984 14.0837 
25.5434 40.4058 14.244 26.5449 40.3206 14.4039 27.7296 40.0375 14.4346 
28.7251 39.6123 14.284 29.0913 39.1908 14.0013 28.882 38.8045 13.6566 
11.0991 34.8563 15.5474 11.1564 35.4483 15.0367 11.2448 36.0899 14.4212 
11.3243 36.7843 13.7237 11.4196 37.4996 13.0287 11.5846 38.2008 12.3847 
11.8458 38.8582 11.7572 12.2097 39.4315 11.1084 12.6466 39.9155 10.4664 
11.7454 34.0554 16.2759 12.4865 33.804 16.5726 13.3082 33.529 16.7881 
14.2794 33.2164 16.8323 15.4924 32.9249 16.7667 16.7993 32.7767 16.8133 
17.8636 32.8123 17.1435 18.5645 32.9459 17.7166 19.0984 33.087 18.3414 
10.2692 34.1517 15.9946 9.48977 33.9737 15.9494 8.85732 33.7169 15.7278 
8.30163 33.4025 15.3073 7.70878 33.146 14.8033 7.16353 33.0262 14.2444 
6.86954 32.9698 13.5226 6.86625 32.8458 12.6605 7.03236 32.6209 11.8603 
10.66 33.6164 16.4652 10.2532 32.8413 17.0733 9.9877 32.0019 17.76 
9.88881 31.0932 18.3405 9.81125 30.0953 18.7264 9.6375 29.0947 19.113 
9.56111 28.2661 19.647 9.86806 27.6857 20.0792 10.5328 27.2992 20.0596 
21.5291 35.587 8.90489 20.7371 34.8773 8.89576 19.9682 34.0028 8.8211 
19.2426 33.0318 8.80476 18.4892 32.1287 8.89431 17.6417 31.3415 8.96808 
16.7371 30.5751 8.97868 15.8559 29.8251 9.06734 15.0314 29.2011 9.32299 
21.8477 36.1973 8.3076 21.2955 36.2412 7.78149 20.635 36.3598 7.30534 
19.886 36.548 6.90583 18.9998 36.7744 6.62253 17.9501 37.0367 6.48135 
16.8573 37.3067 6.40453 15.8636 37.5031 6.28234 14.9731 37.5892 6.11992 
22.2163 35.7134 9.35046 22.205 35.0592 9.78854 22.2348 34.3 10.2255 
22.2371 33.5722 10.7881 22.1927 32.8782 11.4621 22.153 32.1317 12.1201 
22.1181 31.3528 12.7164 22.0421 30.6454 13.2953 21.9342 30.0585 13.8806 
22.7634 36.7315 8.35933 23.1877 37.3484 7.88293 23.4354 38.1707 7.61554 
23.5717 39.2104 7.56256 23.7756 40.2521 7.42877 24.0726 41.1409 7.06516 
24.3089 41.9857 6.75744 24.3776 42.8734 6.814 24.2896 43.6584 7.20038 
22.95 36.5094 9.09606 23.6972 36.8587 9.38639 24.5611 37.1664 9.68435 
25.4584 37.4046 10.0447 26.2405 37.6174 10.5241 26.8922 37.8798 11.0554 
27.4786 38.1834 11.5426 27.9667 38.4121 12.0319 28.2893 38.4724 12.6238 
14.1282 29.327 9.26828 13.9523 30.0924 8.96728 13.7541 30.929 8.61607 
13.5932 31.7483 8.09097 13.4892 32.6423 7.57061 13.4345 33.7361 7.31598 
13.4673 34.9353 7.20861 13.6248 36.0201 6.93646 13.8681 36.8953 6.46522 
14.8642 28.5809 9.99221 15.5416 28.581 10.5187 16.2776 28.6802 11.0879 
17.0717 28.7427 11.5124 17.9962 28.7381 11.8749 19.0288 28.775 12.4117 
19.9591 28.9276 13.088 20.6658 29.1511 13.6708 21.255 29.3742 14.0968 
13.3664 28.6846 9.73168 12.31 28.6011 9.75271 11.0935 28.425 9.66205 
9.85669 28.2833 9.59169 8.87444 28.428 9.75631 8.29679 28.9412 10.1478 
7.9786 29.6937 10.5405 7.71221 30.5601 10.8088 7.45641 31.4754 11.0219 
13.8433 28.2297 10.1523 13.3921 27.7286 10.6296 12.931 27.2714 11.1912 
12.475 26.9996 12.148 12.0296 27.0079 13.5397 11.6328 27.135 14.9339 
11.3517 27.1488 16.0962 11.2202 27.0478 17.26 11.2139 26.9844 18.5098 
12.8335 40.6684 9.4932 12.5994 40.9411 8.92317 12.3401 41.1373 8.08027 
12.1253 41.1818 7.10197 12.1028 40.9483 6.36063 12.3401 40.355 6.03448 
12.7609 39.5213 5.91794 13.2487 38.7092 5.8244 13.7198 38.0817 5.82321 
12.0119 40.1447 10.1936 10.924 39.9012 10.4514 9.83204 39.5339 10.5156 
8.81463 38.902 10.4175 8.11365 37.9073 10.3846 7.8334 36.6663 10.568 
7.71021 35.4657 10.8656 7.5157 34.4322 11.0977 7.32848 33.4393 11.2131 
13.8883 40.8768 9.4571 14.548 41.594 9.21605 15.1501 42.3827 9.15845 
16.0995 42.9468 9.06 17.6521 43.0928 8.7785 19.5096 43.0078 8.47253 
21.1719 43.0924 8.29024 22.4477 43.4847 8.13567 23.3958 43.9403 7.91497 
13.0802 37.207 6.22742 11.9999 36.8017 6.53164 11.024 36.3675 6.89585 
10.2213 35.7933 7.30281 9.54469 35.0261 7.82283 8.93396 34.2103 8.55383 
8.39035 33.5647 9.41797 7.93219 33.1317 10.1888 7.55797 32.7721 10.7688 
14.9265 38.3002 5.7177 15.7991 39.03 5.62391 16.7824 39.8339 5.73288 
17.9024 40.7808 5.78231 19.0706 41.7436 5.55775 20.1979 42.3903 5.34124 
21.3192 42.67 5.59422 22.4357 42.9552 6.3018 23.4029 43.5028 7.08256 
20.1266 32.8808 19.2485 20.7216 32.4038 19.3711 21.2775 31.7427 19.1213 
21.6172 30.9671 18.6698 21.8247 30.2379 18.2345 22.0907 29.7051 17.7503 
22.3494 29.4244 17.0101 22.3809 29.3616 16.0632 22.1565 29.4393 15.1661 
19.2015 32.525 18.8701 18.7037 31.7559 18.6081 18.0248 30.9938 18.2288 
17.0064 30.2986 18.0158 15.7648 29.5636 18.1649 14.6537 28.6846 18.7178 
13.819 27.8317 19.4786 13.0543 27.2822 20.0223 12.1814 27.0767 20.0318 
20.5282 33.6907 18.7844 21.6195 34.2192 18.3986 22.871 34.8053 17.8194 
24.182 35.4536 17.3186 25.5059 36.0781 16.9822 26.6982 36.5363 16.6088 
27.5268 36.8486 15.9865 27.9657 37.2187 15.1217 28.2227 37.7641 14.1765 
21.3773 29.018 14.8425 20.8059 28.5093 15.2105 19.9306 28.1578 15.4882 
18.6094 27.9858 15.6705 17.018 27.7971 15.9752 15.5783 27.399 16.6517 
14.4959 26.9433 17.6122 13.5617 26.7402 18.5168 12.4959 26.839 19.1597 
22.5254 30.1013 14.4813 23.2465 30.7849 14.4926 23.8076 31.7467 14.4734 
24.2235 32.9845 14.3677 24.8943 34.1961 14.1568 25.9758 35.0804 13.9104 
26.9888 35.7639 13.7177 27.5733 36.5586 13.5853 27.9618 37.499 13.459 
7.12673 31.2391 11.6781 7.00246 29.9467 12.31 6.87012 28.8413 13.2444 
6.8345 28.0897 14.4454 7.02612 27.4958 15.7904 7.41297 26.9924 17.0837 
7.95638 26.8143 18.1098 8.78857 26.9566 18.802 9.96572 27.0931 19.2548 
24.7001 44.38 7.98022 25.1728 44.0495 8.42612 25.6439 43.1161 9.04119 
26.4084 42.0105 9.69861 27.6417 41.2441 10.2899 28.989 40.8669 10.8424 
29.7493 40.5547 11.4264 29.6453 40.0386 12.0536 29.0518 39.2773 12.6933 
20.0695 39.4898 13.1673 19.3657 39.5297 12.7592 19.141 38.8422 13.2054 
18.3992 39.6175 12.4103 18.2426 38.8877 12.8633 17.9992 38.2568 13.4815 
17.3507 39.7092 12.0213 17.1872 38.9517 12.5489 16.956 38.288 13.1932 
16.6783 37.7143 13.9359 16.5049 39.7163 11.5564 16.267 38.9726 12.1392 
15.9659 38.2783 12.8047 15.6438 37.7114 13.6077 15.3408 37.1582 14.3657 
15.7386 39.6585 11.1122 15.4712 38.9617 11.7114 15.1258 38.2591 12.3281 
14.7688 37.6612 13.0892 14.4217 37.1289 13.945 14.1251 36.5636 14.6875 
14.7563 39.6587 10.7769 14.4743 39.0243 11.4102 14.1566 38.3448 11.9926 
13.8609 37.6975 12.626 13.5738 37.11 13.4203 13.2768 36.5369 14.2582 
13.0329 35.953 14.9654 13.6325 39.7681 10.5713 13.2776 39.2071 11.2338 
12.9589 38.577 11.8545 12.7238 37.9068 12.4388 12.5502 37.2397 13.1092 
12.3704 36.5901 13.8875 12.1708 35.9676 14.6367 12.0202 35.3759 15.2523 
21.2573 40.7749 12.9189 21.6959 41.3189 12.398 20.654 40.7948 12.3996 
22.1488 41.7586 11.7428 21.0546 41.298 11.7734 19.7986 40.8216 11.8736 
22.5405 42.2984 11.1769 21.4478 41.7646 11.0985 20.1031 41.3151 11.203 
18.6442 40.8977 11.3646 22.8414 43.0758 10.6672 21.7778 42.392 10.5852 
20.4064 41.8462 10.6155 18.8122 41.4259 10.7579 17.5043 40.9615 10.8811 
23.1065 43.862 10.0066 22.06 43.1055 10.0982 20.6853 42.4877 10.1833 
18.993 42.0379 10.3089 17.5157 41.563 10.3852 16.5809 40.9471 10.4106 
23.3436 44.2964 9.25568 22.3143 43.5699 9.47886 20.9357 42.9943 9.67647 
19.1821 42.6481 9.88514 17.5142 42.258 10.0059 16.4183 41.6364 9.97453 
15.714 40.8963 9.97036 23.4617 44.2726 8.573 22.4682 43.6465 8.8112 
21.1164 43.1553 9.01346 19.3623 42.9811 9.25991 17.5445 42.8431 9.51223 
16.2182 42.3881 9.5943 15.4456 41.6396 9.55015 14.7837 40.8771 9.64086 
22.5068 43.304 7.28671 21.3397 42.9393 6.47638 21.3149 43.0338 7.45795 
20.1049 42.8042 5.81305 19.9617 42.911 6.65719 19.7602 42.9357 7.59166 
18.9441 42.4508 5.66687 18.6581 42.817 6.12747 18.2524 42.9584 6.91688 
17.8823 43.0685 7.86857 17.7971 41.6411 5.86418 17.4775 42.3292 6.06268 
16.9093 42.7786 6.55602 16.348 43.0574 7.37041 16.0722 43.1496 8.29434 
16.6254 40.6383 5.90694 16.303 41.4794 6.10341 15.7169 42.2191 6.41395 
15.0744 42.7456 7.01371 14.7422 42.9732 7.84037 14.8268 42.8336 8.61234 
15.5286 39.7082 5.7317 15.1436 40.5423 5.94288 14.5879 41.424 6.18669 
14 42.1387 6.60871 13.6877 42.5082 7.32679 13.7848 42.476 8.14071 
14.138 42.1152 8.78051 14.5673 38.863 5.65353 14.1161 39.6122 5.76905 
13.5841 40.5062 5.93685 13.0823 41.3184 6.18791 12.8225 41.8041 6.74382 
12.91 41.8956 7.6014 13.2173 41.6839 8.43891 13.565 41.3042 9.03845 
11.8034 40.358 9.70816 11.6048 40.4999 8.94465 10.6437 40.0507 9.83099 
11.431 40.5482 7.89818 10.4367 40.1056 8.90019 9.43386 39.6692 9.75456 
11.367 40.422 6.91679 10.4324 40.0022 7.83519 9.31309 39.6557 8.79296 
8.48087 38.9743 9.60566 11.4686 39.9849 6.3884 10.6286 39.6216 7.07342 
9.59894 39.3294 7.9225 8.63153 38.7715 8.76851 8.07941 37.7602 9.64515 
11.7179 39.2319 6.23532 10.8632 38.9182 6.76601 10.0174 38.6246 7.41815 
9.13235 38.1378 8.13203 8.441 37.2562 8.97505 8.02679 36.239 9.94148 
12.096 38.3927 6.15191 11.1014 38.0703 6.63401 10.2907 37.7303 7.17259 
[...]
POINT_DATA 1002
FIELD FieldData 4
_paraPhi 1 1002 double
6.2831853072 3.1415926536 6.2831853072 3.1415926536 4.7123889804 4.7123889804 1.5707963268 1.5707963268 3.6951670125 
5.7296109483 2.5880182947 0.5535743589 6.2831853072 6.2831853072 6.2831853072 6.2831853072 3.1415926536 3.1415926536 
3.1415926536 3.1415926536 3.1415926536 6.1053039672 5.898798347 5.6768734901 5.4599499503 5.2659633393 5.1032165617 
4.9713148346 4.8656852733 4.7809517865 0.17788134 0.38438696014 0.60631181711 0.82323535693 1.0172219679 1.1799687454 
1.3118704726 1.4175000338 1.5022335207 6.1892828907 6.1070320098 6.035312792 5.9728339911 5.9183214791 5.8706119594 
5.8286879411 5.7916808611 5.7588591896 0.093902416448 0.17615329733 0.2478725152 0.31035131605 0.36486382811 0.41257334776 
0.45449736604 0.4915044461 0.52432611754 3.3194739936 3.5259796137 3.7479044707 3.9648280105 4.1588146215 4.321561399 
4.4534631262 4.5590926874 4.6438261743 2.9637113136 2.7572056934 2.5352808365 2.3183572967 2.1243706857 1.9616239082 
1.829722181 1.7240926197 1.6393591329 3.23549507 3.3177459509 3.3894651688 3.4519439696 3.5064564817 3.5541660013 
3.5960900196 3.6330970997 3.6659187711 3.0476902371 2.9654393563 2.8937201384 2.8312413375 2.7767288255 2.7290193058 
2.6870952876 2.6500882075 2.617266536 6.2831853072 6.2831853072 6.2831853072 6.2831853072 3.1415926536 3.1415926536 
3.1415926536 3.1415926536 3.1415926536 6.1053039672 5.898798347 5.6768734901 5.4599499503 5.2659633393 5.1032165617 
4.9713148346 4.8656852733 4.7809517865 0.17788134 0.38438696014 0.60631181711 0.82323535693 1.0172219679 1.1799687454 
1.3118704726 1.4175000338 1.5022335207 6.1892828907 6.1070320098 6.035312792 5.9728339911 5.9183214791 5.8706119594 
5.8286879411 5.7916808611 5.7588591896 0.093902416448 0.17615329733 0.2478725152 0.31035131605 0.36486382811 0.41257334776 
0.45449736604 0.4915044461 0.52432611754 3.3194739936 3.5259796137 3.7479044707 3.9648280105 4.1588146215 4.321561399 
4.4534631262 4.5590926874 4.6438261743 2.9637113136 2.7572056934 2.5352808365 2.3183572967 2.1243706857 1.9616239082 
1.829722181 1.7240926197 1.6393591329 3.23549507 3.3177459509 3.3894651688 3.4519439696 3.5064564817 3.5541660013 
3.5960900196 3.6330970997 3.6659187711 3.0476902371 2.9654393563 2.8937201384 2.8312413375 2.7767288255 2.7290193058 
2.6870952876 2.6500882075 2.617266536 4.7123889804 4.7123889804 4.7123889804 4.7123889804 4.7123889804 4.7123889804 
4.7123889804 4.7123889804 4.7123889804 4.6087898617 4.4991390697 4.3857031936 4.2712800401 4.1588146215 4.0509635631 
3.94975894 3.8564636551 3.7716124825 4.8159880991 4.9256388911 5.0390747672 5.1534979207 5.2659633393 5.3738143976 
5.4750190208 5.5683143056 5.6531654782 4.6087898617 4.4991390697 4.3857031936 4.2712800401 4.1588146215 4.0509635631 
3.94975894 3.8564636551 3.7716124825 4.8159880991 4.9256388911 5.0390747672 5.1534979207 5.2659633393 5.3738143976 
5.4750190208 5.5683143056 5.6531654782 1.5707963268 1.5707963268 1.5707963268 1.5707963268 1.5707963268 1.5707963268 
1.5707963268 1.5707963268 1.5707963268 1.6743954455 1.7840462375 1.8974821136 2.0119052671 2.1243706857 2.232221744 
2.3334263672 2.426721652 2.5115728246 1.4671972081 1.3575464161 1.24411054 1.1296873865 1.0172219679 0.90937090954 
0.80816628637 0.71487100155 0.63001982895 1.6743954455 1.7840462375 1.8974821136 2.0119052671 2.1243706857 2.232221744 
2.3334263672 2.426721652 2.5115728246 1.4671972081 1.3575464161 1.24411054 1.1296873865 1.0172219679 0.90937090954 
0.80816628637 0.71487100155 0.63001982895 3.6007720849 3.4966939854 3.3839471039 3.2645756454 3.1415926536 3.0186096618 
2.8992382033 2.7864913217 2.6824132222 5.8240058758 5.9280839753 6.0408308569 6.1602023154 6.2831853072 0.12298299178 
0.2423544503 0.35510133185 0.45917943135 6.0560271438 5.7885595667 5.9702140275 5.5125918794 5.6029703303 5.7885595667 
5.2659633393 5.2659633393 5.2659633393 5.2659633393 5.0674903122 5.0120975802 4.9155579264 4.7123889804 4.1588146215 
4.9155579264 4.8353719722 4.7123889804 4.5092200343 4.1588146215 3.6362183941 4.8004512023 4.7123889804 4.5894059886 
4.4126803806 4.1588146215 3.8218076305 3.4545639333 4.7123889804 4.6243267584 4.5092200343 4.3572876485 4.1588146215 
3.9121860814 3.6362183941 3.368750817 6.0174235957 5.9434319871 5.8263323547 5.8809213739 5.7674481418 5.6279784266 
5.8278025282 5.718968232 5.5891129425 5.4372443565 5.7823484065 5.678536687 5.5575666702 5.4192596322 5.2659633393 
5.743164462 5.6444075337 5.5314983644 5.4046708639 5.2659633393 5.1195510325 5.7091357773 5.6152775188 5.5096229709 
5.3926039573 5.2659633393 5.1329233157 4.9978930058 5.6793730533 5.5901633916 5.4910209005 5.3824597928 5.2659633393 
5.1440684722 5.0201624502 4.8979782167 5.5683143056 5.4750190208 5.4750190208 5.3738143976 5.3738143976 5.3738143976 
5.2659633393 5.2659633393 5.2659633393 5.2659633393 5.1534979207 5.1534979207 5.1534979207 5.1534979207 5.1534979207 
5.0390747672 5.0390747672 5.0390747672 5.0390747672 5.0390747672 5.0390747672 4.9256388911 4.9256388911 4.9256388911 
4.9256388911 4.9256388911 4.9256388911 4.9256388911 4.8159880991 4.8159880991 4.8159880991 4.8159880991 4.8159880991 
4.8159880991 4.8159880991 4.8159880991 4.6087898617 4.6087898617 4.4991390697 4.6087898617 4.4991390697 4.3857031936 
4.6087898617 4.4991390697 4.3857031936 4.2712800401 4.6087898617 4.4991390697 4.3857031936 4.2712800401 4.1588146215 
4.6087898617 4.4991390697 4.3857031936 4.2712800401 4.1588146215 4.0509635631 4.6087898617 4.4991390697 4.3857031936 
4.2712800401 4.1588146215 4.0509635631 3.94975894 4.6087898617 4.4991390697 4.3857031936 4.2712800401 4.1588146215 
4.0509635631 3.94975894 3.8564636551 4.526799744 4.4046155105 4.426884955 4.2807094886 4.2918546451 4.3052269283 
4.1588146215 4.1588146215 4.1588146215 4.1588146215 4.042318168 4.0321740035 4.0201070968 4.0055183285 3.9875336042 
3.9337570603 3.9151549899 3.8932795963 3.8672112905 3.8356650183 3.7967995342 3.8346145692 3.809500442 3.7803704271 
3.7462412737 3.7058097288 3.657329819 3.5984456061 3.7454049075 3.7156421835 3.6816134988 3.6424295543 3.5969754326 
3.5438565869 3.4813459737 3.4073543651 3.5642842451 3.4524645613 3.5233842518 3.3320300872 3.403123212 3.4773852225 
3.20576226 3.2746326772 3.348015857 3.4255060145 3.0774230472 3.1415926536 3.2112816139 3.2864685043 3.3668817272 
2.95115522 3.00855263 3.0719036933 3.1415926536 3.2178377658 3.3005964304 2.8307207459 2.8800620952 2.9351694502 
2.9967168029 3.0653475414 3.1415926536 3.225752376 2.718901062 2.7598010554 2.8058000847 2.8576792927 2.91630358 
2.9825888767 3.0574329311 3.1415926536 3.5642842451 3.5233842518 3.4524645613 3.4773852225 3.403123212 3.3320300872 
3.4255060145 3.348015857 3.2746326772 3.20576226 3.3668817272 3.2864685043 3.2112816139 3.1415926536 3.0774230472 
3.3005964304 3.2178377658 3.1415926536 3.0719036933 3.00855263 2.95115522 3.225752376 3.1415926536 3.0653475414 
2.9967168029 2.9351694502 2.8800620952 2.8307207459 3.1415926536 3.0574329311 2.9825888767 2.91630358 2.8576792927 
2.8058000847 2.7598010554 2.718901062 4.526799744 4.426884955 4.4046155105 4.3052269283 4.2918546451 4.2807094886 
4.1588146215 4.1588146215 4.1588146215 4.1588146215 3.9875336042 4.0055183285 4.0201070968 4.0321740035 4.042318168 
3.7967995342 3.8356650183 3.8672112905 3.8932795963 3.9151549899 3.9337570603 3.5984456061 3.657329819 3.7058097288 
3.7462412737 3.7803704271 3.809500442 3.8346145692 3.4073543651 3.4813459737 3.5438565869 3.5969754326 3.6424295543 
3.6816134988 3.7156421835 3.7454049075 4.7123889804 4.8004512023 4.6243267584 4.9155579264 4.7123889804 4.5092200343 
5.0674903122 4.8353719722 4.5894059886 4.3572876485 5.2659633393 5.0120975802 4.7123889804 4.4126803806 4.1588146215 
5.5125918794 5.2659633393 4.9155579264 4.5092200343 4.1588146215 3.9121860814 5.7885595667 5.6029703303 5.2659633393 
4.7123889804 4.1588146215 3.8218076305 3.6362183941 6.0560271438 5.9702140275 5.7885595667 5.2659633393 4.1588146215 
3.6362183941 3.4545639333 3.368750817 0.22715816343 0.49462574053 0.3129712797 0.77059342779 0.68021497688 0.49462574053 
1.0172219679 1.0172219679 1.0172219679 1.0172219679 1.2156949949 1.271087727 1.3676273807 1.5707963268 2.1243706857 
1.3676273807 1.447813335 1.5707963268 1.7739652728 2.1243706857 2.6469669131 1.4827341049 1.5707963268 1.6937793186 
1.8705049266 2.1243706857 2.4613776767 2.8286213739 1.5707963268 1.6588585487 1.7739652728 1.9258976586 2.1243706857 
2.3709992258 2.6469669131 2.9144344902 1.7563855631 1.8785697967 1.8563003522 2.0024758186 1.9913306621 1.9779583789 
2.1243706857 2.1243706857 2.1243706857 2.1243706857 2.2408671392 2.2510113037 2.2630782103 2.2776669786 2.295651703 
2.3494282469 2.3680303173 2.3899057108 2.4159740166 2.4475202889 2.486385773 2.448570738 2.4736848652 2.5028148801 
2.5369440334 2.5773755784 2.6258554882 2.6847397011 2.5377803997 2.5675431237 2.6015718084 2.6407557529 2.6862098746 
2.7393287203 2.8018393335 2.8758309421 1.6743954455 1.6743954455 1.7840462375 1.6743954455 1.7840462375 1.8974821136 
1.6743954455 1.7840462375 1.8974821136 2.0119052671 1.6743954455 1.7840462375 1.8974821136 2.0119052671 2.1243706857 
1.6743954455 1.7840462375 1.8974821136 2.0119052671 2.1243706857 2.232221744 1.6743954455 1.7840462375 1.8974821136 
2.0119052671 2.1243706857 2.232221744 2.3334263672 1.6743954455 1.7840462375 1.8974821136 2.0119052671 2.1243706857 
2.232221744 2.3334263672 2.426721652 1.4671972081 1.3575464161 1.4671972081 1.24411054 1.3575464161 1.4671972081 
1.1296873865 1.24411054 1.3575464161 1.4671972081 1.0172219679 1.1296873865 1.24411054 1.3575464161 1.4671972081 
0.90937090954 1.0172219679 1.1296873865 1.24411054 1.3575464161 1.4671972081 0.80816628637 0.90937090954 1.0172219679 
1.1296873865 1.24411054 1.3575464161 1.4671972081 0.71487100155 0.80816628637 0.90937090954 1.0172219679 1.1296873865 
1.24411054 1.3575464161 1.4671972081 0.60381225391 0.57404952988 0.69302191562 0.54002084522 0.66790778838 0.79216440667 
0.50083690068 0.63877777351 0.77356233629 0.90072551443 0.45538277901 0.60464862014 0.75168694275 0.89058134991 1.0172219679 
0.40226393329 0.56421707518 0.72561863695 0.87851444325 1.0172219679 1.139116835 0.33975332011 0.51573716537 0.69407236469 
0.86392567495 1.0172219679 1.1502619915 1.2630228569 0.26576171152 0.45685295248 0.6552068806 0.84594095064 1.0172219679 
1.1636342747 1.2852923014 1.3852070904 0.22715816343 0.3129712797 0.49462574053 0.49462574053 0.68021497688 0.77059342779 
1.0172219679 1.0172219679 1.0172219679 1.0172219679 2.1243706857 1.5707963268 1.3676273807 1.271087727 1.2156949949 
2.6469669131 2.1243706857 1.7739652728 1.5707963268 1.447813335 1.3676273807 2.8286213739 2.4613776767 2.1243706857 
1.8705049266 1.6937793186 1.5707963268 1.4827341049 2.9144344902 2.6469669131 2.3709992258 2.1243706857 1.9258976586 
1.7739652728 1.6588585487 1.5707963268 1.7563855631 1.8563003522 1.8785697967 1.9779583789 1.9913306621 2.0024758186 
2.1243706857 2.1243706857 2.1243706857 2.1243706857 2.295651703 2.2776669786 2.2630782103 2.2510113037 2.2408671392 
2.486385773 2.4475202889 2.4159740166 2.3899057108 2.3680303173 2.3494282469 2.6847397011 2.6258554882 2.5773755784 
2.5369440334 2.5028148801 2.4736848652 2.448570738 2.8758309421 2.8018393335 2.7393287203 2.6862098746 2.6407557529 
2.6015718084 2.5675431237 2.5377803997 5.8604937156 5.901393709 5.9723133995 5.9473927383 6.0216547488 6.0927478736 
5.9992719463 6.0767621038 6.1501452836 6.2190157008 6.0578962336 6.1383094565 6.2134963469 0 0.064169606361 
6.1241815303 6.206940195 6.2831853072 0.069688960264 0.13304002361 0.19043743361 6.1990255847 0 0.07624511221 
0.14487585072 0.20642320337 0.26153055843 0.3108719077 0 0.084159722458 0.15900377685 0.22528907359 0.28391336087 
0.3357925689 0.38179159818 0.42269159155 5.8604937156 5.9723133995 5.901393709 6.0927478736 6.0216547488 5.9473927383 
6.2190157008 6.1501452836 6.0767621038 5.9992719463 0.064169606361 0 6.2134963469 6.1383094565 6.0578962336 
0.19043743361 0.13304002361 0.069688960264 6.2831853072 6.206940195 6.1241815303 0.3108719077 0.26153055843 0.20642320337 
0.14487585072 0.07624511221 6.2831853072 6.1990255847 0.42269159155 0.38179159818 0.3357925689 0.28391336087 0.22528907359 
0.15900377685 0.084159722458 0 5.6793730533 5.7091357773 5.5901633916 5.743164462 5.6152775188 5.4910209005 
5.7823484065 5.6444075337 5.5096229709 5.3824597928 5.8278025282 5.678536687 5.5314983644 5.3926039573 5.2659633393 
5.8809213739 5.718968232 5.5575666702 5.4046708639 5.2659633393 5.1440684722 5.9434319871 5.7674481418 5.5891129425 
5.4192596322 5.2659633393 5.1329233157 5.0201624502 6.0174235957 5.8263323547 5.6279784266 5.4372443565 5.2659633393 
5.1195510325 4.9978930058 4.8979782167 1.3852070904 1.2852923014 1.2630228569 1.1636342747 1.1502619915 1.139116835 
1.0172219679 1.0172219679 1.0172219679 1.0172219679 0.84594095064 0.86392567495 0.87851444325 0.89058134991 0.90072551443 
0.6552068806 0.69407236469 0.72561863695 0.75168694275 0.77356233629 0.79216440667 0.45685295248 0.51573716537 0.56421707518 
0.60464862014 0.63877777351 0.66790778838 0.69302191562 0.26576171152 0.33975332011 0.40226393329 0.45538277901 0.50083690068 
0.54002084522 0.57404952988 0.60381225391 
_paraPhiHalf 1 1002 double
0 3.1415926536 0 3.1415926536 1.5707963268 1.5707963268 1.5707963268 1.5707963268 2.5880182947 
0.5535743589 2.5880182947 0.5535743589 0 0 0 0 3.1415926536 3.1415926536 
3.1415926536 3.1415926536 3.1415926536 0.17788134 0.38438696014 0.60631181711 0.82323535693 1.0172219679 1.1799687454 
1.3118704726 1.4175000338 1.5022335207 0.17788134 0.38438696014 0.60631181711 0.82323535693 1.0172219679 1.1799687454 
1.3118704726 1.4175000338 1.5022335207 0.093902416448 0.17615329733 0.2478725152 0.31035131605 0.36486382811 0.41257334776 
0.45449736604 0.4915044461 0.52432611754 0.093902416448 0.17615329733 0.2478725152 0.31035131605 0.36486382811 0.41257334776 
0.45449736604 0.4915044461 0.52432611754 2.9637113136 2.7572056934 2.5352808365 2.3183572967 2.1243706857 1.9616239082 
1.829722181 1.7240926197 1.6393591329 2.9637113136 2.7572056934 2.5352808365 2.3183572967 2.1243706857 1.9616239082 
1.829722181 1.7240926197 1.6393591329 3.0476902371 2.9654393563 2.8937201384 2.8312413375 2.7767288255 2.7290193058 
2.6870952876 2.6500882075 2.617266536 3.0476902371 2.9654393563 2.8937201384 2.8312413375 2.7767288255 2.7290193058 
2.6870952876 2.6500882075 2.617266536 0 0 0 0 3.1415926536 3.1415926536 
3.1415926536 3.1415926536 3.1415926536 0.17788134 0.38438696014 0.60631181711 0.82323535693 1.0172219679 1.1799687454 
1.3118704726 1.4175000338 1.5022335207 0.17788134 0.38438696014 0.60631181711 0.82323535693 1.0172219679 1.1799687454 
1.3118704726 1.4175000338 1.5022335207 0.093902416448 0.17615329733 0.2478725152 0.31035131605 0.36486382811 0.41257334776 
0.45449736604 0.4915044461 0.52432611754 0.093902416448 0.17615329733 0.2478725152 0.31035131605 0.36486382811 0.41257334776 
0.45449736604 0.4915044461 0.52432611754 2.9637113136 2.7572056934 2.5352808365 2.3183572967 2.1243706857 1.9616239082 
1.829722181 1.7240926197 1.6393591329 2.9637113136 2.7572056934 2.5352808365 2.3183572967 2.1243706857 1.9616239082 
1.829722181 1.7240926197 1.6393591329 3.0476902371 2.9654393563 2.8937201384 2.8312413375 2.7767288255 2.7290193058 
2.6870952876 2.6500882075 2.617266536 3.0476902371 2.9654393563 2.8937201384 2.8312413375 2.7767288255 2.7290193058 
2.6870952876 2.6500882075 2.617266536 1.5707963268 1.5707963268 1.5707963268 1.5707963268 1.5707963268 1.5707963268 
1.5707963268 1.5707963268 1.5707963268 1.6743954455 1.7840462375 1.8974821136 2.0119052671 2.1243706857 2.232221744 
2.3334263672 2.426721652 2.5115728246 1.4671972081 1.3575464161 1.24411054 1.1296873865 1.0172219679 0.90937090954 
0.80816628637 0.71487100155 0.63001982895 1.6743954455 1.7840462375 1.8974821136 2.0119052671 2.1243706857 2.232221744 
2.3334263672 2.426721652 2.5115728246 1.4671972081 1.3575464161 1.24411054 1.1296873865 1.0172219679 0.90937090954 
0.80816628637 0.71487100155 0.63001982895 1.5707963268 1.5707963268 1.5707963268 1.5707963268 1.5707963268 1.5707963268 
1.5707963268 1.5707963268 1.5707963268 1.6743954455 1.7840462375 1.8974821136 2.0119052671 2.1243706857 2.232221744 
2.3334263672 2.426721652 2.5115728246 1.4671972081 1.3575464161 1.24411054 1.1296873865 1.0172219679 0.90937090954 
0.80816628637 0.71487100155 0.63001982895 1.6743954455 1.7840462375 1.8974821136 2.0119052671 2.1243706857 2.232221744 
2.3334263672 2.426721652 2.5115728246 1.4671972081 1.3575464161 1.24411054 1.1296873865 1.0172219679 0.90937090954 
0.80816628637 0.71487100155 0.63001982895 2.6824132222 2.7864913217 2.8992382033 3.0186096618 3.1415926536 3.0186096618 
2.8992382033 2.7864913217 2.6824132222 0.45917943135 0.35510133185 0.2423544503 0.12298299178 0 0.12298299178 
0.2423544503 0.35510133185 0.45917943135 0.22715816343 0.49462574053 0.3129712797 0.77059342779 0.68021497688 0.49462574053 
1.0172219679 1.0172219679 1.0172219679 1.0172219679 1.2156949949 1.271087727 1.3676273807 1.5707963268 2.1243706857 
1.3676273807 1.447813335 1.5707963268 1.7739652728 2.1243706857 2.6469669131 1.4827341049 1.5707963268 1.6937793186 
1.8705049266 2.1243706857 2.4613776767 2.8286213739 1.5707963268 1.6588585487 1.7739652728 1.9258976586 2.1243706857 
2.3709992258 2.6469669131 2.9144344902 0.26576171152 0.33975332011 0.45685295248 0.40226393329 0.51573716537 0.6552068806 
0.45538277901 0.56421707518 0.69407236469 0.84594095064 0.50083690068 0.60464862014 0.72561863695 0.86392567495 1.0172219679 
0.54002084522 0.63877777351 0.75168694275 0.87851444325 1.0172219679 1.1636342747 0.57404952988 0.66790778838 0.77356233629 
0.89058134991 1.0172219679 1.1502619915 1.2852923014 0.60381225391 0.69302191562 0.79216440667 0.90072551443 1.0172219679 
1.139116835 1.2630228569 1.3852070904 0.71487100155 0.80816628637 0.80816628637 0.90937090954 0.90937090954 0.90937090954 
1.0172219679 1.0172219679 1.0172219679 1.0172219679 1.1296873865 1.1296873865 1.1296873865 1.1296873865 1.1296873865 
1.24411054 1.24411054 1.24411054 1.24411054 1.24411054 1.24411054 1.3575464161 1.3575464161 1.3575464161 
1.3575464161 1.3575464161 1.3575464161 1.3575464161 1.4671972081 1.4671972081 1.4671972081 1.4671972081 1.4671972081 
1.4671972081 1.4671972081 1.4671972081 1.6743954455 1.6743954455 1.7840462375 1.6743954455 1.7840462375 1.8974821136 
1.6743954455 1.7840462375 1.8974821136 2.0119052671 1.6743954455 1.7840462375 1.8974821136 2.0119052671 2.1243706857 
1.6743954455 1.7840462375 1.8974821136 2.0119052671 2.1243706857 2.232221744 1.6743954455 1.7840462375 1.8974821136 
2.0119052671 2.1243706857 2.232221744 2.3334263672 1.6743954455 1.7840462375 1.8974821136 2.0119052671 2.1243706857 
2.232221744 2.3334263672 2.426721652 1.7563855631 1.8785697967 1.8563003522 2.0024758186 1.9913306621 1.9779583789 
2.1243706857 2.1243706857 2.1243706857 2.1243706857 2.2408671392 2.2510113037 2.2630782103 2.2776669786 2.295651703 
2.3494282469 2.3680303173 2.3899057108 2.4159740166 2.4475202889 2.486385773 2.448570738 2.4736848652 2.5028148801 
2.5369440334 2.5773755784 2.6258554882 2.6847397011 2.5377803997 2.5675431237 2.6015718084 2.6407557529 2.6862098746 
2.7393287203 2.8018393335 2.8758309421 2.718901062 2.8307207459 2.7598010554 2.95115522 2.8800620952 2.8058000847 
3.0774230472 3.00855263 2.9351694502 2.8576792927 3.0774230472 3.1415926536 3.0719036933 2.9967168029 2.91630358 
2.95115522 3.00855263 3.0719036933 3.1415926536 3.0653475414 2.9825888767 2.8307207459 2.8800620952 2.9351694502 
2.9967168029 3.0653475414 3.1415926536 3.0574329311 2.718901062 2.7598010554 2.8058000847 2.8576792927 2.91630358 
2.9825888767 3.0574329311 3.1415926536 2.718901062 2.7598010554 2.8307207459 2.8058000847 2.8800620952 2.95115522 
2.8576792927 2.9351694502 3.00855263 3.0774230472 2.91630358 2.9967168029 3.0719036933 3.1415926536 3.0774230472 
2.9825888767 3.0653475414 3.1415926536 3.0719036933 3.00855263 2.95115522 3.0574329311 3.1415926536 3.0653475414 