# vtk DataFile Version 5.1
vtk output
ASCII
DATASET POLYDATA
POINTS 100 float
8.21975 29.7636 10.2283 8.23218 29.7691 10.2318 8.26848 29.7831 10.2385 
8.32744 29.8055 10.2483 8.40718 29.8361 10.2609 8.50534 29.8747 10.2756 
8.61931 29.9211 10.2921 8.74642 29.9746 10.3099 8.88418 30.0348 10.3285 
9.03046 30.1009 10.3475 9.18355 30.1723 10.3669 9.3423 30.2481 10.3863 
9.50603 30.3275 10.4058 9.67449 30.4098 10.4253 9.84775 30.4944 10.4448 
10.026 30.5809 10.4643 10.2096 30.6689 10.4835 10.3986 30.7584 10.5025 
10.593 30.8494 10.5209 10.7927 30.942 10.5387 10.997 31.0363 10.5557 
11.2055 31.1326 10.5718 11.4175 31.2308 10.5871 11.6325 31.3308 10.6018 
11.8498 31.4324 10.6164 12.0695 31.535 10.6312 12.2915 31.638 10.6468 
12.5162 31.7407 10.6638 12.7442 31.8423 10.6827 12.9763 31.9423 10.7038 
13.2131 32.04 10.7272 13.4554 32.1354 10.7527 13.7036 32.2285 10.7798 
13.9576 32.3198 10.8079 14.2173 32.4101 10.836 14.4816 32.5005 10.8633 
14.7496 32.5922 10.8888 15.0197 32.6868 10.9118 15.2901 32.7856 10.9319 
15.559 32.8898 10.9492 15.8248 33.0007 10.9639 16.0858 33.1188 10.9771 
16.3407 33.2447 10.9897 16.5886 33.3783 11.0033 16.8288 33.5195 11.0192 
17.0609 33.6677 11.0388 17.2847 33.8223 11.0631 17.5004 33.9825 11.0926 
17.7078 34.1477 11.1274 17.9074 34.3172 11.167 18.099 34.4905 11.2103 
18.283 34.6671 11.2558 18.4596 34.8467 11.3019 18.6291 35.029 11.3469 
18.7922 35.2136 11.3892 18.9497 35.4002 11.4278 19.1029 35.5882 11.4621 
19.2533 35.7769 11.4921 19.4029 35.9654 11.5187 19.5538 36.1526 11.5431 
19.7083 36.3376 11.5671 19.8686 36.5192 11.5926 20.0365 36.6967 11.6214 
20.2134 36.8695 11.6551 20.4002 37.0372 11.6948 20.5969 37.1999 11.7407 
20.8028 37.3582 11.7926 21.0165 37.5126 11.8492 21.2361 37.6642 11.909 
21.4593 37.814 11.9699 21.6835 37.9631 12.0296 21.9065 38.1122 12.0861 
22.1265 38.2618 12.1377 22.3419 38.4117 12.1833 22.5522 38.5617 12.2228 
22.7574 38.7106 12.2565 22.9582 38.8574 12.2855 23.1557 39.0004 12.3115 
23.3513 39.1382 12.3363 23.5463 39.2694 12.3617 23.7417 39.3932 12.3892 
23.938 39.5088 12.4196 24.1348 39.6166 12.4529 24.3308 39.7171 12.4884 
24.5241 39.8116 12.5244 24.712 39.9017 12.5586 24.8914 39.9892 12.5884 
25.059 40.0758 12.6109 25.2117 40.1629 12.6239 25.347 40.2514 12.6254 
25.4631 40.3414 12.6149 25.5594 40.4322 12.5925 25.6362 40.5223 12.5598 
25.6948 40.6094 12.5194 25.7373 40.6905 12.4747 25.7665 40.7626 12.4299 
25.7853 40.8224 12.3891 25.7966 40.8671 12.3559 25.8026 40.8943 12.3337 
25.8047 40.9025 12.3244 
LINES 2 100
OFFSETS vtktypeint64
0 100 
CONNECTIVITY vtktypeint64
0 1 2 3 4 5 6 7 8 
9 10 11 12 13 14 15 16 17 
18 19 20 21 22 23 24 25 26 
27 28 29 30 31 32 33 34 35 
36 37 38 39 40 41 42 43 44 
45 46 47 48 49 50 51 52 53 
54 55 56 57 58 59 60 61 62 
63 64 65 66 67 68 69 70 71 
72 73 74 75 76 77 78 79 80 
81 82 83 84 85 86 87 88 89 
90 91 92 93 94 95 96 97 98 
99 
POINT_DATA 100
FIELD FieldData 3
_theta 1 100 double
0 0.031733259127 0.063466518254 0.095199777382 0.12693303651 0.15866629564 0.19039955476 0.22213281389 0.25386607302 
0.28559933214 0.31733259127 0.3490658504 0.38079910953 0.41253236865 0.44426562778 0.47599888691 0.50773214603 0.53946540516 
0.57119866429 0.60293192342 0.63466518254 0.66639844167 0.6981317008 0.72986495992 0.76159821905 0.79333147818 0.82506473731 
0.85679799643 0.88853125556 0.92026451469 0.95199777382 0.98373103294 1.0154642921 1.0471975512 1.0789308103 1.1106640695 
1.1423973286 1.1741305877 1.2058638468 1.237597106 1.2693303651 1.3010636242 1.3327968833 1.3645301425 1.3962634016 
1.4279966607 1.4597299198 1.491463179 1.5231964381 1.5549296972 1.5866629564 1.6183962155 1.6501294746 1.6818627337 
1.7135959929 1.745329252 1.7770625111 1.8087957702 1.8405290294 1.8722622885 1.9039955476 1.9357288068 1.9674620659 
1.999195325 2.0309285841 2.0626618433 2.0943951024 2.1261283615 2.1578616206 2.1895948798 2.2213281389 2.253061398 
2.2847946572 2.3165279163 2.3482611754 2.3799944345 2.4117276937 2.4434609528 2.4751942119 2.506927471 2.5386607302 
2.5703939893 2.6021272484 2.6338605076 2.6655937667 2.6973270258 2.7290602849 2.7607935441 2.7925268032 2.8242600623 
2.8559933214 2.8877265806 2.9194598397 2.9511930988 2.982926358 3.0146596171 3.0463928762 3.0781261353 3.1098593945 
3.1415926536 
_radius 1 100 double
6.2147107672e-14 0.2438434016 0.48344498703 0.7151136494 0.93618335439 1.1453324977 1.3426900554 1.5296983948 1.7087395124 
1.8825822684 2.0537690102 2.2241028747 2.3943764527 2.5643879632 2.7331804928 2.89938316 3.0615436348 3.2183855656 
3.3689677239 3.5127495554 3.6495806577 3.7796348472 3.9033079743 4.021096089 4.1334693718 4.2407581223 4.343068057 
4.4402393387 4.5318548278 4.6172907363 4.695794131 4.7665720466 4.8288847777 4.882143667 4.9260144932 4.9605208635 
4.9861329371 5.0038211715 5.0150554333 5.0217364447 5.02605749 5.0303076599 5.0366412851 5.0468480644 5.0621603439 
5.0831252559 5.1095520927 5.1405271972 5.1744787712 5.2092759135 5.242355534 5.2708790734 5.2919216492 5.3026884694 
5.300741471 5.2842094481 5.2519519117 5.2036516882 5.139822261 5.0617303056 4.9712485236 4.8706652958 4.7624826301 
4.6492305629 4.5333156653 4.4169077867 4.3018585847 4.1896426823 4.0813181847 3.9775124458 3.8784432038 3.7839800698 
3.6937395002 3.6071944363 3.5237734394 3.4429260918 3.3641413694 3.2869206405 3.2107216457 3.1348982024 3.0586582974 
2.9810512286 2.9009787875 2.8172151554 2.7284211078 2.6331487991 2.5298464865 2.4168801111 2.2925869108 2.1553668091 
2.0038053449 1.8368126586 1.6537591727 1.454589607 1.2399007425 1.0109731326 0.76975208344 0.51877853397 0.26107553339 
2.8875449161e-14 
_area 1 100 double
0 0.17631014839 0.69317702291 1.5172350288 2.601523076 3.8960665555 5.3587873443 6.9642654434 8.7081753606 
10.605690759 12.683383999 14.966492944 17.466049931 20.171352794 23.050570699 26.057633737 29.141565018 32.255417615 
35.363242003 38.444041485 41.492000759 44.51289715 47.517561789 50.514260857 53.502526087 56.470636437 59.397070993 
62.253997361 65.010355454 67.633167237 70.086995575 72.332766962 74.32811833 76.031153181 77.407917367 78.441902725 
79.14249999 79.549215665 79.729687791 79.771510072 79.769665662 79.812210436 79.967328156 80.276540555 80.757417312 
81.410448742 82.223553125 83.173666315 84.226012599 85.331634633 86.424410122 87.419252234 88.213702668 88.69506869 
88.753299007 88.296853899 87.267296837 85.648911873 83.471332502 80.805003044 77.750865161 74.426734335 70.953200547 
67.441458772 63.98448185 60.652161942 57.490943217 54.527774817 51.775959466 49.239379564 46.913783448 44.78662093 
42.837324037 41.038666646 39.359157343 37.766340604 36.230414064 34.726989916 33.238029925 31.750923375 30.256451116 
28.746431892 27.211527507 25.639620677 24.015437018 22.322070289 20.544391573 18.673427496 16.710399707 14.669383666 
12.578115887 10.477001817 8.4167294174 6.4550657708 4.6533709392 3.0731140365 1.7723757465 0.80219476172 0.20278281579 
0 
