# vtk DataFile Version 5.1
vtk output
ASCII
DATASET POLYDATA
POINTS 1002 float
-5.67264 -0.304422 -3.92146 5.35588 0.556209 -4.03298 -5.9572 0.479387 4.21349 
5.7384 -0.224711 2.7233 0.434663 6.79083 -2.99716 -0.303459 6.85345 3.41211 
-0.148515 -6.77694 -2.76703 -0.0797618 -6.44767 2.52385 10.7388 4.3746 0.198613 
-10.5874 4.27314 0.431577 11.3315 -4.67647 0.984541 -10.5995 -4.59364 0.596699 
-4.79463 -0.273017 -4.44456 -3.86074 -0.18137 -4.95314 -2.84178 -0.0640142 -5.25606 
-1.62867 -0.0217679 -5.29143 -0.236278 -0.0540609 -5.22566 1.09503 -0.022141 -5.19537 
2.2173 0.138775 -5.10804 3.25496 0.335897 -4.84514 4.32322 0.476216 -4.44781 
-5.4838 0.361493 -4.13169 -5.16921 1.02086 -4.34634 -4.66135 1.70434 -4.43306 
-4.00481 2.51206 -4.31772 -3.3083 3.41528 -4.09522 -2.59935 4.22938 -3.92247 
-1.84158 4.89603 -3.80795 -1.05078 5.53563 -3.63379 -0.281823 6.19502 -3.34457 
-5.30409 -0.975937 -4.08124 -4.94006 -1.64334 -4.26099 -4.52067 -2.29014 -4.35119 
-3.90221 -3.05476 -4.36999 -3.07424 -4.02539 -4.42682 -2.2564 -4.97406 -4.41614 
-1.63183 -5.61486 -4.10145 -1.14528 -6.00581 -3.54617 -0.662444 -6.37624 -3.05306 
-6.45018 0.0932698 -3.56234 -7.23703 0.437412 -3.16327 -7.93996 0.679506 -2.59731 
-8.56296 0.947633 -1.90919 -9.22203 1.42591 -1.39217 -9.95062 2.07287 -1.20781 
-10.5629 2.68473 -1.12034 -10.8482 3.20643 -0.818213 -10.8055 3.72916 -0.252168 
-6.3152 -0.743258 -3.55302 -7.02269 -1.22384 -3.38637 -7.80978 -1.72238 -3.46681 
-8.63486 -2.21341 -3.52111 -9.38132 -2.63613 -3.17529 -9.95006 -2.90806 -2.3844 
-10.3313 -3.08792 -1.43326 -10.5552 -3.39503 -0.582186 -10.64 -3.9416 0.0872849 
4.94184 1.27433 -4.08804 4.53115 1.9491 -4.30838 4.11777 2.59025 -4.65976 
3.6213 3.29181 -4.88415 3.01965 4.08639 -4.76718 2.41753 4.88463 -4.44516 
1.89716 5.58714 -4.16976 1.42089 6.14353 -3.92072 0.931802 6.53594 -3.53391 
5.13254 -0.243539 -4.30116 4.81207 -1.02763 -4.46954 4.32523 -1.68772 -4.31044 
3.72172 -2.31957 -3.90915 3.11923 -3.11533 -3.6726 2.51019 -4.05893 -3.73969 
1.80874 -4.94836 -3.74689 1.06138 -5.67094 -3.44326 0.396898 -6.25942 -3.02827 
6.11788 1.05 -3.69661 6.94412 1.44915 -3.56834 7.81127 1.74134 -3.58627 
8.64829 2.08233 -3.41321 9.3753 2.59098 -2.8666 9.99223 3.16293 -2.1892 
10.5261 3.64795 -1.62175 10.8953 4.01861 -1.08072 10.9706 4.27231 -0.447891 
6.20495 0.132195 -3.75533 6.95843 -0.255781 -3.33007 7.55112 -0.564061 -2.69707 
8.14023 -0.929325 -1.99725 8.94616 -1.51364 -1.46243 9.89223 -2.24056 -1.11561 
10.658 -2.92677 -0.759714 11.0862 -3.54749 -0.258745 11.2708 -4.1464 0.353455 
-4.87585 0.482112 4.34203 -3.73491 0.433049 4.25709 -2.6067 0.416992 3.95221 
-1.49588 0.445851 3.60567 -0.270344 0.387006 3.36122 1.14186 0.165059 3.14383 
2.54918 -0.0783286 2.87846 3.73676 -0.1861 2.67017 4.74713 -0.191344 2.62723 
-5.62495 1.09694 4.43709 -5.1748 1.76139 4.66046 -4.6193 2.53545 4.83763 
-3.98362 3.39135 4.96274 -3.31692 4.21213 4.97924 -2.69393 4.93671 4.79859 
-2.13402 5.57623 4.4652 -1.5686 6.1165 4.11068 -0.947363 6.53484 3.77303 
-5.53605 -0.158552 4.15439 -5.03456 -0.894005 4.10925 -4.5425 -1.66113 3.93033 
-4.11182 -2.36496 3.48495 -3.65551 -3.0091 2.91394 -3.03541 -3.69423 2.52767 
-2.25405 -4.45459 2.42752 -1.44431 -5.21532 2.46971 -0.711664 -5.89367 2.51606 
-6.84311 0.814185 4.10702 -7.73551 1.16431 3.91269 -8.58283 1.54988 3.60908 
-9.36095 1.96623 3.22253 -10.0612 2.4581 2.83637 -10.6409 3.11832 2.49313 
-11.0071 3.85188 2.11722 -11.0895 4.35146 1.61743 -10.9167 4.44913 1.01906 
-6.7955 -0.00355487 3.95471 -7.66804 -0.615609 3.7597 -8.51448 -1.21579 3.70699 
-9.28757 -1.68865 3.66486 -10.0103 -2.18648 3.37818 -10.6943 -2.93183 2.80665 
-11.2028 -3.77838 2.17635 -11.3469 -4.36149 1.64113 -11.0984 -4.57496 1.14356 
5.25765 0.343631 2.64693 4.72002 0.97888 2.67333 4.18012 1.69573 2.74509 
3.67749 2.4437 2.77678 3.18176 3.15013 2.79358 2.60894 3.85951 2.94345 
1.91237 4.66872 3.24993 1.13418 5.52526 3.51191 0.368036 6.2766 3.55684 
5.51853 -0.755787 2.79396 5.26025 -1.39635 2.93521 4.98088 -2.1164 3.14943 
4.57923 -2.75589 3.38655 3.91684 -3.24075 3.53362 3.02569 -3.74358 3.46783 
2.0933 -4.41277 3.18563 1.25609 -5.15411 2.84611 0.537447 -5.83391 2.61709 
6.53572 0.0233909 2.78152 7.39656 0.282476 2.79917 8.18831 0.586675 2.71122 
8.84152 0.908346 2.52346 9.41931 1.24777 2.32078 9.9557 1.75211 2.14385 
10.3663 2.51419 1.91201 10.6022 3.34688 1.51111 10.7126 3.98748 0.914097 
6.72325 -0.678491 2.95355 7.8187 -1.2571 3.2741 8.89171 -1.87299 3.5762 
9.90173 -2.48495 3.73901 10.9022 -3.2419 3.69284 11.7917 -4.24307 3.42114 
12.2917 -5.17796 2.92532 12.2745 -5.56583 2.2603 11.8834 -5.29693 1.56717 
0.551242 7.2436 -2.40708 0.6552 7.71045 -1.85152 0.734097 8.23045 -1.35314 
0.720573 8.75255 -0.748853 0.535713 9.07235 0.0944738 0.230369 8.98858 1.03071 
-0.0383039 8.53303 1.83144 -0.193533 7.92994 2.46329 -0.269445 7.35842 2.98982 
1.48765 7.17173 -2.96447 2.62128 7.45958 -2.84949 3.77857 7.64025 -2.68284 
4.97292 7.71733 -2.54288 6.23963 7.56282 -2.45798 7.52306 7.00384 -2.29616 
8.68742 6.16452 -1.87756 9.61836 5.39657 -1.2057 10.2843 4.8452 -0.459897 
-0.508831 6.63296 -2.57857 -1.46609 6.40384 -2.11627 -2.47096 6.10242 -1.74023 
-3.68031 5.78423 -1.46284 -5.09333 5.52099 -1.16565 -6.43597 5.26609 -0.785792 
-7.55328 4.94044 -0.390177 -8.58589 4.61924 -0.0528352 -9.63225 4.41188 0.214534 
0.7762 6.78397 3.09607 1.92562 6.64139 2.61662 3.03934 6.50979 2.02586 
4.10771 6.43218 1.49895 5.21055 6.24983 1.11553 6.39681 5.7951 0.82789 
7.64823 5.23106 0.633987 8.88957 4.8426 0.526035 9.97045 4.62664 0.402843 
-1.2992 7.12459 3.44256 -2.25179 7.2798 3.51551 -3.20902 7.26005 3.56186 
-4.29622 6.97095 3.33297 -5.50846 6.47211 2.78205 -6.68578 6.02973 2.22614 
-7.75003 5.74952 1.85515 -8.75742 5.42564 1.49748 -9.72512 4.90226 1.0014 
-0.133572 -7.36766 -2.5978 -0.165111 -7.97382 -2.39304 -0.282445 -8.43379 -1.90453 
-0.410871 -8.644 -1.06836 -0.4501 -8.64551 -0.0834044 -0.394941 -8.51862 0.843733 
-0.292911 -8.24481 1.62052 -0.181172 -7.76973 2.16408 -0.100582 -7.13186 2.43668 
0.732927 -6.73633 -2.64787 1.73048 -6.32493 -2.3528 2.86547 -5.62874 -1.80208 
4.12742 -5.12708 -1.20937 5.42655 -5.01874 -0.774802 6.66722 -4.8292 -0.380156 
7.86523 -4.29059 0.0940536 9.08491 -3.8969 0.517551 10.2858 -4.09355 0.787687 
-1.02326 -7.02476 -2.80684 -2.00159 -7.34747 -3.01622 -3.0093 -7.74231 -3.19006 
-3.91148 -7.88728 -2.9725 -4.70845 -7.49675 -2.36507 -5.62804 -6.78233 -1.72989 
-6.83654 -6.14973 -1.19773 -8.20376 -5.66775 -0.616125 -9.49434 -5.17383 0.0304097 
0.959855 -6.5418 2.5667 2.23485 -6.63149 2.68199 3.65687 -6.73812 2.84013 
4.98665 -6.69856 2.92498 6.12923 -6.26431 2.8268 7.26632 -5.52358 2.55869 
8.50932 -4.91907 2.22202 9.69908 -4.6989 1.86481 10.6516 -4.70227 1.45659 
-1.02826 -6.77026 2.51139 -2.04584 -7.10835 2.4919 -3.16614 -7.25979 2.34827 
-4.34364 -6.96539 2.03371 -5.51908 -6.35947 1.63574 -6.69186 -5.98441 1.29072 
-7.84392 -6.02109 1.04996 -8.90101 -6.00241 0.877869 -9.81702 -5.50264 0.734374 
11.2681 3.71488 0.393841 11.676 2.68935 0.552651 12.0247 1.4213 0.727564 
12.3591 0.186275 0.925034 12.6562 -0.975788 1.0233 12.8656 -2.27711 0.91967 
12.9205 -3.64327 0.729776 12.7104 -4.60824 0.668411 12.1601 -4.88775 0.791773 
-11.5806 3.74968 0.184557 -12.4882 3.12714 -0.0492951 -13.3632 2.36468 -0.165123 
-14.2854 1.44897 -0.0929059 -15.0271 0.503375 0.148277 -15.0861 -0.337585 0.460992 
-14.2871 -1.17815 0.720228 -13.0167 -2.22904 0.831426 -11.7344 -3.45725 0.774161 
-4.52991 0.434343 -4.59647 -4.13815 1.16522 -4.68363 -3.52701 0.578472 -4.96646 
-3.56281 1.96443 -4.67857 -3.07271 1.38753 -4.9492 -2.4181 0.729279 -5.18915 
-2.85578 2.85497 -4.58507 -2.43299 2.24818 -4.96404 -1.87844 1.56938 -5.23123 
-1.08988 0.768342 -5.33251 -2.11341 3.70638 -4.45009 -1.64889 3.09102 -4.93558 
-1.16019 2.412 -5.33764 -0.477544 1.60462 -5.53475 0.349491 0.735868 -5.4493 
-1.36079 4.42394 -4.31731 -0.833551 3.83411 -4.77632 -0.325142 3.1891 -5.24751 
0.250765 2.4412 -5.61438 0.946473 1.59548 -5.65605 1.63713 0.799569 -5.40478 
-0.585237 5.11498 -4.15387 -0.0526762 4.56111 -4.53004 0.483421 3.93746 -4.90556 
1.02981 3.24351 -5.33049 1.62074 2.46554 -5.54939 2.21067 1.69136 -5.39264 
2.75027 0.990933 -5.07154 0.191985 5.85239 -3.89228 0.696557 5.36508 -4.25015 
1.2099 4.75665 -4.51242 1.75354 4.05681 -4.8552 2.3372 3.29143 -5.16418 
2.8945 2.53954 -5.14999 3.3814 1.85413 -4.8471 3.84568 1.18168 -4.56176 
-6.25154 0.771142 -3.80793 -6.96633 1.11439 -3.35314 -5.8589 1.416 -4.03566 
-7.53788 1.39139 -2.62902 -6.48444 1.77202 -3.47829 -5.25563 2.11184 -4.03618 
-8.04086 1.74912 -1.82042 -7.00236 2.12673 -2.65681 -5.84152 2.50388 -3.37515 
-4.54344 2.96515 -3.78754 -8.63926 2.28296 -1.31493 -7.51226 2.59753 -1.91383 
-6.37934 2.91768 -2.62519 -5.08771 3.35768 -3.1228 -3.78571 3.87514 -3.50484 
-9.28483 2.87279 -1.13737 -8.08682 3.19094 -1.50209 -6.90111 3.4566 -2.06864 
-5.561 3.7495 -2.53286 -4.18566 4.20821 -2.89118 -2.95634 4.65354 -3.32536 
-9.71017 3.39313 -0.922651 -8.55112 3.75535 -1.19916 -7.36392 4.08262 -1.64178 
-5.98083 4.27865 -2.05182 -4.49247 4.55013 -2.34194 -3.18535 4.96126 -2.67614 
-2.08592 5.31945 -3.15395 -9.7841 3.88709 -0.443389 -8.69873 4.21064 -0.710618 
-7.59507 4.60174 -1.08728 -6.30676 4.85995 -1.48824 -4.8039 5.03633 -1.79313 
-3.39115 5.3195 -2.0451 -2.25577 5.68197 -2.40556 -1.26082 5.98552 -2.89134 
-8.65322 5.02644 0.729735 -7.62928 5.5095 1.14983 -7.55654 5.18317 0.394446 
-6.62704 5.89775 1.47565 -6.5087 5.63572 0.750773 -6.48261 5.4565 -0.00168313 
-5.56049 6.42529 1.91202 -5.45851 6.17795 1.067 -5.35949 5.9796 0.295969 
-5.27489 5.82664 -0.455072 -4.37266 7.1098 2.49285 -4.31018 6.99339 1.51908 
-4.1869 6.77587 0.571027 -4.06859 6.56544 -0.233069 -3.90085 6.24838 -0.891623 
-3.21445 7.62518 2.90748 -3.12043 7.81735 2.01591 -2.96754 7.78848 0.952105 
-2.84374 7.57666 -0.0351995 -2.73921 7.19063 -0.737033 -2.59955 6.65451 -1.23799 
-2.20772 7.76985 3.00539 -2.06917 8.23806 2.3041 -1.85421 8.54033 1.3459 
[...]
POINT_DATA 1002
FIELD FieldData 4
_paraPhi 1 1002 double
6.2831853072 3.1415926536 6.2831853072 3.1415926536 4.7123889804 4.7123889804 1.5707963268 1.5707963268 3.6951670125 
5.7296109483 2.5880182947 0.5535743589 6.2831853072 6.2831853072 6.2831853072 6.2831853072 3.1415926536 3.1415926536 
3.1415926536 3.1415926536 3.1415926536 6.1053039672 5.898798347 5.6768734901 5.4599499503 5.2659633393 5.1032165617 
4.9713148346 4.8656852733 4.7809517865 0.17788134 0.38438696014 0.60631181711 0.82323535693 1.0172219679 1.1799687454 
1.3118704726 1.4175000338 1.5022335207 6.1892828907 6.1070320098 6.035312792 5.9728339911 5.9183214791 5.8706119594 
5.8286879411 5.7916808611 5.7588591896 0.093902416448 0.17615329733 0.2478725152 0.31035131605 0.36486382811 0.41257334776 
0.45449736604 0.4915044461 0.52432611754 3.3194739936 3.5259796137 3.7479044707 3.9648280105 4.1588146215 4.321561399 
4.4534631262 4.5590926874 4.6438261743 2.9637113136 2.7572056934 2.5352808365 2.3183572967 2.1243706857 1.9616239082 
1.829722181 1.7240926197 1.6393591329 3.23549507 3.3177459509 3.3894651688 3.4519439696 3.5064564817 3.5541660013 
3.5960900196 3.6330970997 3.6659187711 3.0476902371 2.9654393563 2.8937201384 2.8312413375 2.7767288255 2.7290193058 
2.6870952876 2.6500882075 2.617266536 6.2831853072 6.2831853072 6.2831853072 6.2831853072 3.1415926536 3.1415926536 
3.1415926536 3.1415926536 3.1415926536 6.1053039672 5.898798347 5.6768734901 5.4599499503 5.2659633393 5.1032165617 
4.9713148346 4.8656852733 4.7809517865 0.17788134 0.38438696014 0.60631181711 0.82323535693 1.0172219679 1.1799687454 
1.3118704726 1.4175000338 1.5022335207 6.1892828907 6.1070320098 6.035312792 5.9728339911 5.9183214791 5.8706119594 
5.8286879411 5.7916808611 5.7588591896 0.093902416448 0.17615329733 0.2478725152 0.31035131605 0.36486382811 0.41257334776 
0.45449736604 0.4915044461 0.52432611754 3.3194739936 3.5259796137 3.7479044707 3.9648280105 4.1588146215 4.321561399 
4.4534631262 4.5590926874 4.6438261743 2.9637113136 2.7572056934 2.5352808365 2.3183572967 2.1243706857 1.9616239082 
1.829722181 1.7240926197 1.6393591329 3.23549507 3.3177459509 3.3894651688 3.4519439696 3.5064564817 3.5541660013 
3.5960900196 3.6330970997 3.6659187711 3.0476902371 2.9654393563 2.8937201384 2.8312413375 2.7767288255 2.7290193058 
2.6870952876 2.6500882075 2.617266536 4.7123889804 4.7123889804 4.7123889804 4.7123889804 4.7123889804 4.7123889804 
4.7123889804 4.7123889804 4.7123889804 4.6087898617 4.4991390697 4.3857031936 4.2712800401 4.1588146215 4.0509635631 
3.94975894 3.8564636551 3.7716124825 4.8159880991 4.9256388911 5.0390747672 5.1534979207 5.2659633393 5.3738143976 
5.4750190208 5.5683143056 5.6531654782 4.6087898617 4.4991390697 4.3857031936 4.2712800401 4.1588146215 4.0509635631 
3.94975894 3.8564636551 3.7716124825 4.8159880991 4.9256388911 5.0390747672 5.1534979207 5.2659633393 5.3738143976 
5.4750190208 5.5683143056 5.6531654782 1.5707963268 1.5707963268 1.5707963268 1.5707963268 1.5707963268 1.5707963268 
1.5707963268 1.5707963268 1.5707963268 1.6743954455 1.7840462375 1.8974821136 2.0119052671 2.1243706857 2.232221744 
2.3334263672 2.426721652 2.5115728246 1.4671972081 1.3575464161 1.24411054 1.1296873865 1.0172219679 0.90937090954 
0.80816628637 0.71487100155 0.63001982895 1.6743954455 1.7840462375 1.8974821136 2.0119052671 2.1243706857 2.232221744 
2.3334263672 2.426721652 2.5115728246 1.4671972081 1.3575464161 1.24411054 1.1296873865 1.0172219679 0.90937090954 
0.80816628637 0.71487100155 0.63001982895 3.6007720849 3.4966939854 3.3839471039 3.2645756454 3.1415926536 3.0186096618 
2.8992382033 2.7864913217 2.6824132222 5.8240058758 5.9280839753 6.0408308569 6.1602023154 6.2831853072 0.12298299178 
0.2423544503 0.35510133185 0.45917943135 6.0560271438 5.7885595667 5.9702140275 5.5125918794 5.6029703303 5.7885595667 
5.2659633393 5.2659633393 5.2659633393 5.2659633393 5.0674903122 5.0120975802 4.9155579264 4.7123889804 4.1588146215 
4.9155579264 4.8353719722 4.7123889804 4.5092200343 4.1588146215 3.6362183941 4.8004512023 4.7123889804 4.5894059886 
4.4126803806 4.1588146215 3.8218076305 3.4545639333 4.7123889804 4.6243267584 4.5092200343 4.3572876485 4.1588146215 
3.9121860814 3.6362183941 3.368750817 6.0174235957 5.9434319871 5.8263323547 5.8809213739 5.7674481418 5.6279784266 
5.8278025282 5.718968232 5.5891129425 5.4372443565 5.7823484065 5.678536687 5.5575666702 5.4192596322 5.2659633393 
5.743164462 5.6444075337 5.5314983644 5.4046708639 5.2659633393 5.1195510325 5.7091357773 5.6152775188 5.5096229709 
5.3926039573 5.2659633393 5.1329233157 4.9978930058 5.6793730533 5.5901633916 5.4910209005 5.3824597928 5.2659633393 
5.1440684722 5.0201624502 4.8979782167 5.5683143056 5.4750190208 5.4750190208 5.3738143976 5.3738143976 5.3738143976 
5.2659633393 5.2659633393 5.2659633393 5.2659633393 5.1534979207 5.1534979207 5.1534979207 5.1534979207 5.1534979207 
5.0390747672 5.0390747672 5.0390747672 5.0390747672 5.0390747672 5.0390747672 4.9256388911 4.9256388911 4.9256388911 
4.9256388911 4.9256388911 4.9256388911 4.9256388911 4.8159880991 4.8159880991 4.8159880991 4.8159880991 4.8159880991 
4.8159880991 4.8159880991 4.8159880991 4.6087898617 4.6087898617 4.4991390697 4.6087898617 4.4991390697 4.3857031936 
4.6087898617 4.4991390697 4.3857031936 4.2712800401 4.6087898617 4.4991390697 4.3857031936 4.2712800401 4.1588146215 
4.6087898617 4.4991390697 4.3857031936 4.2712800401 4.1588146215 4.0509635631 4.6087898617 4.4991390697 4.3857031936 
4.2712800401 4.1588146215 4.0509635631 3.94975894 4.6087898617 4.4991390697 4.3857031936 4.2712800401 4.1588146215 
4.0509635631 3.94975894 3.8564636551 4.526799744 4.4046155105 4.426884955 4.2807094886 4.2918546451 4.3052269283 
4.1588146215 4.1588146215 4.1588146215 4.1588146215 4.042318168 4.0321740035 4.0201070968 4.0055183285 3.9875336042 
3.9337570603 3.9151549899 3.8932795963 3.8672112905 3.8356650183 3.7967995342 3.8346145692 3.809500442 3.7803704271 
3.7462412737 3.7058097288 3.657329819 3.5984456061 3.7454049075 3.7156421835 3.6816134988 3.6424295543 3.5969754326 
3.5438565869 3.4813459737 3.4073543651 3.5642842451 3.4524645613 3.5233842518 3.3320300872 3.403123212 3.4773852225 
3.20576226 3.2746326772 3.348015857 3.4255060145 3.0774230472 3.1415926536 3.2112816139 3.2864685043 3.3668817272 
2.95115522 3.00855263 3.0719036933 3.1415926536 3.2178377658 3.3005964304 2.8307207459 2.8800620952 2.9351694502 
2.9967168029 3.0653475414 3.1415926536 3.225752376 2.718901062 2.7598010554 2.8058000847 2.8576792927 2.91630358 
2.9825888767 3.0574329311 3.1415926536 3.5642842451 3.5233842518 3.4524645613 3.4773852225 3.403123212 3.3320300872 
3.4255060145 3.348015857 3.2746326772 3.20576226 3.3668817272 3.2864685043 3.2112816139 3.1415926536 3.0774230472 
3.3005964304 3.2178377658 3.1415926536 3.0719036933 3.00855263 2.95115522 3.225752376 3.1415926536 3.0653475414 
2.9967168029 2.9351694502 2.8800620952 2.8307207459 3.1415926536 3.0574329311 2.9825888767 2.91630358 2.8576792927 
2.8058000847 2.7598010554 2.718901062 4.526799744 4.426884955 4.4046155105 4.3052269283 4.2918546451 4.2807094886 
4.1588146215 4.1588146215 4.1588146215 4.1588146215 3.9875336042 4.0055183285 4.0201070968 4.0321740035 4.042318168 
3.7967995342 3.8356650183 3.8672112905 3.8932795963 3.9151549899 3.9337570603 3.5984456061 3.657329819 3.7058097288 
3.7462412737 3.7803704271 3.809500442 3.8346145692 3.4073543651 3.4813459737 3.5438565869 3.5969754326 3.6424295543 
3.6816134988 3.7156421835 3.7454049075 4.7123889804 4.8004512023 4.6243267584 4.9155579264 4.7123889804 4.5092200343 
5.0674903122 4.8353719722 4.5894059886 4.3572876485 5.2659633393 5.0120975802 4.7123889804 4.4126803806 4.1588146215 
5.5125918794 5.2659633393 4.9155579264 4.5092200343 4.1588146215 3.9121860814 5.7885595667 5.6029703303 5.2659633393 
4.7123889804 4.1588146215 3.8218076305 3.6362183941 6.0560271438 5.9702140275 5.7885595667 5.2659633393 4.1588146215 
3.6362183941 3.4545639333 3.368750817 0.22715816343 0.49462574053 0.3129712797 0.77059342779 0.68021497688 0.49462574053 
1.0172219679 1.0172219679 1.0172219679 1.0172219679 1.2156949949 1.271087727 1.3676273807 1.5707963268 2.1243706857 
1.3676273807 1.447813335 1.5707963268 1.7739652728 2.1243706857 2.6469669131 1.4827341049 1.5707963268 1.6937793186 
1.8705049266 2.1243706857 2.4613776767 2.8286213739 1.5707963268 1.6588585487 1.7739652728 1.9258976586 2.1243706857 
2.3709992258 2.6469669131 2.9144344902 1.7563855631 1.8785697967 1.8563003522 2.0024758186 1.9913306621 1.9779583789 
2.1243706857 2.1243706857 2.1243706857 2.1243706857 2.2408671392 2.2510113037 2.2630782103 2.2776669786 2.295651703 
2.3494282469 2.3680303173 2.3899057108 2.4159740166 2.4475202889 2.486385773 2.448570738 2.4736848652 2.5028148801 
2.5369440334 2.5773755784 2.6258554882 2.6847397011 2.5377803997 2.5675431237 2.6015718084 2.6407557529 2.6862098746 
2.7393287203 2.8018393335 2.8758309421 1.6743954455 1.6743954455 1.7840462375 1.6743954455 1.7840462375 1.8974821136 
1.6743954455 1.7840462375 1.8974821136 2.0119052671 1.6743954455 1.7840462375 1.8974821136 2.0119052671 2.1243706857 
1.6743954455 1.7840462375 1.8974821136 2.0119052671 2.1243706857 2.232221744 1.6743954455 1.7840462375 1.8974821136 
2.0119052671 2.1243706857 2.232221744 2.3334263672 1.6743954455 1.7840462375 1.8974821136 2.0119052671 2.1243706857 
2.232221744 2.3334263672 2.426721652 1.4671972081 1.3575464161 1.4671972081 1.24411054 1.3575464161 1.4671972081 
1.1296873865 1.24411054 1.3575464161 1.4671972081 1.0172219679 1.1296873865 1.24411054 1.3575464161 1.4671972081 
0.90937090954 1.0172219679 1.1296873865 1.24411054 1.3575464161 1.4671972081 0.80816628637 0.90937090954 1.0172219679 
1.1296873865 1.24411054 1.3575464161 1.4671972081 0.71487100155 0.80816628637 0.90937090954 1.0172219679 1.1296873865 
1.24411054 1.3575464161 1.4671972081 0.60381225391 0.57404952988 0.69302191562 0.54002084522 0.66790778838 0.79216440667 
0.50083690068 0.63877777351 0.77356233629 0.90072551443 0.45538277901 0.60464862014 0.75168694275 0.89058134991 1.0172219679 
0.40226393329 0.56421707518 0.72561863695 0.87851444325 1.0172219679 1.139116835 0.33975332011 0.51573716537 0.69407236469 
0.86392567495 1.0172219679 1.1502619915 1.2630228569 0.26576171152 0.45685295248 0.6552068806 0.84594095064 1.0172219679 
1.1636342747 1.2852923014 1.3852070904 0.22715816343 0.3129712797 0.49462574053 0.49462574053 0.68021497688 0.77059342779 
1.0172219679 1.0172219679 1.0172219679 1.0172219679 2.1243706857 1.5707963268 1.3676273807 1.271087727 1.2156949949 
2.6469669131 2.1243706857 1.7739652728 1.5707963268 1.447813335 1.3676273807 2.8286213739 2.4613776767 2.1243706857 
1.8705049266 1.6937793186 1.5707963268 1.4827341049 2.9144344902 2.6469669131 2.3709992258 2.1243706857 1.9258976586 
1.7739652728 1.6588585487 1.5707963268 1.7563855631 1.8563003522 1.8785697967 1.9779583789 1.9913306621 2.0024758186 
2.1243706857 2.1243706857 2.1243706857 2.1243706857 2.295651703 2.2776669786 2.2630782103 2.2510113037 2.2408671392 
2.486385773 2.4475202889 2.4159740166 2.3899057108 2.3680303173 2.3494282469 2.6847397011 2.6258554882 2.5773755784 
2.5369440334 2.5028148801 2.4736848652 2.448570738 2.8758309421 2.8018393335 2.7393287203 2.6862098746 2.6407557529 
2.6015718084 2.5675431237 2.5377803997 5.8604937156 5.901393709 5.9723133995 5.9473927383 6.0216547488 6.0927478736 
5.9992719463 6.0767621038 6.1501452836 6.2190157008 6.0578962336 6.1383094565 6.2134963469 0 0.064169606361 
6.1241815303 6.206940195 6.2831853072 0.069688960264 0.13304002361 0.19043743361 6.1990255847 0 0.07624511221 
0.14487585072 0.20642320337 0.26153055843 0.3108719077 0 0.084159722458 0.15900377685 0.22528907359 0.28391336087 
0.3357925689 0.38179159818 0.42269159155 5.8604937156 5.9723133995 5.901393709 6.0927478736 6.0216547488 5.9473927383 
6.2190157008 6.1501452836 6.0767621038 5.9992719463 0.064169606361 0 6.2134963469 6.1383094565 6.0578962336 
0.19043743361 0.13304002361 0.069688960264 6.2831853072 6.206940195 6.1241815303 0.3108719077 0.26153055843 0.20642320337 
0.14487585072 0.07624511221 6.2831853072 6.1990255847 0.42269159155 0.38179159818 0.3357925689 0.28391336087 0.22528907359 
0.15900377685 0.084159722458 0 5.6793730533 5.7091357773 5.5901633916 5.743164462 5.6152775188 5.4910209005 
5.7823484065 5.6444075337 5.5096229709 5.3824597928 5.8278025282 5.678536687 5.5314983644 5.3926039573 5.2659633393 
5.8809213739 5.718968232 5.5575666702 5.4046708639 5.2659633393 5.1440684722 5.9434319871 5.7674481418 5.5891129425 
5.4192596322 5.2659633393 5.1329233157 5.0201624502 6.0174235957 5.8263323547 5.6279784266 5.4372443565 5.2659633393 
5.1195510325 4.9978930058 4.8979782167 1.3852070904 1.2852923014 1.2630228569 1.1636342747 1.1502619915 1.139116835 
1.0172219679 1.0172219679 1.0172219679 1.0172219679 0.84594095064 0.86392567495 0.87851444325 0.89058134991 0.90072551443 
0.6552068806 0.69407236469 0.72561863695 0.75168694275 0.77356233629 0.79216440667 0.45685295248 0.51573716537 0.56421707518 
0.60464862014 0.63877777351 0.66790778838 0.69302191562 0.26576171152 0.33975332011 0.40226393329 0.45538277901 0.50083690068 
0.54002084522 0.57404952988 0.60381225391 
_paraPhiHalf 1 1002 double
0 3.1415926536 0 3.1415926536 1.5707963268 1.5707963268 1.5707963268 1.5707963268 2.5880182947 
0.5535743589 2.5880182947 0.5535743589 0 0 0 0 3.1415926536 3.1415926536 
3.1415926536 3.1415926536 3.1415926536 0.17788134 0.38438696014 0.60631181711 0.82323535693 1.0172219679 1.1799687454 
1.3118704726 1.4175000338 1.5022335207 0.17788134 0.38438696014 0.60631181711 0.82323535693 1.0172219679 1.1799687454 
1.3118704726 1.4175000338 1.5022335207 0.093902416448 0.17615329733 0.2478725152 0.31035131605 0.36486382811 0.41257334776 
0.45449736604 0.4915044461 0.52432611754 0.093902416448 0.17615329733 0.2478725152 0.31035131605 0.36486382811 0.41257334776 
0.45449736604 0.4915044461 0.52432611754 2.9637113136 2.7572056934 2.5352808365 2.3183572967 2.1243706857 1.9616239082 
1.829722181 1.7240926197 1.6393591329 2.9637113136 2.7572056934 2.5352808365 2.3183572967 2.1243706857 1.9616239082 
1.829722181 1.7240926197 1.6393591329 3.0476902371 2.9654393563 2.8937201384 2.8312413375 2.7767288255 2.7290193058 
2.6870952876 2.6500882075 2.617266536 3.0476902371 2.9654393563 2.8937201384 2.8312413375 2.7767288255 2.7290193058 
2.6870952876 2.6500882075 2.617266536 0 0 0 0 3.1415926536 3.1415926536 
3.1415926536 3.1415926536 3.1415926536 0.17788134 0.38438696014 0.60631181711 0.82323535693 1.0172219679 1.1799687454 
1.3118704726 1.4175000338 1.5022335207 0.17788134 0.38438696014 0.60631181711 0.82323535693 1.0172219679 1.1799687454 
1.3118704726 1.4175000338 1.5022335207 0.093902416448 0.17615329733 0.2478725152 0.31035131605 0.36486382811 0.41257334776 
0.45449736604 0.4915044461 0.52432611754 0.093902416448 0.17615329733 0.2478725152 0.31035131605 0.36486382811 0.41257334776 
0.45449736604 0.4915044461 0.52432611754 2.9637113136 2.7572056934 2.5352808365 2.3183572967 2.1243706857 1.9616239082 
1.829722181 1.7240926197 1.6393591329 2.9637113136 2.7572056934 2.5352808365 2.3183572967 2.1243706857 1.9616239082 
1.829722181 1.7240926197 1.6393591329 3.0476902371 2.9654393563 2.8937201384 2.8312413375 2.7767288255 2.7290193058 
2.6870952876 2.6500882075 2.617266536 3.0476902371 2.9654393563 2.8937201384 2.8312413375 2.7767288255 2.7290193058 
2.6870952876 2.6500882075 2.617266536 1.5707963268 1.5707963268 1.5707963268 1.5707963268 1.5707963268 1.5707963268 
1.5707963268 1.5707963268 1.5707963268 1.6743954455 1.7840462375 1.8974821136 2.0119052671 2.1243706857 2.232221744 
2.3334263672 2.426721652 2.5115728246 1.4671972081 1.3575464161 1.24411054 1.1296873865 1.0172219679 0.90937090954 
0.80816628637 0.71487100155 0.63001982895 1.6743954455 1.7840462375 1.8974821136 2.0119052671 2.1243706857 2.232221744 
2.3334263672 2.426721652 2.5115728246 1.4671972081 1.3575464161 1.24411054 1.1296873865 1.0172219679 0.90937090954 
0.80816628637 0.71487100155 0.63001982895 1.5707963268 1.5707963268 1.5707963268 1.5707963268 1.5707963268 1.5707963268 
1.5707963268 1.5707963268 1.5707963268 1.6743954455 1.7840462375 1.8974821136 2.0119052671 2.1243706857 2.232221744 
2.3334263672 2.426721652 2.5115728246 1.4671972081 1.3575464161 1.24411054 1.1296873865 1.0172219679 0.90937090954 
0.80816628637 0.71487100155 0.63001982895 1.6743954455 1.7840462375 1.8974821136 2.0119052671 2.1243706857 2.232221744 
2.3334263672 2.426721652 2.5115728246 1.4671972081 1.3575464161 1.24411054 1.1296873865 1.0172219679 0.90937090954 
0.80816628637 0.71487100155 0.63001982895 2.6824132222 2.7864913217 2.8992382033 3.0186096618 3.1415926536 3.0186096618 
2.8992382033 2.7864913217 2.6824132222 0.45917943135 0.35510133185 0.2423544503 0.12298299178 0 0.12298299178 
0.2423544503 0.35510133185 0.45917943135 0.22715816343 0.49462574053 0.3129712797 0.77059342779 0.68021497688 0.49462574053 
1.0172219679 1.0172219679 1.0172219679 1.0172219679 1.2156949949 1.271087727 1.3676273807 1.5707963268 2.1243706857 
1.3676273807 1.447813335 1.5707963268 1.7739652728 2.1243706857 2.6469669131 1.4827341049 1.5707963268 1.6937793186 
1.8705049266 2.1243706857 2.4613776767 2.8286213739 1.5707963268 1.6588585487 1.7739652728 1.9258976586 2.1243706857 
2.3709992258 2.6469669131 2.9144344902 0.26576171152 0.33975332011 0.45685295248 0.40226393329 0.51573716537 0.6552068806 
0.45538277901 0.56421707518 0.69407236469 0.84594095064 0.50083690068 0.60464862014 0.72561863695 0.86392567495 1.0172219679 
0.54002084522 0.63877777351 0.75168694275 0.87851444325 1.0172219679 1.1636342747 0.57404952988 0.66790778838 0.77356233629 
0.89058134991 1.0172219679 1.1502619915 1.2852923014 0.60381225391 0.69302191562 0.79216440667 0.90072551443 1.0172219679 
1.139116835 1.2630228569 1.3852070904 0.71487100155 0.80816628637 0.80816628637 0.90937090954 0.90937090954 0.90937090954 
1.0172219679 1.0172219679 1.0172219679 1.0172219679 1.1296873865 1.1296873865 1.1296873865 1.1296873865 1.1296873865 
1.24411054 1.24411054 1.24411054 1.24411054 1.24411054 1.24411054 1.3575464161 1.3575464161 1.3575464161 
1.3575464161 1.3575464161 1.3575464161 1.3575464161 1.4671972081 1.4671972081 1.4671972081 1.4671972081 1.4671972081 
1.4671972081 1.4671972081 1.4671972081 1.6743954455 1.6743954455 1.7840462375 1.6743954455 1.7840462375 1.8974821136 
1.6743954455 1.7840462375 1.8974821136 2.0119052671 1.6743954455 1.7840462375 1.8974821136 2.0119052671 2.1243706857 
1.6743954455 1.7840462375 1.8974821136 2.0119052671 2.1243706857 2.232221744 1.6743954455 1.7840462375 1.8974821136 
2.0119052671 2.1243706857 2.232221744 2.3334263672 1.6743954455 1.7840462375 1.8974821136 2.0119052671 2.1243706857 
2.232221744 2.3334263672 2.426721652 1.7563855631 1.8785697967 1.8563003522 2.0024758186 1.9913306621 1.9779583789 
2.1243706857 2.1243706857 2.1243706857 2.1243706857 2.2408671392 2.2510113037 2.2630782103 2.2776669786 2.295651703 
2.3494282469 2.3680303173 2.3899057108 2.4159740166 2.4475202889 2.486385773 2.448570738 2.4736848652 2.5028148801 
2.5369440334 2.5773755784 2.6258554882 2.6847397011 2.5377803997 2.5675431237 2.6015718084 2.6407557529 2.6862098746 
2.7393287203 2.8018393335 2.8758309421 2.718901062 2.8307207459 2.7598010554 2.95115522 2.8800620952 2.8058000847 
3.0774230472 3.00855263 2.9351694502 2.8576792927 3.0774230472 3.1415926536 3.0719036933 2.9967168029 2.91630358 
2.95115522 3.00855263 3.0719036933 3.1415926536 3.0653475414 2.9825888767 2.8307207459 2.8800620952 2.9351694502 
2.9967168029 3.0653475414 3.1415926536 3.0574329311 2.718901062 2.7598010554 2.8058000847 2.8576792927 2.91630358 
2.9825888767 3.0574329311 3.1415926536 2.718901062 2.7598010554 2.8307207459 2.8058000847 2.8800620952 2.95115522 
2.8576792927 2.9351694502 3.00855263 3.0774230472 2.91630358 2.9967168029 3.0719036933 3.1415926536 3.0774230472 
2.9825888767 3.0653475414 3.1415926536 3.0719036933 3.00855263 2.95115522 3.0574329311 3.1415926536 3.0653475414 