# vtk DataFile Version 5.1
vtk output
ASCII
DATASET POLYDATA
POINTS 1002 float
-5.62266 -0.159779 -4.96388 6.01164 0.58213 -2.86727 -6.02776 0.416015 5.27665 
4.94144 -0.366292 3.39916 0.902954 6.89782 -2.8179 0.334076 7.21313 3.26343 
-0.0722833 -6.82326 -3.16004 0.925619 -7.39839 3.07838 9.44757 4.98365 -0.380275 
-11.1532 4.69626 -1.2685 9.88885 -4.86372 -0.647376 -8.26728 -3.68715 -0.673676 
-4.7634 -0.259849 -5.04693 -3.95436 -0.472184 -4.83023 -3.06147 -0.63392 -4.27719 
-1.82859 -0.533046 -3.6289 -0.204182 -0.196181 -3.18014 1.49374 0.139699 -2.90795 
2.92989 0.355605 -2.64044 4.08291 0.495212 -2.45689 5.09221 0.57777 -2.54466 
-5.36073 0.328231 -5.09002 -5.07866 0.819951 -4.9405 -4.6226 1.39427 -4.42907 
-3.89336 2.04687 -3.70073 -2.94677 2.72798 -2.99043 -1.89724 3.49562 -2.43454 
-0.85895 4.4231 -2.13255 0.00681827 5.40153 -2.1715 0.580265 6.24683 -2.47528 
-5.39729 -0.767839 -4.79346 -5.23958 -1.57259 -4.58733 -5.04434 -2.56291 -4.56761 
-4.63697 -3.56212 -4.6905 -3.9609 -4.36191 -4.59672 -3.13997 -4.97315 -4.17156 
-2.30982 -5.54975 -3.7531 -1.51036 -6.10348 -3.55904 -0.75364 -6.53219 -3.42549 
-6.41848 0.194294 -4.77987 -7.36836 0.601094 -4.32385 -8.38729 1.08452 -3.7903 
-9.42858 1.57704 -3.52648 -10.5171 2.0905 -3.57742 -11.553 2.78796 -3.57562 
-12.2216 3.6533 -3.25414 -12.2874 4.36748 -2.68874 -11.8387 4.69272 -2.01342 
-6.42149 -0.542156 -4.72311 -7.30074 -1.07691 -4.59076 -8.10646 -1.63509 -4.54265 
-8.74119 -2.0851 -4.28746 -9.15475 -2.43957 -3.70104 -9.252 -2.7826 -3.03316 
-9.02303 -3.11203 -2.46716 -8.6731 -3.37619 -1.90793 -8.41572 -3.56387 -1.28313 
5.75437 1.11482 -3.17096 5.34845 1.71525 -3.42685 4.82729 2.42727 -3.49417 
4.26803 3.21991 -3.38595 3.71523 3.9918 -3.33784 3.145 4.70538 -3.51187 
2.52965 5.40387 -3.73183 1.90563 6.05978 -3.70522 1.34859 6.5694 -3.35582 
5.59239 0.0387194 -2.39499 5.04235 -0.669992 -2.18203 4.38917 -1.57046 -2.31971 
3.62549 -2.52806 -2.53935 2.74436 -3.39308 -2.53583 1.86458 -4.19169 -2.41895 
1.18852 -4.98958 -2.4881 0.75583 -5.7219 -2.76 0.390742 -6.32042 -3.03073 
6.7549 0.882716 -3.40632 7.43096 1.27634 -3.63122 8.03006 1.8073 -3.28769 
8.69363 2.43193 -2.72882 9.50589 3.13248 -2.55026 10.218 3.94485 -2.67164 
10.4817 4.73972 -2.47111 10.2841 5.21927 -1.77092 9.8766 5.24907 -0.961571 
6.66701 0.186392 -2.93785 7.30857 -0.325522 -2.99943 7.90745 -0.923044 -2.98317 
8.4574 -1.53832 -2.88465 8.98666 -2.11955 -2.74576 9.5052 -2.68381 -2.53604 
9.92584 -3.27482 -2.18457 10.1234 -3.87712 -1.712 10.0789 -4.42368 -1.19194 
-4.80757 0.349733 5.03388 -3.53256 0.322264 4.88539 -2.2821 0.342933 4.95818 
-1.07393 0.374445 5.13631 0.116183 0.313784 5.12533 1.29612 0.102059 4.82618 
2.43507 -0.16379 4.43815 3.46405 -0.336997 4.11336 4.3061 -0.382973 3.79337 
-5.62318 1.12966 5.57088 -5.11002 1.83653 5.60747 -4.53159 2.48558 5.36875 
-3.82719 3.19469 5.18888 -2.94547 4.12823 5.34518 -2.05628 5.18094 5.54466 
-1.38075 6.03849 5.29874 -0.870153 6.57052 4.60935 -0.32084 6.90895 3.84918 
-5.56444 -0.317539 4.81883 -4.99667 -1.02926 4.58785 -4.41017 -1.75315 4.65538 
-3.7933 -2.5373 4.76134 -2.99817 -3.34802 4.55525 -1.9717 -4.14327 4.05119 
-0.922293 -4.96437 3.57592 -0.0942907 -5.83572 3.31427 0.482396 -6.67999 3.18957 
-6.99245 0.968852 5.74421 -7.8821 1.54498 6.07014 -8.59146 2.01918 5.9411 
-9.12437 2.39095 5.20594 -9.56404 2.78168 4.02789 -9.96536 3.20581 2.71883 
-10.3452 3.56402 1.47712 -10.7084 3.87803 0.368008 -11.008 4.25827 -0.56189 
-6.94222 0.030681 5.1049 -7.73078 -0.325324 4.72497 -8.23532 -0.602237 4.14647 
-8.44536 -0.879409 3.40951 -8.55935 -1.30232 2.584 -8.75157 -1.86084 1.7913 
-8.91482 -2.39306 1.11435 -8.84098 -2.8255 0.514284 -8.55402 -3.23237 -0.0798174 
4.77938 0.330393 3.67512 4.4677 1.08332 3.83296 3.94471 1.86603 3.70136 
3.30391 2.67192 3.39177 2.71121 3.52569 3.24051 2.19763 4.40648 3.32974 
1.68098 5.24541 3.41459 1.15555 6.01269 3.37369 0.695741 6.69079 3.30571 
4.70976 -1.0873 3.41903 4.46529 -1.87852 3.50718 4.21436 -2.71221 3.63572 
3.87405 -3.57281 3.72923 3.36429 -4.44288 3.81575 2.77167 -5.26879 3.98385 
2.25909 -5.99844 4.13587 1.84169 -6.61435 4.04055 1.41563 -7.09199 3.63688 
5.40775 0.07806 3.08273 5.91995 0.51205 2.69248 6.56655 0.936825 2.3218 
7.33328 1.40542 1.98729 8.06013 1.9249 1.54472 8.61872 2.4429 0.970307 
9.02003 2.97116 0.505113 9.29528 3.58603 0.261382 9.434 4.29062 0.0331755 
5.36125 -0.789236 2.95382 5.8564 -1.26952 2.56417 6.53323 -1.82037 2.30618 
7.38651 -2.44615 2.12 8.24317 -3.07382 1.88891 8.93607 -3.57776 1.54348 
9.45194 -3.94671 1.04882 9.81528 -4.28349 0.434127 9.97627 -4.61595 -0.172751 
0.811385 7.41526 -2.55184 0.725346 8.02875 -2.12911 0.675766 8.81765 -1.64552 
0.721111 9.61467 -1.12153 0.883651 9.9966 -0.392606 1.06126 9.71524 0.6198 
1.08564 9.00324 1.66214 0.899229 8.2676 2.43369 0.602699 7.68689 2.91461 
1.42082 7.2726 -3.42817 2.18073 7.56955 -3.78656 3.32092 7.73586 -3.71155 
4.62296 7.68092 -3.30756 5.7113 7.41515 -2.85138 6.52932 7.08144 -2.43959 
7.30741 6.73944 -1.96153 8.13312 6.29467 -1.38751 8.88104 5.68789 -0.830491 
0.310356 6.73893 -2.04555 -0.532037 6.44541 -1.37646 -1.84196 6.05028 -1.00457 
-3.59151 5.70378 -0.979486 -5.40762 5.61624 -1.17021 -6.95065 5.7902 -1.37559 
-8.232 5.92923 -1.47357 -9.38128 5.75998 -1.46938 -10.3816 5.2904 -1.40422 
1.2698 7.24689 2.8472 2.23305 7.22781 2.50245 3.16256 7.2325 2.15268 
4.11545 7.36401 1.76934 5.12 7.4243 1.40908 6.08786 7.01077 1.04676 
6.97866 6.17261 0.605505 7.84304 5.43778 0.158435 8.68402 5.10159 -0.165296 
-0.442933 7.3311 3.5094 -1.27803 7.1493 3.58389 -2.18683 6.685 3.2859 
-3.26488 6.15266 2.67893 -4.61964 5.72293 2.06306 -6.16336 5.38067 1.55901 
-7.62555 5.11807 0.993834 -8.87566 4.97994 0.257986 -10.0202 4.8911 -0.543927 
-0.0451772 -7.31605 -2.87797 -0.0776619 -7.93372 -2.38891 -0.0703182 -8.61497 -1.7431 
0.0966244 -9.09699 -1.03787 0.397874 -9.14416 -0.309676 0.655933 -8.85397 0.469968 
0.76574 -8.51317 1.27128 0.799496 -8.22016 1.99841 0.853283 -7.87226 2.59736 
0.874216 -6.7798 -2.69565 1.76175 -6.79677 -2.15702 2.65033 -6.81845 -1.72093 
3.69447 -6.63665 -1.3746 4.90233 -6.24044 -0.961033 6.09659 -5.95089 -0.548327 
7.19319 -5.91266 -0.390829 8.23791 -5.84247 -0.501141 9.18241 -5.47565 -0.642249 
-1.11757 -7.15738 -3.33203 -2.30013 -7.42846 -3.28581 -3.39567 -7.51486 -3.04842 
-4.39948 -7.45651 -2.72746 -5.54636 -7.44025 -2.3896 -6.7585 -7.40183 -2.04602 
-7.55842 -6.94992 -1.71271 -7.80848 -5.93987 -1.38849 -7.921 -4.71802 -1.04432 
1.69821 -7.88071 3.28152 2.58556 -8.25492 3.38051 3.63547 -8.42954 3.33445 
4.85335 -8.3627 3.14875 6.14028 -8.08358 2.7969 7.28544 -7.66099 2.2312 
8.13711 -7.12612 1.48848 8.76022 -6.45967 0.689264 9.3197 -5.67684 -0.047923 
0.0564232 -7.17802 2.57562 -1.03 -6.93415 2.17414 -2.29931 -6.77905 1.93681 
-3.61143 -6.71187 1.69363 -4.80362 -6.55781 1.2677 -5.80764 -6.17402 0.751126 
-6.6377 -5.61658 0.328077 -7.30483 -4.99424 -0.00254429 -7.82626 -4.34094 -0.332306 
10.1762 4.36825 -0.223785 10.9257 3.48581 -0.0284477 11.7101 2.36414 0.0890534 
12.3593 1.17645 0.0318873 12.5772 0.0549968 -0.165045 12.307 -0.986991 -0.416373 
11.789 -1.96772 -0.673452 11.2079 -2.92796 -0.853512 10.5742 -3.9091 -0.84953 
-12.275 4.04185 -1.51213 -13.2929 3.21611 -1.54909 -13.8421 2.37981 -1.30611 
-13.6655 1.6186 -0.923018 -12.9241 0.783192 -0.627216 -11.9951 -0.224208 -0.498269 
-11.0171 -1.21146 -0.485458 -9.97157 -2.03099 -0.540797 -8.99076 -2.80861 -0.621033 
-4.50613 0.188949 -5.01907 -4.18466 0.689024 -4.53828 -3.66928 0.0189921 -4.4424 
-3.58041 1.31451 -3.74515 -3.17346 0.655418 -3.6393 -2.58517 0.0270626 -3.57553 
-2.61838 2.03492 -3.05846 -2.26731 1.44864 -2.91221 -1.75245 0.878431 -2.79732 
-1.02858 0.308573 -2.93922 -1.45675 2.8445 -2.67314 -1.04223 2.31844 -2.66765 
-0.567998 1.82516 -2.51157 0.0535365 1.25004 -2.52227 0.787803 0.670223 -2.74257 
-0.339626 3.81237 -2.50639 0.177272 3.26404 -2.72499 0.673433 2.77565 -2.69764 
1.19758 2.18617 -2.61739 1.79449 1.5139 -2.66256 2.40936 0.904556 -2.71342 
0.52821 4.87445 -2.57841 1.10051 4.28732 -2.87112 1.6482 3.72586 -2.93783 
2.14111 3.10144 -2.87619 2.63654 2.35267 -2.86582 3.17327 1.62329 -2.85567 
3.68599 1.02473 -2.70144 1.0616 5.82946 -2.92549 1.63575 5.25863 -3.21079 
2.23155 4.62623 -3.23353 2.7711 3.9655 -3.10636 3.26366 3.21364 -3.07009 
3.7761 2.40445 -3.14013 4.30673 1.68236 -3.09442 4.76824 1.0968 -2.84804 
-6.16642 0.759482 -4.79851 -7.10067 1.24353 -4.26191 -5.78433 1.38022 -4.63935 
-8.06326 1.75623 -3.80287 -6.56995 2.00884 -4.18814 -5.15549 2.10601 -4.20968 
-9.00482 2.27711 -3.65219 -7.37058 2.62675 -3.84547 -5.77157 2.87989 -3.8805 
-4.31849 2.84179 -3.5199 -9.91167 2.95358 -3.5728 -8.15246 3.24214 -3.58776 
-6.45937 3.54885 -3.52534 -4.88379 3.62499 -3.19938 -3.3743 3.50932 -2.71772 
-10.6397 3.88528 -3.23831 -8.86361 4.01925 -3.16482 -7.16068 4.11896 -3.05148 
-5.55359 4.17425 -2.7772 -3.93254 4.1764 -2.34662 -2.31857 4.23099 -2.05023 
-10.9615 4.78564 -2.68867 -9.36395 4.91625 -2.58912 -7.76261 4.77672 -2.46462 
-6.20016 4.59149 -2.26993 -4.52489 4.58344 -1.95229 -2.77531 4.78639 -1.67884 
-1.2097 5.09803 -1.73355 -10.8217 5.26772 -2.07577 -9.52948 5.57237 -2.03153 
-8.13865 5.4766 -1.93752 -6.69099 5.15189 -1.78579 -5.03749 4.98714 -1.55273 
-3.20358 5.18093 -1.33802 -1.52912 5.58955 -1.3719 -0.280506 5.98343 -1.79023 
-9.22473 5.45526 -0.715775 -7.99281 5.56153 0.0290805 -8.2341 5.94058 -0.863718 
-6.57372 5.73482 0.746156 -6.91848 6.12954 -0.158968 -7.06703 6.20429 -0.897822 
-5.01349 5.89995 1.35223 -5.39054 6.32248 0.585659 -5.61996 6.5927 -0.165545 
-5.61788 6.29543 -0.74855 -3.55491 6.05934 1.894 -3.83906 6.41237 1.18994 
-4.00395 6.97058 0.530886 -3.98002 7.04205 -0.060489 -3.81182 6.45119 -0.561035 
-2.31857 6.46328 2.43831 -2.44418 6.65452 1.62554 -2.48927 7.32743 0.911952 
-2.38492 7.81809 0.332921 -2.16932 7.54081 -0.15532 -1.96585 6.76366 -0.608062 
-1.2306 7.11151 2.86059 -1.18206 7.30807 2.00693 -1.14741 7.93867 1.09817 
-1.07332 8.59422 0.330516 -0.908392 8.60079 -0.202383 -0.70822 7.91951 -0.622483 
[...]
POINT_DATA 1002
FIELD FieldData 4
_paraPhi 1 1002 double
6.2831853072 3.1415926536 6.2831853072 3.1415926536 4.7123889804 4.7123889804 1.5707963268 1.5707963268 3.6951670125 
5.7296109483 2.5880182947 0.5535743589 6.2831853072 6.2831853072 6.2831853072 6.2831853072 3.1415926536 3.1415926536 
3.1415926536 3.1415926536 3.1415926536 6.1053039672 5.898798347 5.6768734901 5.4599499503 5.2659633393 5.1032165617 
4.9713148346 4.8656852733 4.7809517865 0.17788134 0.38438696014 0.60631181711 0.82323535693 1.0172219679 1.1799687454 
1.3118704726 1.4175000338 1.5022335207 6.1892828907 6.1070320098 6.035312792 5.9728339911 5.9183214791 5.8706119594 
5.8286879411 5.7916808611 5.7588591896 0.093902416448 0.17615329733 0.2478725152 0.31035131605 0.36486382811 0.41257334776 
0.45449736604 0.4915044461 0.52432611754 3.3194739936 3.5259796137 3.7479044707 3.9648280105 4.1588146215 4.321561399 
4.4534631262 4.5590926874 4.6438261743 2.9637113136 2.7572056934 2.5352808365 2.3183572967 2.1243706857 1.9616239082 
1.829722181 1.7240926197 1.6393591329 3.23549507 3.3177459509 3.3894651688 3.4519439696 3.5064564817 3.5541660013 
3.5960900196 3.6330970997 3.6659187711 3.0476902371 2.9654393563 2.8937201384 2.8312413375 2.7767288255 2.7290193058 
2.6870952876 2.6500882075 2.617266536 6.2831853072 6.2831853072 6.2831853072 6.2831853072 3.1415926536 3.1415926536 
3.1415926536 3.1415926536 3.1415926536 6.1053039672 5.898798347 5.6768734901 5.4599499503 5.2659633393 5.1032165617 
4.9713148346 4.8656852733 4.7809517865 0.17788134 0.38438696014 0.60631181711 0.82323535693 1.0172219679 1.1799687454 
1.3118704726 1.4175000338 1.5022335207 6.1892828907 6.1070320098 6.035312792 5.9728339911 5.9183214791 5.8706119594 
5.8286879411 5.7916808611 5.7588591896 0.093902416448 0.17615329733 0.2478725152 0.31035131605 0.36486382811 0.41257334776 
0.45449736604 0.4915044461 0.52432611754 3.3194739936 3.5259796137 3.7479044707 3.9648280105 4.1588146215 4.321561399 
4.4534631262 4.5590926874 4.6438261743 2.9637113136 2.7572056934 2.5352808365 2.3183572967 2.1243706857 1.9616239082 
1.829722181 1.7240926197 1.6393591329 3.23549507 3.3177459509 3.3894651688 3.4519439696 3.5064564817 3.5541660013 
3.5960900196 3.6330970997 3.6659187711 3.0476902371 2.9654393563 2.8937201384 2.8312413375 2.7767288255 2.7290193058 
2.6870952876 2.6500882075 2.617266536 4.7123889804 4.7123889804 4.7123889804 4.7123889804 4.7123889804 4.7123889804 
4.7123889804 4.7123889804 4.7123889804 4.6087898617 4.4991390697 4.3857031936 4.2712800401 4.1588146215 4.0509635631 
3.94975894 3.8564636551 3.7716124825 4.8159880991 4.9256388911 5.0390747672 5.1534979207 5.2659633393 5.3738143976 
5.4750190208 5.5683143056 5.6531654782 4.6087898617 4.4991390697 4.3857031936 4.2712800401 4.1588146215 4.0509635631 
3.94975894 3.8564636551 3.7716124825 4.8159880991 4.9256388911 5.0390747672 5.1534979207 5.2659633393 5.3738143976 
5.4750190208 5.5683143056 5.6531654782 1.5707963268 1.5707963268 1.5707963268 1.5707963268 1.5707963268 1.5707963268 
1.5707963268 1.5707963268 1.5707963268 1.6743954455 1.7840462375 1.8974821136 2.0119052671 2.1243706857 2.232221744 
2.3334263672 2.426721652 2.5115728246 1.4671972081 1.3575464161 1.24411054 1.1296873865 1.0172219679 0.90937090954 
0.80816628637 0.71487100155 0.63001982895 1.6743954455 1.7840462375 1.8974821136 2.0119052671 2.1243706857 2.232221744 
2.3334263672 2.426721652 2.5115728246 1.4671972081 1.3575464161 1.24411054 1.1296873865 1.0172219679 0.90937090954 
0.80816628637 0.71487100155 0.63001982895 3.6007720849 3.4966939854 3.3839471039 3.2645756454 3.1415926536 3.0186096618 
2.8992382033 2.7864913217 2.6824132222 5.8240058758 5.9280839753 6.0408308569 6.1602023154 6.2831853072 0.12298299178 
0.2423544503 0.35510133185 0.45917943135 6.0560271438 5.7885595667 5.9702140275 5.5125918794 5.6029703303 5.7885595667 
5.2659633393 5.2659633393 5.2659633393 5.2659633393 5.0674903122 5.0120975802 4.9155579264 4.7123889804 4.1588146215 
4.9155579264 4.8353719722 4.7123889804 4.5092200343 4.1588146215 3.6362183941 4.8004512023 4.7123889804 4.5894059886 
4.4126803806 4.1588146215 3.8218076305 3.4545639333 4.7123889804 4.6243267584 4.5092200343 4.3572876485 4.1588146215 
3.9121860814 3.6362183941 3.368750817 6.0174235957 5.9434319871 5.8263323547 5.8809213739 5.7674481418 5.6279784266 
5.8278025282 5.718968232 5.5891129425 5.4372443565 5.7823484065 5.678536687 5.5575666702 5.4192596322 5.2659633393 
5.743164462 5.6444075337 5.5314983644 5.4046708639 5.2659633393 5.1195510325 5.7091357773 5.6152775188 5.5096229709 
5.3926039573 5.2659633393 5.1329233157 4.9978930058 5.6793730533 5.5901633916 5.4910209005 5.3824597928 5.2659633393 
5.1440684722 5.0201624502 4.8979782167 5.5683143056 5.4750190208 5.4750190208 5.3738143976 5.3738143976 5.3738143976 
5.2659633393 5.2659633393 5.2659633393 5.2659633393 5.1534979207 5.1534979207 5.1534979207 5.1534979207 5.1534979207 
5.0390747672 5.0390747672 5.0390747672 5.0390747672 5.0390747672 5.0390747672 4.9256388911 4.9256388911 4.9256388911 
4.9256388911 4.9256388911 4.9256388911 4.9256388911 4.8159880991 4.8159880991 4.8159880991 4.8159880991 4.8159880991 
4.8159880991 4.8159880991 4.8159880991 4.6087898617 4.6087898617 4.4991390697 4.6087898617 4.4991390697 4.3857031936 
4.6087898617 4.4991390697 4.3857031936 4.2712800401 4.6087898617 4.4991390697 4.3857031936 4.2712800401 4.1588146215 
4.6087898617 4.4991390697 4.3857031936 4.2712800401 4.1588146215 4.0509635631 4.6087898617 4.4991390697 4.3857031936 
4.2712800401 4.1588146215 4.0509635631 3.94975894 4.6087898617 4.4991390697 4.3857031936 4.2712800401 4.1588146215 
4.0509635631 3.94975894 3.8564636551 4.526799744 4.4046155105 4.426884955 4.2807094886 4.2918546451 4.3052269283 
4.1588146215 4.1588146215 4.1588146215 4.1588146215 4.042318168 4.0321740035 4.0201070968 4.0055183285 3.9875336042 
3.9337570603 3.9151549899 3.8932795963 3.8672112905 3.8356650183 3.7967995342 3.8346145692 3.809500442 3.7803704271 
3.7462412737 3.7058097288 3.657329819 3.5984456061 3.7454049075 3.7156421835 3.6816134988 3.6424295543 3.5969754326 
3.5438565869 3.4813459737 3.4073543651 3.5642842451 3.4524645613 3.5233842518 3.3320300872 3.403123212 3.4773852225 
3.20576226 3.2746326772 3.348015857 3.4255060145 3.0774230472 3.1415926536 3.2112816139 3.2864685043 3.3668817272 
2.95115522 3.00855263 3.0719036933 3.1415926536 3.2178377658 3.3005964304 2.8307207459 2.8800620952 2.9351694502 
2.9967168029 3.0653475414 3.1415926536 3.225752376 2.718901062 2.7598010554 2.8058000847 2.8576792927 2.91630358 
2.9825888767 3.0574329311 3.1415926536 3.5642842451 3.5233842518 3.4524645613 3.4773852225 3.403123212 3.3320300872 
3.4255060145 3.348015857 3.2746326772 3.20576226 3.3668817272 3.2864685043 3.2112816139 3.1415926536 3.0774230472 
3.3005964304 3.2178377658 3.1415926536 3.0719036933 3.00855263 2.95115522 3.225752376 3.1415926536 3.0653475414 
2.9967168029 2.9351694502 2.8800620952 2.8307207459 3.1415926536 3.0574329311 2.9825888767 2.91630358 2.8576792927 
2.8058000847 2.7598010554 2.718901062 4.526799744 4.426884955 4.4046155105 4.3052269283 4.2918546451 4.2807094886 
4.1588146215 4.1588146215 4.1588146215 4.1588146215 3.9875336042 4.0055183285 4.0201070968 4.0321740035 4.042318168 
3.7967995342 3.8356650183 3.8672112905 3.8932795963 3.9151549899 3.9337570603 3.5984456061 3.657329819 3.7058097288 
3.7462412737 3.7803704271 3.809500442 3.8346145692 3.4073543651 3.4813459737 3.5438565869 3.5969754326 3.6424295543 
3.6816134988 3.7156421835 3.7454049075 4.7123889804 4.8004512023 4.6243267584 4.9155579264 4.7123889804 4.5092200343 
5.0674903122 4.8353719722 4.5894059886 4.3572876485 5.2659633393 5.0120975802 4.7123889804 4.4126803806 4.1588146215 
5.5125918794 5.2659633393 4.9155579264 4.5092200343 4.1588146215 3.9121860814 5.7885595667 5.6029703303 5.2659633393 
4.7123889804 4.1588146215 3.8218076305 3.6362183941 6.0560271438 5.9702140275 5.7885595667 5.2659633393 4.1588146215 
3.6362183941 3.4545639333 3.368750817 0.22715816343 0.49462574053 0.3129712797 0.77059342779 0.68021497688 0.49462574053 
1.0172219679 1.0172219679 1.0172219679 1.0172219679 1.2156949949 1.271087727 1.3676273807 1.5707963268 2.1243706857 
1.3676273807 1.447813335 1.5707963268 1.7739652728 2.1243706857 2.6469669131 1.4827341049 1.5707963268 1.6937793186 
1.8705049266 2.1243706857 2.4613776767 2.8286213739 1.5707963268 1.6588585487 1.7739652728 1.9258976586 2.1243706857 
2.3709992258 2.6469669131 2.9144344902 1.7563855631 1.8785697967 1.8563003522 2.0024758186 1.9913306621 1.9779583789 
2.1243706857 2.1243706857 2.1243706857 2.1243706857 2.2408671392 2.2510113037 2.2630782103 2.2776669786 2.295651703 
2.3494282469 2.3680303173 2.3899057108 2.4159740166 2.4475202889 2.486385773 2.448570738 2.4736848652 2.5028148801 
2.5369440334 2.5773755784 2.6258554882 2.6847397011 2.5377803997 2.5675431237 2.6015718084 2.6407557529 2.6862098746 
2.7393287203 2.8018393335 2.8758309421 1.6743954455 1.6743954455 1.7840462375 1.6743954455 1.7840462375 1.8974821136 
1.6743954455 1.7840462375 1.8974821136 2.0119052671 1.6743954455 1.7840462375 1.8974821136 2.0119052671 2.1243706857 
1.6743954455 1.7840462375 1.8974821136 2.0119052671 2.1243706857 2.232221744 1.6743954455 1.7840462375 1.8974821136 
2.0119052671 2.1243706857 2.232221744 2.3334263672 1.6743954455 1.7840462375 1.8974821136 2.0119052671 2.1243706857 
2.232221744 2.3334263672 2.426721652 1.4671972081 1.3575464161 1.4671972081 1.24411054 1.3575464161 1.4671972081 
1.1296873865 1.24411054 1.3575464161 1.4671972081 1.0172219679 1.1296873865 1.24411054 1.3575464161 1.4671972081 
0.90937090954 1.0172219679 1.1296873865 1.24411054 1.3575464161 1.4671972081 0.80816628637 0.90937090954 1.0172219679 
1.1296873865 1.24411054 1.3575464161 1.4671972081 0.71487100155 0.80816628637 0.90937090954 1.0172219679 1.1296873865 
1.24411054 1.3575464161 1.4671972081 0.60381225391 0.57404952988 0.69302191562 0.54002084522 0.66790778838 0.79216440667 
0.50083690068 0.63877777351 0.77356233629 0.90072551443 0.45538277901 0.60464862014 0.75168694275 0.89058134991 1.0172219679 
0.40226393329 0.56421707518 0.72561863695 0.87851444325 1.0172219679 1.139116835 0.33975332011 0.51573716537 0.69407236469 
0.86392567495 1.0172219679 1.1502619915 1.2630228569 0.26576171152 0.45685295248 0.6552068806 0.84594095064 1.0172219679 
1.1636342747 1.2852923014 1.3852070904 0.22715816343 0.3129712797 0.49462574053 0.49462574053 0.68021497688 0.77059342779 
1.0172219679 1.0172219679 1.0172219679 1.0172219679 2.1243706857 1.5707963268 1.3676273807 1.271087727 1.2156949949 
2.6469669131 2.1243706857 1.7739652728 1.5707963268 1.447813335 1.3676273807 2.8286213739 2.4613776767 2.1243706857 
1.8705049266 1.6937793186 1.5707963268 1.4827341049 2.9144344902 2.6469669131 2.3709992258 2.1243706857 1.9258976586 
1.7739652728 1.6588585487 1.5707963268 1.7563855631 1.8563003522 1.8785697967 1.9779583789 1.9913306621 2.0024758186 
2.1243706857 2.1243706857 2.1243706857 2.1243706857 2.295651703 2.2776669786 2.2630782103 2.2510113037 2.2408671392 
2.486385773 2.4475202889 2.4159740166 2.3899057108 2.3680303173 2.3494282469 2.6847397011 2.6258554882 2.5773755784 
2.5369440334 2.5028148801 2.4736848652 2.448570738 2.8758309421 2.8018393335 2.7393287203 2.6862098746 2.6407557529 
2.6015718084 2.5675431237 2.5377803997 5.8604937156 5.901393709 5.9723133995 5.9473927383 6.0216547488 6.0927478736 
5.9992719463 6.0767621038 6.1501452836 6.2190157008 6.0578962336 6.1383094565 6.2134963469 0 0.064169606361 
6.1241815303 6.206940195 6.2831853072 0.069688960264 0.13304002361 0.19043743361 6.1990255847 0 0.07624511221 
0.14487585072 0.20642320337 0.26153055843 0.3108719077 0 0.084159722458 0.15900377685 0.22528907359 0.28391336087 
0.3357925689 0.38179159818 0.42269159155 5.8604937156 5.9723133995 5.901393709 6.0927478736 6.0216547488 5.9473927383 
6.2190157008 6.1501452836 6.0767621038 5.9992719463 0.064169606361 0 6.2134963469 6.1383094565 6.0578962336 
0.19043743361 0.13304002361 0.069688960264 6.2831853072 6.206940195 6.1241815303 0.3108719077 0.26153055843 0.20642320337 
0.14487585072 0.07624511221 6.2831853072 6.1990255847 0.42269159155 0.38179159818 0.3357925689 0.28391336087 0.22528907359 
0.15900377685 0.084159722458 0 5.6793730533 5.7091357773 5.5901633916 5.743164462 5.6152775188 5.4910209005 
5.7823484065 5.6444075337 5.5096229709 5.3824597928 5.8278025282 5.678536687 5.5314983644 5.3926039573 5.2659633393 
5.8809213739 5.718968232 5.5575666702 5.4046708639 5.2659633393 5.1440684722 5.9434319871 5.7674481418 5.5891129425 
5.4192596322 5.2659633393 5.1329233157 5.0201624502 6.0174235957 5.8263323547 5.6279784266 5.4372443565 5.2659633393 
5.1195510325 4.9978930058 4.8979782167 1.3852070904 1.2852923014 1.2630228569 1.1636342747 1.1502619915 1.139116835 
1.0172219679 1.0172219679 1.0172219679 1.0172219679 0.84594095064 0.86392567495 0.87851444325 0.89058134991 0.90072551443 
0.6552068806 0.69407236469 0.72561863695 0.75168694275 0.77356233629 0.79216440667 0.45685295248 0.51573716537 0.56421707518 
0.60464862014 0.63877777351 0.66790778838 0.69302191562 0.26576171152 0.33975332011 0.40226393329 0.45538277901 0.50083690068 
0.54002084522 0.57404952988 0.60381225391 
_paraPhiHalf 1 1002 double
0 3.1415926536 0 3.1415926536 1.5707963268 1.5707963268 1.5707963268 1.5707963268 2.5880182947 
0.5535743589 2.5880182947 0.5535743589 0 0 0 0 3.1415926536 3.1415926536 
3.1415926536 3.1415926536 3.1415926536 0.17788134 0.38438696014 0.60631181711 0.82323535693 1.0172219679 1.1799687454 
1.3118704726 1.4175000338 1.5022335207 0.17788134 0.38438696014 0.60631181711 0.82323535693 1.0172219679 1.1799687454 
1.3118704726 1.4175000338 1.5022335207 0.093902416448 0.17615329733 0.2478725152 0.31035131605 0.36486382811 0.41257334776 
0.45449736604 0.4915044461 0.52432611754 0.093902416448 0.17615329733 0.2478725152 0.31035131605 0.36486382811 0.41257334776 
0.45449736604 0.4915044461 0.52432611754 2.9637113136 2.7572056934 2.5352808365 2.3183572967 2.1243706857 1.9616239082 
1.829722181 1.7240926197 1.6393591329 2.9637113136 2.7572056934 2.5352808365 2.3183572967 2.1243706857 1.9616239082 
1.829722181 1.7240926197 1.6393591329 3.0476902371 2.9654393563 2.8937201384 2.8312413375 2.7767288255 2.7290193058 
2.6870952876 2.6500882075 2.617266536 3.0476902371 2.9654393563 2.8937201384 2.8312413375 2.7767288255 2.7290193058 
2.6870952876 2.6500882075 2.617266536 0 0 0 0 3.1415926536 3.1415926536 
3.1415926536 3.1415926536 3.1415926536 0.17788134 0.38438696014 0.60631181711 0.82323535693 1.0172219679 1.1799687454 
1.3118704726 1.4175000338 1.5022335207 0.17788134 0.38438696014 0.60631181711 0.82323535693 1.0172219679 1.1799687454 
1.3118704726 1.4175000338 1.5022335207 0.093902416448 0.17615329733 0.2478725152 0.31035131605 0.36486382811 0.41257334776 
0.45449736604 0.4915044461 0.52432611754 0.093902416448 0.17615329733 0.2478725152 0.31035131605 0.36486382811 0.41257334776 
0.45449736604 0.4915044461 0.52432611754 2.9637113136 2.7572056934 2.5352808365 2.3183572967 2.1243706857 1.9616239082 
1.829722181 1.7240926197 1.6393591329 2.9637113136 2.7572056934 2.5352808365 2.3183572967 2.1243706857 1.9616239082 
1.829722181 1.7240926197 1.6393591329 3.0476902371 2.9654393563 2.8937201384 2.8312413375 2.7767288255 2.7290193058 
2.6870952876 2.6500882075 2.617266536 3.0476902371 2.9654393563 2.8937201384 2.8312413375 2.7767288255 2.7290193058 
2.6870952876 2.6500882075 2.617266536 1.5707963268 1.5707963268 1.5707963268 1.5707963268 1.5707963268 1.5707963268 
1.5707963268 1.5707963268 1.5707963268 1.6743954455 1.7840462375 1.8974821136 2.0119052671 2.1243706857 2.232221744 
2.3334263672 2.426721652 2.5115728246 1.4671972081 1.3575464161 1.24411054 1.1296873865 1.0172219679 0.90937090954 
0.80816628637 0.71487100155 0.63001982895 1.6743954455 1.7840462375 1.8974821136 2.0119052671 2.1243706857 2.232221744 
2.3334263672 2.426721652 2.5115728246 1.4671972081 1.3575464161 1.24411054 1.1296873865 1.0172219679 0.90937090954 
0.80816628637 0.71487100155 0.63001982895 1.5707963268 1.5707963268 1.5707963268 1.5707963268 1.5707963268 1.5707963268 
1.5707963268 1.5707963268 1.5707963268 1.6743954455 1.7840462375 1.8974821136 2.0119052671 2.1243706857 2.232221744 
2.3334263672 2.426721652 2.5115728246 1.4671972081 1.3575464161 1.24411054 1.1296873865 1.0172219679 0.90937090954 
0.80816628637 0.71487100155 0.63001982895 1.6743954455 1.7840462375 1.8974821136 2.0119052671 2.1243706857 2.232221744 
2.3334263672 2.426721652 2.5115728246 1.4671972081 1.3575464161 1.24411054 1.1296873865 1.0172219679 0.90937090954 
0.80816628637 0.71487100155 0.63001982895 2.6824132222 2.7864913217 2.8992382033 3.0186096618 3.1415926536 3.0186096618 
2.8992382033 2.7864913217 2.6824132222 0.45917943135 0.35510133185 0.2423544503 0.12298299178 0 0.12298299178 
0.2423544503 0.35510133185 0.45917943135 0.22715816343 0.49462574053 0.3129712797 0.77059342779 0.68021497688 0.49462574053 
1.0172219679 1.0172219679 1.0172219679 1.0172219679 1.2156949949 1.271087727 1.3676273807 1.5707963268 2.1243706857 
1.3676273807 1.447813335 1.5707963268 1.7739652728 2.1243706857 2.6469669131 1.4827341049 1.5707963268 1.6937793186 
1.8705049266 2.1243706857 2.4613776767 2.8286213739 1.5707963268 1.6588585487 1.7739652728 1.9258976586 2.1243706857 
2.3709992258 2.6469669131 2.9144344902 0.26576171152 0.33975332011 0.45685295248 0.40226393329 0.51573716537 0.6552068806 
0.45538277901 0.56421707518 0.69407236469 0.84594095064 0.50083690068 0.60464862014 0.72561863695 0.86392567495 1.0172219679 
0.54002084522 0.63877777351 0.75168694275 0.87851444325 1.0172219679 1.1636342747 0.57404952988 0.66790778838 0.77356233629 
0.89058134991 1.0172219679 1.1502619915 1.2852923014 0.60381225391 0.69302191562 0.79216440667 0.90072551443 1.0172219679 
1.139116835 1.2630228569 1.3852070904 0.71487100155 0.80816628637 0.80816628637 0.90937090954 0.90937090954 0.90937090954 
1.0172219679 1.0172219679 1.0172219679 1.0172219679 1.1296873865 1.1296873865 1.1296873865 1.1296873865 1.1296873865 
1.24411054 1.24411054 1.24411054 1.24411054 1.24411054 1.24411054 1.3575464161 1.3575464161 1.3575464161 
1.3575464161 1.3575464161 1.3575464161 1.3575464161 1.4671972081 1.4671972081 1.4671972081 1.4671972081 1.4671972081 
1.4671972081 1.4671972081 1.4671972081 1.6743954455 1.6743954455 1.7840462375 1.6743954455 1.7840462375 1.8974821136 
1.6743954455 1.7840462375 1.8974821136 2.0119052671 1.6743954455 1.7840462375 1.8974821136 2.0119052671 2.1243706857 
1.6743954455 1.7840462375 1.8974821136 2.0119052671 2.1243706857 2.232221744 1.6743954455 1.7840462375 1.8974821136 
2.0119052671 2.1243706857 2.232221744 2.3334263672 1.6743954455 1.7840462375 1.8974821136 2.0119052671 2.1243706857 
2.232221744 2.3334263672 2.426721652 1.7563855631 1.8785697967 1.8563003522 2.0024758186 1.9913306621 1.9779583789 
2.1243706857 2.1243706857 2.1243706857 2.1243706857 2.2408671392 2.2510113037 2.2630782103 2.2776669786 2.295651703 
2.3494282469 2.3680303173 2.3899057108 2.4159740166 2.4475202889 2.486385773 2.448570738 2.4736848652 2.5028148801 
2.5369440334 2.5773755784 2.6258554882 2.6847397011 2.5377803997 2.5675431237 2.6015718084 2.6407557529 2.6862098746 
2.7393287203 2.8018393335 2.8758309421 2.718901062 2.8307207459 2.7598010554 2.95115522 2.8800620952 2.8058000847 
3.0774230472 3.00855263 2.9351694502 2.8576792927 3.0774230472 3.1415926536 3.0719036933 2.9967168029 2.91630358 
2.95115522 3.00855263 3.0719036933 3.1415926536 3.0653475414 2.9825888767 2.8307207459 2.8800620952 2.9351694502 
2.9967168029 3.0653475414 3.1415926536 3.0574329311 2.718901062 2.7598010554 2.8058000847 2.8576792927 2.91630358 
2.9825888767 3.0574329311 3.1415926536 2.718901062 2.7598010554 2.8307207459 2.8058000847 2.8800620952 2.95115522 
2.8576792927 2.9351694502 3.00855263 3.0774230472 2.91630358 2.9967168029 3.0719036933 3.1415926536 3.0774230472 
2.9825888767 3.0653475414 3.1415926536 3.0719036933 3.00855263 2.95115522 3.0574329311 3.1415926536 3.0653475414 