# vtk DataFile Version 5.1
vtk output
ASCII
DATASET POLYDATA
POINTS 1002 float
19.8252 40.4569 14.0016 11.7269 33.8276 16.912 19.9268 37.3035 7.78846 
13.1749 29.6072 9.56845 11.2185 40.6668 12.2581 12.5179 38.3046 6.98879 
20.6034 32.8812 18.066 21.6943 30.0161 12.3185 5.82829 31.2892 12.9049 
20.1453 44.968 7.56509 11.7925 26.8452 16.4111 26.0944 39.2871 12.0711 
19.3553 39.6636 14.0274 18.7317 38.7801 14.0001 17.8208 37.9327 14.0472 
16.7004 37.2386 14.3281 15.6015 36.7392 14.9094 14.6363 36.3696 15.6734 
13.7733 35.9643 16.3513 13.0056 35.3739 16.7362 12.3402 34.6123 16.862 
19.3952 40.5021 13.6223 18.8301 40.4937 13.1836 18.0517 40.4443 12.7663 
17.0894 40.4338 12.5101 16.0357 40.5907 12.5162 14.9567 40.8825 12.6856 
13.8878 41.0775 12.7829 12.8716 41.0387 12.6955 11.965 40.8568 12.4903 
19.9867 39.8933 14.3898 20.2446 39.1989 14.7356 20.5521 38.303 14.9668 
20.8188 37.246 15.1306 20.9992 36.2372 15.379 21.0678 35.4416 15.7838 
20.9961 34.7947 16.2901 20.831 34.1591 16.8573 20.6807 33.5078 17.4735 
20.074 41.2443 13.6992 20.3614 42.019 13.347 20.552 42.6789 12.8773 
20.6092 43.2349 12.2567 20.695 43.8462 11.6514 20.8767 44.5289 11.194 
20.9469 45.0289 10.6517 20.7576 45.1796 9.74284 20.4313 45.1008 8.59256 
20.4344 40.8055 14.1079 21.3322 41.0267 14.1063 22.5539 41.1642 14.1103 
23.8174 41.2668 14.2033 24.7936 41.2107 14.2271 25.5002 40.8432 13.9496 
26.0927 40.2935 13.4066 26.4717 39.8376 12.8362 26.4555 39.5467 12.3906 
11.3708 34.5341 16.8047 11.0298 35.3261 16.7248 10.7421 36.019 16.4651 
10.5468 36.5727 15.8789 10.4782 37.199 15.1159 10.5309 38.0575 14.4781 
10.6452 38.9931 14.0193 10.78 39.7564 13.5381 10.9606 40.2841 12.9217 
12.5048 33.7292 17.0873 13.3269 33.6869 17.2771 14.1124 33.5087 17.2045 
14.8971 33.0526 16.6921 15.8861 32.4833 16.0135 17.1799 32.1742 15.729 
18.5049 32.2771 16.1017 19.4971 32.5817 16.8838 20.1226 32.8139 17.6347 
10.8408 33.5007 16.9305 9.85816 33.2724 17.0461 8.8604 33.0811 17.1106 
7.96925 32.7777 16.9051 7.26456 32.3225 16.3969 6.74343 31.8753 15.7452 
6.35928 31.5935 15.0545 6.0735 31.457 14.3255 5.88614 31.3669 13.5853 
11.5287 32.9912 17.1264 11.2462 32.2219 17.4935 10.9031 31.4692 17.8735 
10.5376 30.5489 18.1019 10.2073 29.4262 18.2438 10.0499 28.3505 18.404 
10.209 27.5694 18.3863 10.6601 27.1118 17.9526 11.2339 26.8971 17.2011 
19.4178 36.6192 7.81319 18.9575 35.834 7.72414 18.5535 34.9843 7.5493 
18.0942 34.0865 7.44796 17.4202 33.1401 7.57709 16.5261 32.1966 7.91178 
15.5786 31.3634 8.32227 14.7122 30.6906 8.74584 13.9288 30.1268 9.17111 
19.4475 37.4132 7.37355 18.9337 37.562 6.97984 18.3707 37.7206 6.56588 
17.6497 37.8324 6.16453 16.7028 37.8713 5.94274 15.6573 37.8879 5.99848 
14.6907 37.9601 6.21133 13.8479 38.096 6.43694 13.1166 38.2297 6.6771 
20.09 36.8083 8.28245 20.2866 36.2223 8.80205 20.4408 35.4772 9.31458 
20.5403 34.6093 9.80238 20.7242 33.7213 10.2615 21.0961 32.8248 10.6841 
21.5107 31.8937 11.0657 21.7481 31.0336 11.4327 21.7752 30.3985 11.8387 
20.2168 38.0229 7.40796 20.5486 38.8391 7.00219 20.7707 39.7458 6.71487 
20.7987 40.7021 6.64527 20.755 41.7032 6.73827 20.8073 42.7423 6.79903 
20.8982 43.6881 6.72302 20.8309 44.3708 6.6863 20.5446 44.7652 6.95308 
20.5514 37.6244 8.03395 21.2426 37.8956 8.29891 22.0254 38.0994 8.57539 
22.8272 38.2884 8.93584 23.4806 38.5423 9.45514 23.9837 38.8722 10.0565 
24.5488 39.1948 10.5941 25.2334 39.3974 11.0591 25.8163 39.4199 11.5412 
13.0308 30.2221 9.33266 12.8622 30.8633 9.05285 12.6254 31.5429 8.75746 
12.4493 32.3646 8.48691 12.4806 33.3839 8.24874 12.5936 34.4742 7.99067 
12.5629 35.4789 7.66736 12.431 36.4111 7.33043 12.3963 37.3562 7.08739 
13.881 29.3221 9.5456 14.7784 29.0577 9.50777 15.8249 28.895 9.50214 
16.8247 28.8888 9.67403 17.6471 29.0197 10.128 18.4356 29.2027 10.7254 
19.3518 29.3776 11.2162 20.2899 29.5622 11.5571 21.0733 29.7835 11.8936 
12.246 29.4356 9.82397 11.1716 29.2239 10.1225 10.0107 29.0655 10.4394 
8.84599 29.0614 10.6638 7.73345 29.1886 10.7426 6.75187 29.3767 10.8621 
6.03882 29.6693 11.2491 5.68823 30.1325 11.8505 5.66087 30.7098 12.4409 
12.7924 28.9085 9.92426 12.3834 28.2138 10.2596 11.9842 27.5944 10.6218 
11.6726 27.1257 11.1715 11.5093 26.9081 12.0299 11.4416 26.9535 13.0582 
11.3918 27.0789 14.0029 11.4041 27.0831 14.8231 11.5507 26.9608 15.6269 
11.0339 40.7939 11.7008 10.9201 40.9883 11.0979 10.8206 41.2228 10.3761 
10.7453 41.3457 9.52386 10.8749 41.1783 8.74976 11.31 40.7088 8.2593 
11.8252 40.1019 7.95049 12.1605 39.4949 7.61657 12.3379 38.9017 7.25665 
10.4021 40.2562 12.4058 9.66191 39.7354 12.4979 9.00206 38.9912 12.5439 
8.38656 38.0039 12.6117 7.81906 36.8945 12.723 7.35588 35.7528 12.8063 
6.99176 34.5573 12.8298 6.63424 33.3367 12.8515 6.2302 32.2187 12.894 
12.0113 41.1502 11.7438 12.9366 41.7046 11.2606 13.8388 42.34 10.8652 
14.6091 43.085 10.4791 15.3468 43.9103 9.98947 16.2074 44.6169 9.43746 
17.1817 44.9996 8.92285 18.1873 45.0873 8.43503 19.1904 45.0459 7.95581 
11.886 37.7406 7.44186 11.2515 37.0804 8.05986 10.5958 36.2877 8.77912 
9.89209 35.4046 9.4754 9.11113 34.5716 10.0857 8.25723 33.8706 10.6463 
7.41463 33.2154 11.1935 6.6983 32.5156 11.7362 6.16759 31.8332 12.3014 
13.0781 39.2663 6.77083 13.7512 40.286 6.604 14.5161 41.2118 6.47063 
15.34 41.9846 6.3897 16.1928 42.7507 6.38524 17.0518 43.6109 6.4215 
17.8757 44.3649 6.46577 18.6349 44.7779 6.60377 19.3712 44.9074 6.96683 
20.9329 32.4213 18.4311 21.3487 31.8266 18.3998 21.7526 31.2137 17.8637 
22.1175 30.6993 17.0417 22.5004 30.3207 16.293 22.7976 30.0809 15.6626 
22.7749 29.9806 14.9066 22.4365 29.9728 13.9634 22.0245 29.9904 13.0406 
20.2522 32.2751 18.3615 19.8245 31.6459 18.3178 19.2085 30.9439 17.874 
18.2949 30.1165 17.2824 17.1188 29.1732 16.9421 15.9033 28.2276 16.9898 
14.8174 27.4508 17.165 13.8082 26.9706 17.1412 12.786 26.8004 16.8452 
21.1919 33.2896 17.8221 22.0505 33.8144 17.4417 23.2474 34.4637 17.1895 
24.5613 35.1268 17.028 25.4783 35.6954 16.5861 25.6773 36.2446 15.6923 
25.4754 36.9344 14.5974 25.4445 37.7694 13.5874 25.7394 38.5996 12.7485 
21.1596 29.6247 12.5937 20.5015 29.1759 12.9551 19.7763 28.5428 13.336 
18.985 27.8704 13.6667 18.0553 27.4523 14.0118 16.9229 27.2817 14.501 
15.6198 27.1158 15.0866 14.2647 26.917 15.5938 12.9714 26.8186 15.9943 
22.3118 30.4718 12.4827 22.8884 31.0676 12.6089 23.476 31.7733 12.5887 
24.1401 32.5228 12.4316 24.7663 33.3717 12.2829 25.0877 34.4925 12.2509 
25.0866 35.896 12.2849 25.1214 37.3192 12.2735 25.4858 38.4765 12.1839 
5.49584 30.545 13.2875 5.35892 29.8955 13.711 5.49379 29.2077 14.2013 
5.83831 28.344 14.8291 6.30632 27.4717 15.6088 6.95101 26.9691 16.3222 
7.89262 26.9104 16.665 9.11838 26.9872 16.6267 10.4711 26.9558 16.4747 
21.2724 44.9725 7.86523 22.4446 44.9365 8.28435 23.3804 44.6619 8.74137 
23.9139 43.9759 9.18149 24.3658 42.9681 9.64942 25.197 41.9647 10.1875 
26.2209 41.1964 10.732 26.7794 40.6062 11.212 26.626 40.0047 11.6431 
18.7811 39.6468 13.6112 18.0106 39.6494 13.2249 17.9248 38.8153 13.7054 
17.0443 39.6878 12.9689 16.9533 38.933 13.5396 16.8356 38.1158 14.0155 
15.953 39.815 12.9226 15.8941 39.0748 13.485 15.8175 38.3315 14.0788 
15.6943 37.5343 14.53 14.8121 40.0812 13.0746 14.7684 39.2522 13.5101 
14.7825 38.4671 14.077 14.7286 37.728 14.6629 14.6282 37.0261 15.1873 
13.6973 40.3679 13.2656 13.6083 39.4989 13.6141 13.6435 38.5931 14.0229 
13.6822 37.7902 14.6164 13.6377 37.138 15.2884 13.6266 36.5568 15.8911 
12.6674 40.4865 13.3109 12.5287 39.7143 13.7238 12.4839 38.7768 14.0389 
12.5053 37.8672 14.5378 12.5268 37.161 15.2613 12.5664 36.6029 15.9585 
12.722 36.0197 16.443 11.7456 40.4213 13.1708 11.5901 39.7917 13.7119 
11.4787 38.9316 14.0838 11.4085 37.9831 14.525 11.4048 37.1931 15.218 
11.4895 36.6073 15.9678 11.6821 36.0231 16.4748 11.9831 35.3245 16.7146 
19.596 41.3538 13.3386 19.7078 42.1758 12.9967 18.9533 41.3502 12.8905 
19.644 42.8594 12.4675 18.8971 42.1683 12.5195 18.1092 41.2488 12.4305 
19.5463 43.4557 11.7795 18.7076 42.8684 11.9199 18.0175 42.0455 12.0031 
17.1471 41.2167 12.1441 19.6218 44.0941 11.2043 18.6276 43.5187 11.2249 
17.898 42.7849 11.3811 17.1424 42.0207 11.6732 16.1304 41.3909 12.1196 
19.7518 44.6831 10.7672 18.699 44.1703 10.715 17.8582 43.4962 10.7739 
17.0895 42.7686 11.0854 16.172 42.1388 11.5811 15.0464 41.6055 12.1778 
19.6746 45.0131 10.101 18.6579 44.6954 10.2441 17.7524 44.1658 10.3281 
16.9135 43.4602 10.5807 16.049 42.7609 11.0124 15.0468 42.1635 11.5333 
13.9289 41.6035 12.1141 19.4182 45.0854 9.06155 18.4185 44.9862 9.46212 
17.4671 44.6919 9.77276 16.562 44.1033 10.1183 15.7217 43.3348 10.541 
14.8771 42.6051 10.9673 13.9149 41.9735 11.4128 12.8878 41.3934 11.9373 
18.3563 45.0323 7.34607 17.5715 44.8738 6.97079 17.2635 45.085 7.8488 
16.8122 44.3362 6.81535 16.4277 44.8297 7.44559 16.1573 44.921 8.43677 
16.0319 43.4613 6.76639 15.7065 44.1538 7.22232 15.3167 44.5257 8.05208 
15.1586 44.3892 9.12624 15.1885 42.5539 6.75978 14.9619 43.2174 7.12366 
14.6345 43.787 7.76955 14.3668 43.9108 8.80449 14.3627 43.5695 9.81876 
14.3213 41.7419 6.80733 14.0899 42.296 7.12346 13.8347 42.8973 7.5912 
13.6267 43.2534 8.46745 13.5546 43.1297 9.53841 13.6436 42.718 10.3539 
13.5401 40.8851 6.91329 13.2538 41.4232 7.22161 12.9214 42.0009 7.55673 
12.6872 42.4988 8.18906 12.6386 42.6265 9.17094 12.7028 42.3558 10.1146 
12.8021 41.975 10.7647 12.8908 39.9078 7.06228 12.6306 40.4929 7.39783 
12.2246 41.0817 7.69459 11.8069 41.6519 8.10447 11.6187 41.9917 8.8527 
11.6678 41.9421 9.79874 11.7735 41.6388 10.6026 11.8711 41.3385 11.2024 
10.2306 40.3522 11.7856 10.1389 40.4621 11.0753 9.55021 39.733 11.8026 
10.0677 40.55 10.2625 9.50552 39.6796 11.0075 8.95154 38.8481 11.7802 
10.1234 40.4879 9.46562 9.49698 39.5785 10.2067 8.91541 38.6308 10.9527 
8.3271 37.7578 11.793 10.5099 40.1456 8.89472 9.71948 39.3316 9.57939 
8.9467 38.3596 10.2428 8.24634 37.4344 10.9691 7.70526 36.6003 11.8576 
11.1011 39.5582 8.54273 10.2596 38.8354 9.1859 9.2843 37.9292 9.78057 
8.3377 37.0051 10.3611 7.63584 36.192 11.0781 7.22959 35.4071 11.9496 
[...]
POINT_DATA 1002
FIELD FieldData 4
_paraPhi 1 1002 double
6.2831853072 3.1415926536 6.2831853072 3.1415926536 4.7123889804 4.7123889804 1.5707963268 1.5707963268 3.6951670125 
5.7296109483 2.5880182947 0.5535743589 6.2831853072 6.2831853072 6.2831853072 6.2831853072 3.1415926536 3.1415926536 
3.1415926536 3.1415926536 3.1415926536 6.1053039672 5.898798347 5.6768734901 5.4599499503 5.2659633393 5.1032165617 
4.9713148346 4.8656852733 4.7809517865 0.17788134 0.38438696014 0.60631181711 0.82323535693 1.0172219679 1.1799687454 
1.3118704726 1.4175000338 1.5022335207 6.1892828907 6.1070320098 6.035312792 5.9728339911 5.9183214791 5.8706119594 
5.8286879411 5.7916808611 5.7588591896 0.093902416448 0.17615329733 0.2478725152 0.31035131605 0.36486382811 0.41257334776 
0.45449736604 0.4915044461 0.52432611754 3.3194739936 3.5259796137 3.7479044707 3.9648280105 4.1588146215 4.321561399 
4.4534631262 4.5590926874 4.6438261743 2.9637113136 2.7572056934 2.5352808365 2.3183572967 2.1243706857 1.9616239082 
1.829722181 1.7240926197 1.6393591329 3.23549507 3.3177459509 3.3894651688 3.4519439696 3.5064564817 3.5541660013 
3.5960900196 3.6330970997 3.6659187711 3.0476902371 2.9654393563 2.8937201384 2.8312413375 2.7767288255 2.7290193058 
2.6870952876 2.6500882075 2.617266536 6.2831853072 6.2831853072 6.2831853072 6.2831853072 3.1415926536 3.1415926536 
3.1415926536 3.1415926536 3.1415926536 6.1053039672 5.898798347 5.6768734901 5.4599499503 5.2659633393 5.1032165617 
4.9713148346 4.8656852733 4.7809517865 0.17788134 0.38438696014 0.60631181711 0.82323535693 1.0172219679 1.1799687454 
1.3118704726 1.4175000338 1.5022335207 6.1892828907 6.1070320098 6.035312792 5.9728339911 5.9183214791 5.8706119594 
5.8286879411 5.7916808611 5.7588591896 0.093902416448 0.17615329733 0.2478725152 0.31035131605 0.36486382811 0.41257334776 
0.45449736604 0.4915044461 0.52432611754 3.3194739936 3.5259796137 3.7479044707 3.9648280105 4.1588146215 4.321561399 
4.4534631262 4.5590926874 4.6438261743 2.9637113136 2.7572056934 2.5352808365 2.3183572967 2.1243706857 1.9616239082 
1.829722181 1.7240926197 1.6393591329 3.23549507 3.3177459509 3.3894651688 3.4519439696 3.5064564817 3.5541660013 
3.5960900196 3.6330970997 3.6659187711 3.0476902371 2.9654393563 2.8937201384 2.8312413375 2.7767288255 2.7290193058 
2.6870952876 2.6500882075 2.617266536 4.7123889804 4.7123889804 4.7123889804 4.7123889804 4.7123889804 4.7123889804 
4.7123889804 4.7123889804 4.7123889804 4.6087898617 4.4991390697 4.3857031936 4.2712800401 4.1588146215 4.0509635631 
3.94975894 3.8564636551 3.7716124825 4.8159880991 4.9256388911 5.0390747672 5.1534979207 5.2659633393 5.3738143976 
5.4750190208 5.5683143056 5.6531654782 4.6087898617 4.4991390697 4.3857031936 4.2712800401 4.1588146215 4.0509635631 
3.94975894 3.8564636551 3.7716124825 4.8159880991 4.9256388911 5.0390747672 5.1534979207 5.2659633393 5.3738143976 
5.4750190208 5.5683143056 5.6531654782 1.5707963268 1.5707963268 1.5707963268 1.5707963268 1.5707963268 1.5707963268 
1.5707963268 1.5707963268 1.5707963268 1.6743954455 1.7840462375 1.8974821136 2.0119052671 2.1243706857 2.232221744 
2.3334263672 2.426721652 2.5115728246 1.4671972081 1.3575464161 1.24411054 1.1296873865 1.0172219679 0.90937090954 
0.80816628637 0.71487100155 0.63001982895 1.6743954455 1.7840462375 1.8974821136 2.0119052671 2.1243706857 2.232221744 
2.3334263672 2.426721652 2.5115728246 1.4671972081 1.3575464161 1.24411054 1.1296873865 1.0172219679 0.90937090954 
0.80816628637 0.71487100155 0.63001982895 3.6007720849 3.4966939854 3.3839471039 3.2645756454 3.1415926536 3.0186096618 
2.8992382033 2.7864913217 2.6824132222 5.8240058758 5.9280839753 6.0408308569 6.1602023154 6.2831853072 0.12298299178 
0.2423544503 0.35510133185 0.45917943135 6.0560271438 5.7885595667 5.9702140275 5.5125918794 5.6029703303 5.7885595667 
5.2659633393 5.2659633393 5.2659633393 5.2659633393 5.0674903122 5.0120975802 4.9155579264 4.7123889804 4.1588146215 
4.9155579264 4.8353719722 4.7123889804 4.5092200343 4.1588146215 3.6362183941 4.8004512023 4.7123889804 4.5894059886 
4.4126803806 4.1588146215 3.8218076305 3.4545639333 4.7123889804 4.6243267584 4.5092200343 4.3572876485 4.1588146215 
3.9121860814 3.6362183941 3.368750817 6.0174235957 5.9434319871 5.8263323547 5.8809213739 5.7674481418 5.6279784266 
5.8278025282 5.718968232 5.5891129425 5.4372443565 5.7823484065 5.678536687 5.5575666702 5.4192596322 5.2659633393 
5.743164462 5.6444075337 5.5314983644 5.4046708639 5.2659633393 5.1195510325 5.7091357773 5.6152775188 5.5096229709 
5.3926039573 5.2659633393 5.1329233157 4.9978930058 5.6793730533 5.5901633916 5.4910209005 5.3824597928 5.2659633393 
5.1440684722 5.0201624502 4.8979782167 5.5683143056 5.4750190208 5.4750190208 5.3738143976 5.3738143976 5.3738143976 
5.2659633393 5.2659633393 5.2659633393 5.2659633393 5.1534979207 5.1534979207 5.1534979207 5.1534979207 5.1534979207 
5.0390747672 5.0390747672 5.0390747672 5.0390747672 5.0390747672 5.0390747672 4.9256388911 4.9256388911 4.9256388911 
4.9256388911 4.9256388911 4.9256388911 4.9256388911 4.8159880991 4.8159880991 4.8159880991 4.8159880991 4.8159880991 
4.8159880991 4.8159880991 4.8159880991 4.6087898617 4.6087898617 4.4991390697 4.6087898617 4.4991390697 4.3857031936 
4.6087898617 4.4991390697 4.3857031936 4.2712800401 4.6087898617 4.4991390697 4.3857031936 4.2712800401 4.1588146215 
4.6087898617 4.4991390697 4.3857031936 4.2712800401 4.1588146215 4.0509635631 4.6087898617 4.4991390697 4.3857031936 
4.2712800401 4.1588146215 4.0509635631 3.94975894 4.6087898617 4.4991390697 4.3857031936 4.2712800401 4.1588146215 
4.0509635631 3.94975894 3.8564636551 4.526799744 4.4046155105 4.426884955 4.2807094886 4.2918546451 4.3052269283 
4.1588146215 4.1588146215 4.1588146215 4.1588146215 4.042318168 4.0321740035 4.0201070968 4.0055183285 3.9875336042 
3.9337570603 3.9151549899 3.8932795963 3.8672112905 3.8356650183 3.7967995342 3.8346145692 3.809500442 3.7803704271 
3.7462412737 3.7058097288 3.657329819 3.5984456061 3.7454049075 3.7156421835 3.6816134988 3.6424295543 3.5969754326 
3.5438565869 3.4813459737 3.4073543651 3.5642842451 3.4524645613 3.5233842518 3.3320300872 3.403123212 3.4773852225 
3.20576226 3.2746326772 3.348015857 3.4255060145 3.0774230472 3.1415926536 3.2112816139 3.2864685043 3.3668817272 
2.95115522 3.00855263 3.0719036933 3.1415926536 3.2178377658 3.3005964304 2.8307207459 2.8800620952 2.9351694502 
2.9967168029 3.0653475414 3.1415926536 3.225752376 2.718901062 2.7598010554 2.8058000847 2.8576792927 2.91630358 
2.9825888767 3.0574329311 3.1415926536 3.5642842451 3.5233842518 3.4524645613 3.4773852225 3.403123212 3.3320300872 
3.4255060145 3.348015857 3.2746326772 3.20576226 3.3668817272 3.2864685043 3.2112816139 3.1415926536 3.0774230472 
3.3005964304 3.2178377658 3.1415926536 3.0719036933 3.00855263 2.95115522 3.225752376 3.1415926536 3.0653475414 
2.9967168029 2.9351694502 2.8800620952 2.8307207459 3.1415926536 3.0574329311 2.9825888767 2.91630358 2.8576792927 
2.8058000847 2.7598010554 2.718901062 4.526799744 4.426884955 4.4046155105 4.3052269283 4.2918546451 4.2807094886 
4.1588146215 4.1588146215 4.1588146215 4.1588146215 3.9875336042 4.0055183285 4.0201070968 4.0321740035 4.042318168 
3.7967995342 3.8356650183 3.8672112905 3.8932795963 3.9151549899 3.9337570603 3.5984456061 3.657329819 3.7058097288 
3.7462412737 3.7803704271 3.809500442 3.8346145692 3.4073543651 3.4813459737 3.5438565869 3.5969754326 3.6424295543 
3.6816134988 3.7156421835 3.7454049075 4.7123889804 4.8004512023 4.6243267584 4.9155579264 4.7123889804 4.5092200343 
5.0674903122 4.8353719722 4.5894059886 4.3572876485 5.2659633393 5.0120975802 4.7123889804 4.4126803806 4.1588146215 
5.5125918794 5.2659633393 4.9155579264 4.5092200343 4.1588146215 3.9121860814 5.7885595667 5.6029703303 5.2659633393 
4.7123889804 4.1588146215 3.8218076305 3.6362183941 6.0560271438 5.9702140275 5.7885595667 5.2659633393 4.1588146215 
3.6362183941 3.4545639333 3.368750817 0.22715816343 0.49462574053 0.3129712797 0.77059342779 0.68021497688 0.49462574053 
1.0172219679 1.0172219679 1.0172219679 1.0172219679 1.2156949949 1.271087727 1.3676273807 1.5707963268 2.1243706857 
1.3676273807 1.447813335 1.5707963268 1.7739652728 2.1243706857 2.6469669131 1.4827341049 1.5707963268 1.6937793186 
1.8705049266 2.1243706857 2.4613776767 2.8286213739 1.5707963268 1.6588585487 1.7739652728 1.9258976586 2.1243706857 
2.3709992258 2.6469669131 2.9144344902 1.7563855631 1.8785697967 1.8563003522 2.0024758186 1.9913306621 1.9779583789 
2.1243706857 2.1243706857 2.1243706857 2.1243706857 2.2408671392 2.2510113037 2.2630782103 2.2776669786 2.295651703 
2.3494282469 2.3680303173 2.3899057108 2.4159740166 2.4475202889 2.486385773 2.448570738 2.4736848652 2.5028148801 
2.5369440334 2.5773755784 2.6258554882 2.6847397011 2.5377803997 2.5675431237 2.6015718084 2.6407557529 2.6862098746 
2.7393287203 2.8018393335 2.8758309421 1.6743954455 1.6743954455 1.7840462375 1.6743954455 1.7840462375 1.8974821136 
1.6743954455 1.7840462375 1.8974821136 2.0119052671 1.6743954455 1.7840462375 1.8974821136 2.0119052671 2.1243706857 
1.6743954455 1.7840462375 1.8974821136 2.0119052671 2.1243706857 2.232221744 1.6743954455 1.7840462375 1.8974821136 
2.0119052671 2.1243706857 2.232221744 2.3334263672 1.6743954455 1.7840462375 1.8974821136 2.0119052671 2.1243706857 
2.232221744 2.3334263672 2.426721652 1.4671972081 1.3575464161 1.4671972081 1.24411054 1.3575464161 1.4671972081 
1.1296873865 1.24411054 1.3575464161 1.4671972081 1.0172219679 1.1296873865 1.24411054 1.3575464161 1.4671972081 
0.90937090954 1.0172219679 1.1296873865 1.24411054 1.3575464161 1.4671972081 0.80816628637 0.90937090954 1.0172219679 
1.1296873865 1.24411054 1.3575464161 1.4671972081 0.71487100155 0.80816628637 0.90937090954 1.0172219679 1.1296873865 
1.24411054 1.3575464161 1.4671972081 0.60381225391 0.57404952988 0.69302191562 0.54002084522 0.66790778838 0.79216440667 
0.50083690068 0.63877777351 0.77356233629 0.90072551443 0.45538277901 0.60464862014 0.75168694275 0.89058134991 1.0172219679 
0.40226393329 0.56421707518 0.72561863695 0.87851444325 1.0172219679 1.139116835 0.33975332011 0.51573716537 0.69407236469 
0.86392567495 1.0172219679 1.1502619915 1.2630228569 0.26576171152 0.45685295248 0.6552068806 0.84594095064 1.0172219679 
1.1636342747 1.2852923014 1.3852070904 0.22715816343 0.3129712797 0.49462574053 0.49462574053 0.68021497688 0.77059342779 
1.0172219679 1.0172219679 1.0172219679 1.0172219679 2.1243706857 1.5707963268 1.3676273807 1.271087727 1.2156949949 
2.6469669131 2.1243706857 1.7739652728 1.5707963268 1.447813335 1.3676273807 2.8286213739 2.4613776767 2.1243706857 
1.8705049266 1.6937793186 1.5707963268 1.4827341049 2.9144344902 2.6469669131 2.3709992258 2.1243706857 1.9258976586 
1.7739652728 1.6588585487 1.5707963268 1.7563855631 1.8563003522 1.8785697967 1.9779583789 1.9913306621 2.0024758186 
2.1243706857 2.1243706857 2.1243706857 2.1243706857 2.295651703 2.2776669786 2.2630782103 2.2510113037 2.2408671392 
2.486385773 2.4475202889 2.4159740166 2.3899057108 2.3680303173 2.3494282469 2.6847397011 2.6258554882 2.5773755784 
2.5369440334 2.5028148801 2.4736848652 2.448570738 2.8758309421 2.8018393335 2.7393287203 2.6862098746 2.6407557529 
2.6015718084 2.5675431237 2.5377803997 5.8604937156 5.901393709 5.9723133995 5.9473927383 6.0216547488 6.0927478736 
5.9992719463 6.0767621038 6.1501452836 6.2190157008 6.0578962336 6.1383094565 6.2134963469 0 0.064169606361 
6.1241815303 6.206940195 6.2831853072 0.069688960264 0.13304002361 0.19043743361 6.1990255847 0 0.07624511221 
0.14487585072 0.20642320337 0.26153055843 0.3108719077 0 0.084159722458 0.15900377685 0.22528907359 0.28391336087 
0.3357925689 0.38179159818 0.42269159155 5.8604937156 5.9723133995 5.901393709 6.0927478736 6.0216547488 5.9473927383 
6.2190157008 6.1501452836 6.0767621038 5.9992719463 0.064169606361 0 6.2134963469 6.1383094565 6.0578962336 
0.19043743361 0.13304002361 0.069688960264 6.2831853072 6.206940195 6.1241815303 0.3108719077 0.26153055843 0.20642320337 
0.14487585072 0.07624511221 6.2831853072 6.1990255847 0.42269159155 0.38179159818 0.3357925689 0.28391336087 0.22528907359 
0.15900377685 0.084159722458 0 5.6793730533 5.7091357773 5.5901633916 5.743164462 5.6152775188 5.4910209005 
5.7823484065 5.6444075337 5.5096229709 5.3824597928 5.8278025282 5.678536687 5.5314983644 5.3926039573 5.2659633393 
5.8809213739 5.718968232 5.5575666702 5.4046708639 5.2659633393 5.1440684722 5.9434319871 5.7674481418 5.5891129425 
5.4192596322 5.2659633393 5.1329233157 5.0201624502 6.0174235957 5.8263323547 5.6279784266 5.4372443565 5.2659633393 
5.1195510325 4.9978930058 4.8979782167 1.3852070904 1.2852923014 1.2630228569 1.1636342747 1.1502619915 1.139116835 
1.0172219679 1.0172219679 1.0172219679 1.0172219679 0.84594095064 0.86392567495 0.87851444325 0.89058134991 0.90072551443 
0.6552068806 0.69407236469 0.72561863695 0.75168694275 0.77356233629 0.79216440667 0.45685295248 0.51573716537 0.56421707518 
0.60464862014 0.63877777351 0.66790778838 0.69302191562 0.26576171152 0.33975332011 0.40226393329 0.45538277901 0.50083690068 
0.54002084522 0.57404952988 0.60381225391 
_paraPhiHalf 1 1002 double
0 3.1415926536 0 3.1415926536 1.5707963268 1.5707963268 1.5707963268 1.5707963268 2.5880182947 
0.5535743589 2.5880182947 0.5535743589 0 0 0 0 3.1415926536 3.1415926536 
3.1415926536 3.1415926536 3.1415926536 0.17788134 0.38438696014 0.60631181711 0.82323535693 1.0172219679 1.1799687454 
1.3118704726 1.4175000338 1.5022335207 0.17788134 0.38438696014 0.60631181711 0.82323535693 1.0172219679 1.1799687454 
1.3118704726 1.4175000338 1.5022335207 0.093902416448 0.17615329733 0.2478725152 0.31035131605 0.36486382811 0.41257334776 
0.45449736604 0.4915044461 0.52432611754 0.093902416448 0.17615329733 0.2478725152 0.31035131605 0.36486382811 0.41257334776 
0.45449736604 0.4915044461 0.52432611754 2.9637113136 2.7572056934 2.5352808365 2.3183572967 2.1243706857 1.9616239082 
1.829722181 1.7240926197 1.6393591329 2.9637113136 2.7572056934 2.5352808365 2.3183572967 2.1243706857 1.9616239082 
1.829722181 1.7240926197 1.6393591329 3.0476902371 2.9654393563 2.8937201384 2.8312413375 2.7767288255 2.7290193058 
2.6870952876 2.6500882075 2.617266536 3.0476902371 2.9654393563 2.8937201384 2.8312413375 2.7767288255 2.7290193058 
2.6870952876 2.6500882075 2.617266536 0 0 0 0 3.1415926536 3.1415926536 
3.1415926536 3.1415926536 3.1415926536 0.17788134 0.38438696014 0.60631181711 0.82323535693 1.0172219679 1.1799687454 
1.3118704726 1.4175000338 1.5022335207 0.17788134 0.38438696014 0.60631181711 0.82323535693 1.0172219679 1.1799687454 
1.3118704726 1.4175000338 1.5022335207 0.093902416448 0.17615329733 0.2478725152 0.31035131605 0.36486382811 0.41257334776 
0.45449736604 0.4915044461 0.52432611754 0.093902416448 0.17615329733 0.2478725152 0.31035131605 0.36486382811 0.41257334776 
0.45449736604 0.4915044461 0.52432611754 2.9637113136 2.7572056934 2.5352808365 2.3183572967 2.1243706857 1.9616239082 
1.829722181 1.7240926197 1.6393591329 2.9637113136 2.7572056934 2.5352808365 2.3183572967 2.1243706857 1.9616239082 
1.829722181 1.7240926197 1.6393591329 3.0476902371 2.9654393563 2.8937201384 2.8312413375 2.7767288255 2.7290193058 
2.6870952876 2.6500882075 2.617266536 3.0476902371 2.9654393563 2.8937201384 2.8312413375 2.7767288255 2.7290193058 
2.6870952876 2.6500882075 2.617266536 1.5707963268 1.5707963268 1.5707963268 1.5707963268 1.5707963268 1.5707963268 
1.5707963268 1.5707963268 1.5707963268 1.6743954455 1.7840462375 1.8974821136 2.0119052671 2.1243706857 2.232221744 
2.3334263672 2.426721652 2.5115728246 1.4671972081 1.3575464161 1.24411054 1.1296873865 1.0172219679 0.90937090954 
0.80816628637 0.71487100155 0.63001982895 1.6743954455 1.7840462375 1.8974821136 2.0119052671 2.1243706857 2.232221744 
2.3334263672 2.426721652 2.5115728246 1.4671972081 1.3575464161 1.24411054 1.1296873865 1.0172219679 0.90937090954 
0.80816628637 0.71487100155 0.63001982895 1.5707963268 1.5707963268 1.5707963268 1.5707963268 1.5707963268 1.5707963268 
1.5707963268 1.5707963268 1.5707963268 1.6743954455 1.7840462375 1.8974821136 2.0119052671 2.1243706857 2.232221744 
2.3334263672 2.426721652 2.5115728246 1.4671972081 1.3575464161 1.24411054 1.1296873865 1.0172219679 0.90937090954 
0.80816628637 0.71487100155 0.63001982895 1.6743954455 1.7840462375 1.8974821136 2.0119052671 2.1243706857 2.232221744 
2.3334263672 2.426721652 2.5115728246 1.4671972081 1.3575464161 1.24411054 1.1296873865 1.0172219679 0.90937090954 
0.80816628637 0.71487100155 0.63001982895 2.6824132222 2.7864913217 2.8992382033 3.0186096618 3.1415926536 3.0186096618 
2.8992382033 2.7864913217 2.6824132222 0.45917943135 0.35510133185 0.2423544503 0.12298299178 0 0.12298299178 
0.2423544503 0.35510133185 0.45917943135 0.22715816343 0.49462574053 0.3129712797 0.77059342779 0.68021497688 0.49462574053 
1.0172219679 1.0172219679 1.0172219679 1.0172219679 1.2156949949 1.271087727 1.3676273807 1.5707963268 2.1243706857 
1.3676273807 1.447813335 1.5707963268 1.7739652728 2.1243706857 2.6469669131 1.4827341049 1.5707963268 1.6937793186 
1.8705049266 2.1243706857 2.4613776767 2.8286213739 1.5707963268 1.6588585487 1.7739652728 1.9258976586 2.1243706857 
2.3709992258 2.6469669131 2.9144344902 0.26576171152 0.33975332011 0.45685295248 0.40226393329 0.51573716537 0.6552068806 
0.45538277901 0.56421707518 0.69407236469 0.84594095064 0.50083690068 0.60464862014 0.72561863695 0.86392567495 1.0172219679 
0.54002084522 0.63877777351 0.75168694275 0.87851444325 1.0172219679 1.1636342747 0.57404952988 0.66790778838 0.77356233629 
0.89058134991 1.0172219679 1.1502619915 1.2852923014 0.60381225391 0.69302191562 0.79216440667 0.90072551443 1.0172219679 
1.139116835 1.2630228569 1.3852070904 0.71487100155 0.80816628637 0.80816628637 0.90937090954 0.90937090954 0.90937090954 
1.0172219679 1.0172219679 1.0172219679 1.0172219679 1.1296873865 1.1296873865 1.1296873865 1.1296873865 1.1296873865 
1.24411054 1.24411054 1.24411054 1.24411054 1.24411054 1.24411054 1.3575464161 1.3575464161 1.3575464161 
1.3575464161 1.3575464161 1.3575464161 1.3575464161 1.4671972081 1.4671972081 1.4671972081 1.4671972081 1.4671972081 
1.4671972081 1.4671972081 1.4671972081 1.6743954455 1.6743954455 1.7840462375 1.6743954455 1.7840462375 1.8974821136 
1.6743954455 1.7840462375 1.8974821136 2.0119052671 1.6743954455 1.7840462375 1.8974821136 2.0119052671 2.1243706857 
1.6743954455 1.7840462375 1.8974821136 2.0119052671 2.1243706857 2.232221744 1.6743954455 1.7840462375 1.8974821136 
2.0119052671 2.1243706857 2.232221744 2.3334263672 1.6743954455 1.7840462375 1.8974821136 2.0119052671 2.1243706857 
2.232221744 2.3334263672 2.426721652 1.7563855631 1.8785697967 1.8563003522 2.0024758186 1.9913306621 1.9779583789 
2.1243706857 2.1243706857 2.1243706857 2.1243706857 2.2408671392 2.2510113037 2.2630782103 2.2776669786 2.295651703 
2.3494282469 2.3680303173 2.3899057108 2.4159740166 2.4475202889 2.486385773 2.448570738 2.4736848652 2.5028148801 
2.5369440334 2.5773755784 2.6258554882 2.6847397011 2.5377803997 2.5675431237 2.6015718084 2.6407557529 2.6862098746 
2.7393287203 2.8018393335 2.8758309421 2.718901062 2.8307207459 2.7598010554 2.95115522 2.8800620952 2.8058000847 
3.0774230472 3.00855263 2.9351694502 2.8576792927 3.0774230472 3.1415926536 3.0719036933 2.9967168029 2.91630358 
2.95115522 3.00855263 3.0719036933 3.1415926536 3.0653475414 2.9825888767 2.8307207459 2.8800620952 2.9351694502 
2.9967168029 3.0653475414 3.1415926536 3.0574329311 2.718901062 2.7598010554 2.8058000847 2.8576792927 2.91630358 
2.9825888767 3.0574329311 3.1415926536 2.718901062 2.7598010554 2.8307207459 2.8058000847 2.8800620952 2.95115522 
2.8576792927 2.9351694502 3.00855263 3.0774230472 2.91630358 2.9967168029 3.0719036933 3.1415926536 3.0774230472 
2.9825888767 3.0653475414 3.1415926536 3.0719036933 3.00855263 2.95115522 3.0574329311 3.1415926536 3.0653475414 