# vtk DataFile Version 5.1
vtk output
ASCII
DATASET POLYDATA
POINTS 1002 float
24.0507 41.7843 16.1418 13.6193 39.0442 17.6832 24.8044 37.1807 11.0514 
14.6906 33.3896 11.3577 16.9001 43.9908 11.8206 17.8479 40.6908 6.59934 
20.4743 35.2117 19.6238 22.9446 30.9654 15.5638 9.15381 39.0099 11.9809 
27.4842 44.4492 11.2798 8.8855 30.946 19.4062 29.8983 38.7258 16.7238 
23.2397 41.2564 15.9568 22.338 40.6123 15.7795 21.263 40.0438 15.7412 
20.0174 39.7603 15.9164 18.7441 39.7956 16.2968 17.5455 40.0108 16.8535 
16.3826 40.1888 17.4592 15.267 40.1052 17.8565 14.3252 39.6785 17.8956 
23.5773 41.9663 15.7092 22.9951 42.1704 15.2686 22.2592 42.2657 14.7434 
21.4042 42.2135 14.0817 20.562 42.2596 13.3998 19.8157 42.6665 12.9296 
19.1165 43.2941 12.7238 18.3926 43.7765 12.5724 17.6402 43.97 12.2734 
23.9867 41.3572 16.5318 23.8927 40.9073 17.017 23.7542 40.3621 17.5673 
23.5733 39.6782 18.1203 23.3378 38.9459 18.6003 22.9604 38.2652 18.9475 
22.3712 37.5696 19.1847 21.6617 36.7662 19.3869 21.003 35.9309 19.5562 
24.6116 42.3201 15.9943 25.2403 42.8525 15.7698 25.9038 43.3884 15.4948 
26.5872 43.9273 15.2327 27.2811 44.453 14.9271 27.8953 44.9066 14.3725 
28.2541 45.1601 13.507 28.2474 45.1174 12.565 27.9369 44.8324 11.8067 
24.8584 41.948 16.5238 25.7677 42.0448 16.8802 26.7109 42.0258 17.1218 
27.6105 41.8785 17.2816 28.4691 41.6473 17.5181 29.2615 41.3514 17.8017 
29.8198 40.9274 17.8488 30.0267 40.3159 17.5449 29.99 39.5492 17.0974 
13.7925 39.8258 17.4671 13.9257 40.6434 17.2327 14.056 41.3944 16.8568 
14.3078 41.9391 16.1733 14.7124 42.3404 15.2852 15.1369 42.8599 14.5601 
15.5024 43.5084 14.0919 15.8939 43.9655 13.5652 16.3798 44.0665 12.7659 
13.8903 38.652 18.0505 14.3629 38.1802 18.3779 14.9939 37.7318 18.7187 
15.6338 37.4153 19.1373 16.2758 37.1735 19.4669 17.0938 36.831 19.4292 
18.1047 36.3452 19.1269 19.0777 35.849 18.995 19.8493 35.4648 19.2265 
13.1561 38.813 17.2367 12.6569 38.5835 16.7669 11.969 38.456 16.3594 
11.1348 38.4774 15.998 10.3843 38.6456 15.5824 9.81592 38.9214 15.012 
9.35341 39.1917 14.2527 9.02345 39.3145 13.3906 8.95183 39.2363 12.5942 
13.1015 38.1264 17.6761 12.4903 37.208 17.8137 11.7711 36.4035 18.2017 
11.0182 35.7558 18.7699 10.354 35.1736 19.2975 9.78595 34.4412 19.6582 
9.24077 33.4295 19.8867 8.79557 32.3118 19.9707 8.6507 31.424 19.8149 
24.0018 36.7186 10.8567 23.1765 36.1764 10.638 22.2772 35.5966 10.4528 
21.3003 35.0539 10.3367 20.2928 34.5782 10.2856 19.2217 34.1637 10.3105 
18.0105 33.8448 10.4577 16.7375 33.6453 10.7268 15.5962 33.5132 11.0467 
24.2479 37.4863 10.6905 23.557 37.8616 10.2795 22.8023 38.2662 9.79489 
22.1101 38.6437 9.2495 21.5152 38.9802 8.64302 20.9063 39.302 7.97213 
20.1857 39.6269 7.34071 19.3861 39.9617 6.90315 18.5912 40.317 6.68636 
24.7694 36.6414 11.3196 24.6888 36.0917 11.6726 24.5635 35.4893 12.1214 
24.3677 34.7431 12.5775 24.1349 33.8604 12.9625 23.976 32.9928 13.3343 
23.9006 32.2474 13.787 23.7527 31.6288 14.3318 23.417 31.1782 14.9377 
25.3427 37.7943 10.9713 25.931 38.4457 10.8187 26.462 39.137 10.6625 
26.8433 39.9015 10.6145 27.1197 40.7544 10.6831 27.3736 41.6403 10.7815 
27.5674 42.4831 10.8723 27.6356 43.2496 10.9781 27.5964 43.9188 11.1118 
25.6546 37.2808 11.3897 26.5836 37.381 11.7601 27.5296 37.448 12.1445 
28.4147 37.4567 12.5669 29.139 37.4507 13.1406 29.6149 37.5265 13.9366 
29.8638 37.736 14.8301 29.984 38.0522 15.6235 30.0087 38.4067 16.2432 
14.773 33.9137 10.9005 15.0172 34.4841 10.313 15.4055 35.1035 9.64011 
15.8253 35.791 9.01824 16.1671 36.6203 8.57236 16.4304 37.6223 8.25273 
16.6995 38.6466 7.90136 17.0406 39.4931 7.46328 17.4435 40.1362 7.00497 
15.2449 32.9425 11.5585 15.9071 32.4368 11.7555 16.5587 31.8969 11.9717 
17.2037 31.453 12.2176 18.0431 31.2119 12.5231 19.2073 31.0859 12.9629 
20.505 30.941 13.5617 21.6168 30.823 14.2385 22.4073 30.8379 14.911 
13.9468 33.6062 11.4252 13.2674 33.9006 11.5009 12.5733 34.2968 11.5475 
11.8207 34.8053 11.5751 11.1354 35.4108 11.6725 10.6406 36.0735 11.8437 
10.2392 36.7756 11.9417 9.7992 37.5297 11.907 9.38609 38.3052 11.8742 
14.2001 32.9671 11.7969 13.6721 32.516 12.2781 13.004 32.0995 12.8548 
12.1835 31.7285 13.5522 11.3177 31.3853 14.3363 10.4949 31.0966 15.197 
9.74352 30.8936 16.2017 9.15055 30.776 17.3584 8.8497 30.7756 18.5013 
16.7713 43.9767 10.8735 16.6606 44.0711 9.87769 16.5813 44.2157 8.90729 
16.5442 44.2592 7.94743 16.5728 44.1008 7.02401 16.7175 43.6961 6.33116 
16.993 43.0193 6.04593 17.3248 42.1667 6.11094 17.6193 41.3466 6.33853 
15.7829 44.0117 11.8639 14.5858 43.9941 11.8085 13.5069 43.8513 11.6851 
12.6599 43.4296 11.5815 11.9646 42.6951 11.572 11.269 41.8447 11.6444 
10.5345 41.0862 11.7181 9.86305 40.423 11.7586 9.38723 39.7472 11.8243 
17.8268 43.97 11.1871 18.6447 44.1612 10.7283 19.3959 44.5896 10.6132 
20.3173 45.0034 10.6957 21.5699 45.1417 10.7002 23.0156 45.0512 10.6346 
24.4049 44.9358 10.6984 25.6249 44.8518 10.9074 26.6589 44.7139 11.1233 
16.8629 40.709 6.81751 15.8842 40.6608 7.11785 15.005 40.5524 7.56734 
14.1893 40.4031 8.24143 13.2865 40.1597 9.01569 12.2393 39.8005 9.66493 
11.1831 39.4626 10.1818 10.2892 39.2701 10.7207 9.62103 39.1622 11.337 
18.7049 41.0347 6.31955 19.5866 41.4804 6.25122 20.4993 42.056 6.50827 
21.5002 42.6715 7.03643 22.553 43.1748 7.68439 23.5433 43.5211 8.40885 
24.4766 43.784 9.22321 25.4604 44.0237 10.0318 26.5012 44.2483 10.7179 
20.6014 34.7386 19.766 20.8505 34.34 19.6386 21.2392 33.8754 19.2845 
21.7366 33.1778 18.9761 22.2384 32.3438 18.8662 22.6085 31.6791 18.7003 
22.7947 31.3162 18.1678 22.8647 31.14 17.3178 22.9065 31.0304 16.3995 
19.5859 34.7051 19.3708 18.5597 34.1876 19.2216 17.405 33.6167 19.4133 
16.2223 32.9625 19.9544 15.0647 32.2979 20.498 13.8349 31.7913 20.7234 
12.4498 31.5059 20.6502 11.0217 31.3212 20.4092 9.77906 31.1263 20.0046 
21.4345 35.4366 19.9794 22.6276 35.7285 20.1491 24.0711 36.0963 20.0961 
25.516 36.5126 19.9501 26.616 36.8848 19.6734 27.3469 37.175 19.073 
27.997 37.4823 18.2518 28.7218 37.885 17.5528 29.4044 38.3283 17.0924 
22.0426 30.9177 15.8215 20.8735 31.0482 16.1414 19.3856 31.117 16.4991 
17.5979 31.0091 16.9164 15.7433 30.9235 17.4495 14.1058 31.0196 18.071 
12.6774 31.1103 18.636 11.2752 31.0186 19.0342 9.93239 30.8873 19.2759 
23.6758 31.2811 15.8745 24.3768 31.8308 16.2249 25.0667 32.5796 16.475 
25.7572 33.4426 16.5374 26.5649 34.3165 16.5244 27.5849 35.1104 16.5951 
28.5998 35.8425 16.7042 29.2798 36.6622 16.7276 29.6247 37.658 16.696 
8.86254 38.3099 12.5564 8.57763 37.4015 13.2274 8.28475 36.3916 13.9778 
8.07366 35.4097 14.7947 8.00686 34.4297 15.6608 7.9591 33.3566 16.5555 
7.82119 32.292 17.4544 7.77515 31.4886 18.2851 8.10997 31.0685 18.9465 
28.4516 44.2869 11.6921 29.2575 43.9348 12.1706 29.8995 43.3675 12.7556 
30.5468 42.6665 13.381 31.2413 41.996 13.9965 31.6696 41.4658 14.6852 
31.5377 40.9989 15.4539 30.9895 40.4055 16.1061 30.3846 39.6094 16.503 
22.672 41.3936 15.4894 21.9635 41.5391 14.9858 21.6286 40.7533 15.2943 
21.116 41.5998 14.4139 20.7962 40.9406 14.7682 20.4154 40.2973 15.3154 
20.2473 41.7035 13.8603 19.9346 41.1692 14.2983 19.5435 40.6653 14.9144 
19.1131 40.2069 15.6709 19.4791 42.1677 13.5167 19.1673 41.6362 14.0537 
18.771 41.1664 14.6922 18.2779 40.7842 15.5182 17.8471 40.4224 16.299 
18.77 42.9809 13.4433 18.4576 42.4612 14.0631 18.0865 41.873 14.6723 
17.5624 41.4297 15.4663 17.0227 41.0996 16.3283 16.6402 40.7105 17.0003 
18.0089 43.7029 13.4282 17.661 43.3292 14.1199 17.3171 42.6695 14.6655 
16.8447 42.0668 15.349 16.2745 41.6832 16.2205 15.8025 41.3166 16.9928 
15.4956 40.7854 17.5106 17.1879 44.0327 13.2168 16.767 43.8379 13.9758 
16.4076 43.2558 14.4825 16.0055 42.5715 15.0316 15.5068 42.0961 15.8494 
15.045 41.7173 16.7026 14.7336 41.1822 17.2965 14.5195 40.4666 17.649 
24.1039 42.5894 15.554 24.6602 43.1614 15.2642 23.466 42.8446 15.0743 
25.2001 43.672 14.8871 23.9255 43.4445 14.6951 22.6709 42.9259 14.4574 
25.7335 44.1561 14.5578 24.333 43.9636 14.262 23.0702 43.5564 14.0111 
21.787 42.8383 13.6641 26.301 44.6327 14.2028 24.734 44.434 13.9336 
23.4105 44.1426 13.6248 22.1705 43.5157 13.2145 20.9258 42.8632 12.8705 
26.818 45.0139 13.5624 25.1879 44.8371 13.5003 23.7195 44.6453 13.3131 
22.4523 44.1951 12.9218 21.2485 43.547 12.4448 20.119 43.1789 12.3123 
27.0791 45.1527 12.6464 25.5874 45.0676 12.6951 24.0416 44.9753 12.6986 
22.6364 44.7559 12.5458 21.3983 44.2686 12.1529 20.3125 43.7574 11.8182 
19.3374 43.5975 11.9672 26.9891 45.0162 11.7667 25.7426 45.0533 11.7103 
24.3046 45.0594 11.6919 22.8188 45.0525 11.7199 21.4466 44.8671 11.6287 
20.3262 44.4337 11.3714 19.4286 44.0098 11.2762 18.5701 43.8708 11.6258 
25.5783 44.5018 10.4199 24.5099 44.3017 9.62501 24.5217 44.6718 10.0357 
23.5342 44.1227 8.79538 23.4522 44.527 9.16178 23.2829 44.8368 9.71215 
22.5628 43.8952 7.9853 22.4233 44.3914 8.34246 22.155 44.7634 8.8077 
21.8283 45.0655 9.63103 21.4924 43.511 7.18433 21.3341 44.1631 7.50589 
21.0238 44.6443 7.96535 20.6509 45.0487 8.7027 20.3803 45.2225 9.72272 
20.4026 42.9601 6.47053 20.19 43.7833 6.65043 19.8744 44.4064 7.08038 
19.5383 44.896 7.80075 19.305 45.1721 8.77446 19.2692 45.0413 9.7864 
19.4088 42.3599 6.06277 19.1276 43.2923 6.03615 18.7872 44.057 6.30769 
18.4982 44.5991 6.96298 18.3451 44.9174 7.91127 18.3507 44.8943 8.93973 
18.4796 44.5565 9.89257 18.4928 41.816 6.06196 18.1891 42.7431 5.88532 
17.8366 43.6004 5.95138 17.5562 44.2059 6.43117 17.4344 44.539 7.29037 
17.4562 44.5964 8.29699 17.5629 44.3997 9.29125 17.7005 44.1288 10.2599 
15.61 43.9996 10.8555 15.5249 44.0349 9.82782 14.3806 44.0375 10.8134 
15.5422 44.027 8.84676 14.3611 43.9902 9.80453 13.3166 43.8989 10.7214 
15.6227 43.8721 7.89421 14.522 43.7499 8.84382 13.3986 43.6963 9.7385 
12.5253 43.366 10.6311 15.7369 43.5265 7.05235 14.7349 43.3167 7.96889 
13.6837 43.2054 8.85939 12.6884 42.9952 9.71228 11.8784 42.4865 10.6491 
15.9291 42.9549 6.53474 14.9288 42.7424 7.30408 13.9787 42.5521 8.1846 
13.0207 42.3741 9.02497 12.0625 42.0278 9.8632 11.2002 41.5394 10.7844 
[...]
POINT_DATA 1002
FIELD FieldData 4
_paraPhi 1 1002 double
6.2831853072 3.1415926536 6.2831853072 3.1415926536 4.7123889804 4.7123889804 1.5707963268 1.5707963268 3.6951670125 
5.7296109483 2.5880182947 0.5535743589 6.2831853072 6.2831853072 6.2831853072 6.2831853072 3.1415926536 3.1415926536 
3.1415926536 3.1415926536 3.1415926536 6.1053039672 5.898798347 5.6768734901 5.4599499503 5.2659633393 5.1032165617 
4.9713148346 4.8656852733 4.7809517865 0.17788134 0.38438696014 0.60631181711 0.82323535693 1.0172219679 1.1799687454 
1.3118704726 1.4175000338 1.5022335207 6.1892828907 6.1070320098 6.035312792 5.9728339911 5.9183214791 5.8706119594 
5.8286879411 5.7916808611 5.7588591896 0.093902416448 0.17615329733 0.2478725152 0.31035131605 0.36486382811 0.41257334776 
0.45449736604 0.4915044461 0.52432611754 3.3194739936 3.5259796137 3.7479044707 3.9648280105 4.1588146215 4.321561399 
4.4534631262 4.5590926874 4.6438261743 2.9637113136 2.7572056934 2.5352808365 2.3183572967 2.1243706857 1.9616239082 
1.829722181 1.7240926197 1.6393591329 3.23549507 3.3177459509 3.3894651688 3.4519439696 3.5064564817 3.5541660013 
3.5960900196 3.6330970997 3.6659187711 3.0476902371 2.9654393563 2.8937201384 2.8312413375 2.7767288255 2.7290193058 
2.6870952876 2.6500882075 2.617266536 6.2831853072 6.2831853072 6.2831853072 6.2831853072 3.1415926536 3.1415926536 
3.1415926536 3.1415926536 3.1415926536 6.1053039672 5.898798347 5.6768734901 5.4599499503 5.2659633393 5.1032165617 
4.9713148346 4.8656852733 4.7809517865 0.17788134 0.38438696014 0.60631181711 0.82323535693 1.0172219679 1.1799687454 
1.3118704726 1.4175000338 1.5022335207 6.1892828907 6.1070320098 6.035312792 5.9728339911 5.9183214791 5.8706119594 
5.8286879411 5.7916808611 5.7588591896 0.093902416448 0.17615329733 0.2478725152 0.31035131605 0.36486382811 0.41257334776 
0.45449736604 0.4915044461 0.52432611754 3.3194739936 3.5259796137 3.7479044707 3.9648280105 4.1588146215 4.321561399 
4.4534631262 4.5590926874 4.6438261743 2.9637113136 2.7572056934 2.5352808365 2.3183572967 2.1243706857 1.9616239082 
1.829722181 1.7240926197 1.6393591329 3.23549507 3.3177459509 3.3894651688 3.4519439696 3.5064564817 3.5541660013 
3.5960900196 3.6330970997 3.6659187711 3.0476902371 2.9654393563 2.8937201384 2.8312413375 2.7767288255 2.7290193058 
2.6870952876 2.6500882075 2.617266536 4.7123889804 4.7123889804 4.7123889804 4.7123889804 4.7123889804 4.7123889804 
4.7123889804 4.7123889804 4.7123889804 4.6087898617 4.4991390697 4.3857031936 4.2712800401 4.1588146215 4.0509635631 
3.94975894 3.8564636551 3.7716124825 4.8159880991 4.9256388911 5.0390747672 5.1534979207 5.2659633393 5.3738143976 
5.4750190208 5.5683143056 5.6531654782 4.6087898617 4.4991390697 4.3857031936 4.2712800401 4.1588146215 4.0509635631 
3.94975894 3.8564636551 3.7716124825 4.8159880991 4.9256388911 5.0390747672 5.1534979207 5.2659633393 5.3738143976 
5.4750190208 5.5683143056 5.6531654782 1.5707963268 1.5707963268 1.5707963268 1.5707963268 1.5707963268 1.5707963268 
1.5707963268 1.5707963268 1.5707963268 1.6743954455 1.7840462375 1.8974821136 2.0119052671 2.1243706857 2.232221744 
2.3334263672 2.426721652 2.5115728246 1.4671972081 1.3575464161 1.24411054 1.1296873865 1.0172219679 0.90937090954 
0.80816628637 0.71487100155 0.63001982895 1.6743954455 1.7840462375 1.8974821136 2.0119052671 2.1243706857 2.232221744 
2.3334263672 2.426721652 2.5115728246 1.4671972081 1.3575464161 1.24411054 1.1296873865 1.0172219679 0.90937090954 
0.80816628637 0.71487100155 0.63001982895 3.6007720849 3.4966939854 3.3839471039 3.2645756454 3.1415926536 3.0186096618 
2.8992382033 2.7864913217 2.6824132222 5.8240058758 5.9280839753 6.0408308569 6.1602023154 6.2831853072 0.12298299178 
0.2423544503 0.35510133185 0.45917943135 6.0560271438 5.7885595667 5.9702140275 5.5125918794 5.6029703303 5.7885595667 
5.2659633393 5.2659633393 5.2659633393 5.2659633393 5.0674903122 5.0120975802 4.9155579264 4.7123889804 4.1588146215 
4.9155579264 4.8353719722 4.7123889804 4.5092200343 4.1588146215 3.6362183941 4.8004512023 4.7123889804 4.5894059886 
4.4126803806 4.1588146215 3.8218076305 3.4545639333 4.7123889804 4.6243267584 4.5092200343 4.3572876485 4.1588146215 
3.9121860814 3.6362183941 3.368750817 6.0174235957 5.9434319871 5.8263323547 5.8809213739 5.7674481418 5.6279784266 
5.8278025282 5.718968232 5.5891129425 5.4372443565 5.7823484065 5.678536687 5.5575666702 5.4192596322 5.2659633393 
5.743164462 5.6444075337 5.5314983644 5.4046708639 5.2659633393 5.1195510325 5.7091357773 5.6152775188 5.5096229709 
5.3926039573 5.2659633393 5.1329233157 4.9978930058 5.6793730533 5.5901633916 5.4910209005 5.3824597928 5.2659633393 
5.1440684722 5.0201624502 4.8979782167 5.5683143056 5.4750190208 5.4750190208 5.3738143976 5.3738143976 5.3738143976 
5.2659633393 5.2659633393 5.2659633393 5.2659633393 5.1534979207 5.1534979207 5.1534979207 5.1534979207 5.1534979207 
5.0390747672 5.0390747672 5.0390747672 5.0390747672 5.0390747672 5.0390747672 4.9256388911 4.9256388911 4.9256388911 
4.9256388911 4.9256388911 4.9256388911 4.9256388911 4.8159880991 4.8159880991 4.8159880991 4.8159880991 4.8159880991 
4.8159880991 4.8159880991 4.8159880991 4.6087898617 4.6087898617 4.4991390697 4.6087898617 4.4991390697 4.3857031936 
4.6087898617 4.4991390697 4.3857031936 4.2712800401 4.6087898617 4.4991390697 4.3857031936 4.2712800401 4.1588146215 
4.6087898617 4.4991390697 4.3857031936 4.2712800401 4.1588146215 4.0509635631 4.6087898617 4.4991390697 4.3857031936 
4.2712800401 4.1588146215 4.0509635631 3.94975894 4.6087898617 4.4991390697 4.3857031936 4.2712800401 4.1588146215 
4.0509635631 3.94975894 3.8564636551 4.526799744 4.4046155105 4.426884955 4.2807094886 4.2918546451 4.3052269283 
4.1588146215 4.1588146215 4.1588146215 4.1588146215 4.042318168 4.0321740035 4.0201070968 4.0055183285 3.9875336042 
3.9337570603 3.9151549899 3.8932795963 3.8672112905 3.8356650183 3.7967995342 3.8346145692 3.809500442 3.7803704271 
3.7462412737 3.7058097288 3.657329819 3.5984456061 3.7454049075 3.7156421835 3.6816134988 3.6424295543 3.5969754326 
3.5438565869 3.4813459737 3.4073543651 3.5642842451 3.4524645613 3.5233842518 3.3320300872 3.403123212 3.4773852225 
3.20576226 3.2746326772 3.348015857 3.4255060145 3.0774230472 3.1415926536 3.2112816139 3.2864685043 3.3668817272 
2.95115522 3.00855263 3.0719036933 3.1415926536 3.2178377658 3.3005964304 2.8307207459 2.8800620952 2.9351694502 
2.9967168029 3.0653475414 3.1415926536 3.225752376 2.718901062 2.7598010554 2.8058000847 2.8576792927 2.91630358 
2.9825888767 3.0574329311 3.1415926536 3.5642842451 3.5233842518 3.4524645613 3.4773852225 3.403123212 3.3320300872 
3.4255060145 3.348015857 3.2746326772 3.20576226 3.3668817272 3.2864685043 3.2112816139 3.1415926536 3.0774230472 
3.3005964304 3.2178377658 3.1415926536 3.0719036933 3.00855263 2.95115522 3.225752376 3.1415926536 3.0653475414 
2.9967168029 2.9351694502 2.8800620952 2.8307207459 3.1415926536 3.0574329311 2.9825888767 2.91630358 2.8576792927 
2.8058000847 2.7598010554 2.718901062 4.526799744 4.426884955 4.4046155105 4.3052269283 4.2918546451 4.2807094886 
4.1588146215 4.1588146215 4.1588146215 4.1588146215 3.9875336042 4.0055183285 4.0201070968 4.0321740035 4.042318168 
3.7967995342 3.8356650183 3.8672112905 3.8932795963 3.9151549899 3.9337570603 3.5984456061 3.657329819 3.7058097288 
3.7462412737 3.7803704271 3.809500442 3.8346145692 3.4073543651 3.4813459737 3.5438565869 3.5969754326 3.6424295543 
3.6816134988 3.7156421835 3.7454049075 4.7123889804 4.8004512023 4.6243267584 4.9155579264 4.7123889804 4.5092200343 
5.0674903122 4.8353719722 4.5894059886 4.3572876485 5.2659633393 5.0120975802 4.7123889804 4.4126803806 4.1588146215 
5.5125918794 5.2659633393 4.9155579264 4.5092200343 4.1588146215 3.9121860814 5.7885595667 5.6029703303 5.2659633393 
4.7123889804 4.1588146215 3.8218076305 3.6362183941 6.0560271438 5.9702140275 5.7885595667 5.2659633393 4.1588146215 
3.6362183941 3.4545639333 3.368750817 0.22715816343 0.49462574053 0.3129712797 0.77059342779 0.68021497688 0.49462574053 
1.0172219679 1.0172219679 1.0172219679 1.0172219679 1.2156949949 1.271087727 1.3676273807 1.5707963268 2.1243706857 
1.3676273807 1.447813335 1.5707963268 1.7739652728 2.1243706857 2.6469669131 1.4827341049 1.5707963268 1.6937793186 
1.8705049266 2.1243706857 2.4613776767 2.8286213739 1.5707963268 1.6588585487 1.7739652728 1.9258976586 2.1243706857 
2.3709992258 2.6469669131 2.9144344902 1.7563855631 1.8785697967 1.8563003522 2.0024758186 1.9913306621 1.9779583789 
2.1243706857 2.1243706857 2.1243706857 2.1243706857 2.2408671392 2.2510113037 2.2630782103 2.2776669786 2.295651703 
2.3494282469 2.3680303173 2.3899057108 2.4159740166 2.4475202889 2.486385773 2.448570738 2.4736848652 2.5028148801 
2.5369440334 2.5773755784 2.6258554882 2.6847397011 2.5377803997 2.5675431237 2.6015718084 2.6407557529 2.6862098746 
2.7393287203 2.8018393335 2.8758309421 1.6743954455 1.6743954455 1.7840462375 1.6743954455 1.7840462375 1.8974821136 
1.6743954455 1.7840462375 1.8974821136 2.0119052671 1.6743954455 1.7840462375 1.8974821136 2.0119052671 2.1243706857 
1.6743954455 1.7840462375 1.8974821136 2.0119052671 2.1243706857 2.232221744 1.6743954455 1.7840462375 1.8974821136 
2.0119052671 2.1243706857 2.232221744 2.3334263672 1.6743954455 1.7840462375 1.8974821136 2.0119052671 2.1243706857 
2.232221744 2.3334263672 2.426721652 1.4671972081 1.3575464161 1.4671972081 1.24411054 1.3575464161 1.4671972081 
1.1296873865 1.24411054 1.3575464161 1.4671972081 1.0172219679 1.1296873865 1.24411054 1.3575464161 1.4671972081 
0.90937090954 1.0172219679 1.1296873865 1.24411054 1.3575464161 1.4671972081 0.80816628637 0.90937090954 1.0172219679 
1.1296873865 1.24411054 1.3575464161 1.4671972081 0.71487100155 0.80816628637 0.90937090954 1.0172219679 1.1296873865 
1.24411054 1.3575464161 1.4671972081 0.60381225391 0.57404952988 0.69302191562 0.54002084522 0.66790778838 0.79216440667 
0.50083690068 0.63877777351 0.77356233629 0.90072551443 0.45538277901 0.60464862014 0.75168694275 0.89058134991 1.0172219679 
0.40226393329 0.56421707518 0.72561863695 0.87851444325 1.0172219679 1.139116835 0.33975332011 0.51573716537 0.69407236469 
0.86392567495 1.0172219679 1.1502619915 1.2630228569 0.26576171152 0.45685295248 0.6552068806 0.84594095064 1.0172219679 
1.1636342747 1.2852923014 1.3852070904 0.22715816343 0.3129712797 0.49462574053 0.49462574053 0.68021497688 0.77059342779 
1.0172219679 1.0172219679 1.0172219679 1.0172219679 2.1243706857 1.5707963268 1.3676273807 1.271087727 1.2156949949 
2.6469669131 2.1243706857 1.7739652728 1.5707963268 1.447813335 1.3676273807 2.8286213739 2.4613776767 2.1243706857 
1.8705049266 1.6937793186 1.5707963268 1.4827341049 2.9144344902 2.6469669131 2.3709992258 2.1243706857 1.9258976586 
1.7739652728 1.6588585487 1.5707963268 1.7563855631 1.8563003522 1.8785697967 1.9779583789 1.9913306621 2.0024758186 
2.1243706857 2.1243706857 2.1243706857 2.1243706857 2.295651703 2.2776669786 2.2630782103 2.2510113037 2.2408671392 
2.486385773 2.4475202889 2.4159740166 2.3899057108 2.3680303173 2.3494282469 2.6847397011 2.6258554882 2.5773755784 
2.5369440334 2.5028148801 2.4736848652 2.448570738 2.8758309421 2.8018393335 2.7393287203 2.6862098746 2.6407557529 
2.6015718084 2.5675431237 2.5377803997 5.8604937156 5.901393709 5.9723133995 5.9473927383 6.0216547488 6.0927478736 
5.9992719463 6.0767621038 6.1501452836 6.2190157008 6.0578962336 6.1383094565 6.2134963469 0 0.064169606361 
6.1241815303 6.206940195 6.2831853072 0.069688960264 0.13304002361 0.19043743361 6.1990255847 0 0.07624511221 
0.14487585072 0.20642320337 0.26153055843 0.3108719077 0 0.084159722458 0.15900377685 0.22528907359 0.28391336087 
0.3357925689 0.38179159818 0.42269159155 5.8604937156 5.9723133995 5.901393709 6.0927478736 6.0216547488 5.9473927383 
6.2190157008 6.1501452836 6.0767621038 5.9992719463 0.064169606361 0 6.2134963469 6.1383094565 6.0578962336 
0.19043743361 0.13304002361 0.069688960264 6.2831853072 6.206940195 6.1241815303 0.3108719077 0.26153055843 0.20642320337 
0.14487585072 0.07624511221 6.2831853072 6.1990255847 0.42269159155 0.38179159818 0.3357925689 0.28391336087 0.22528907359 
0.15900377685 0.084159722458 0 5.6793730533 5.7091357773 5.5901633916 5.743164462 5.6152775188 5.4910209005 
5.7823484065 5.6444075337 5.5096229709 5.3824597928 5.8278025282 5.678536687 5.5314983644 5.3926039573 5.2659633393 
5.8809213739 5.718968232 5.5575666702 5.4046708639 5.2659633393 5.1440684722 5.9434319871 5.7674481418 5.5891129425 
5.4192596322 5.2659633393 5.1329233157 5.0201624502 6.0174235957 5.8263323547 5.6279784266 5.4372443565 5.2659633393 
5.1195510325 4.9978930058 4.8979782167 1.3852070904 1.2852923014 1.2630228569 1.1636342747 1.1502619915 1.139116835 
1.0172219679 1.0172219679 1.0172219679 1.0172219679 0.84594095064 0.86392567495 0.87851444325 0.89058134991 0.90072551443 
0.6552068806 0.69407236469 0.72561863695 0.75168694275 0.77356233629 0.79216440667 0.45685295248 0.51573716537 0.56421707518 
0.60464862014 0.63877777351 0.66790778838 0.69302191562 0.26576171152 0.33975332011 0.40226393329 0.45538277901 0.50083690068 
0.54002084522 0.57404952988 0.60381225391 
_paraPhiHalf 1 1002 double
0 3.1415926536 0 3.1415926536 1.5707963268 1.5707963268 1.5707963268 1.5707963268 2.5880182947 
0.5535743589 2.5880182947 0.5535743589 0 0 0 0 3.1415926536 3.1415926536 
3.1415926536 3.1415926536 3.1415926536 0.17788134 0.38438696014 0.60631181711 0.82323535693 1.0172219679 1.1799687454 
1.3118704726 1.4175000338 1.5022335207 0.17788134 0.38438696014 0.60631181711 0.82323535693 1.0172219679 1.1799687454 
1.3118704726 1.4175000338 1.5022335207 0.093902416448 0.17615329733 0.2478725152 0.31035131605 0.36486382811 0.41257334776 
0.45449736604 0.4915044461 0.52432611754 0.093902416448 0.17615329733 0.2478725152 0.31035131605 0.36486382811 0.41257334776 
0.45449736604 0.4915044461 0.52432611754 2.9637113136 2.7572056934 2.5352808365 2.3183572967 2.1243706857 1.9616239082 
1.829722181 1.7240926197 1.6393591329 2.9637113136 2.7572056934 2.5352808365 2.3183572967 2.1243706857 1.9616239082 
1.829722181 1.7240926197 1.6393591329 3.0476902371 2.9654393563 2.8937201384 2.8312413375 2.7767288255 2.7290193058 
2.6870952876 2.6500882075 2.617266536 3.0476902371 2.9654393563 2.8937201384 2.8312413375 2.7767288255 2.7290193058 
2.6870952876 2.6500882075 2.617266536 0 0 0 0 3.1415926536 3.1415926536 
3.1415926536 3.1415926536 3.1415926536 0.17788134 0.38438696014 0.60631181711 0.82323535693 1.0172219679 1.1799687454 
1.3118704726 1.4175000338 1.5022335207 0.17788134 0.38438696014 0.60631181711 0.82323535693 1.0172219679 1.1799687454 
1.3118704726 1.4175000338 1.5022335207 0.093902416448 0.17615329733 0.2478725152 0.31035131605 0.36486382811 0.41257334776 
0.45449736604 0.4915044461 0.52432611754 0.093902416448 0.17615329733 0.2478725152 0.31035131605 0.36486382811 0.41257334776 
0.45449736604 0.4915044461 0.52432611754 2.9637113136 2.7572056934 2.5352808365 2.3183572967 2.1243706857 1.9616239082 
1.829722181 1.7240926197 1.6393591329 2.9637113136 2.7572056934 2.5352808365 2.3183572967 2.1243706857 1.9616239082 
1.829722181 1.7240926197 1.6393591329 3.0476902371 2.9654393563 2.8937201384 2.8312413375 2.7767288255 2.7290193058 
2.6870952876 2.6500882075 2.617266536 3.0476902371 2.9654393563 2.8937201384 2.8312413375 2.7767288255 2.7290193058 
2.6870952876 2.6500882075 2.617266536 1.5707963268 1.5707963268 1.5707963268 1.5707963268 1.5707963268 1.5707963268 
1.5707963268 1.5707963268 1.5707963268 1.6743954455 1.7840462375 1.8974821136 2.0119052671 2.1243706857 2.232221744 
2.3334263672 2.426721652 2.5115728246 1.4671972081 1.3575464161 1.24411054 1.1296873865 1.0172219679 0.90937090954 
0.80816628637 0.71487100155 0.63001982895 1.6743954455 1.7840462375 1.8974821136 2.0119052671 2.1243706857 2.232221744 
2.3334263672 2.426721652 2.5115728246 1.4671972081 1.3575464161 1.24411054 1.1296873865 1.0172219679 0.90937090954 
0.80816628637 0.71487100155 0.63001982895 1.5707963268 1.5707963268 1.5707963268 1.5707963268 1.5707963268 1.5707963268 
1.5707963268 1.5707963268 1.5707963268 1.6743954455 1.7840462375 1.8974821136 2.0119052671 2.1243706857 2.232221744 
2.3334263672 2.426721652 2.5115728246 1.4671972081 1.3575464161 1.24411054 1.1296873865 1.0172219679 0.90937090954 
0.80816628637 0.71487100155 0.63001982895 1.6743954455 1.7840462375 1.8974821136 2.0119052671 2.1243706857 2.232221744 
2.3334263672 2.426721652 2.5115728246 1.4671972081 1.3575464161 1.24411054 1.1296873865 1.0172219679 0.90937090954 
0.80816628637 0.71487100155 0.63001982895 2.6824132222 2.7864913217 2.8992382033 3.0186096618 3.1415926536 3.0186096618 
2.8992382033 2.7864913217 2.6824132222 0.45917943135 0.35510133185 0.2423544503 0.12298299178 0 0.12298299178 
0.2423544503 0.35510133185 0.45917943135 0.22715816343 0.49462574053 0.3129712797 0.77059342779 0.68021497688 0.49462574053 
1.0172219679 1.0172219679 1.0172219679 1.0172219679 1.2156949949 1.271087727 1.3676273807 1.5707963268 2.1243706857 
1.3676273807 1.447813335 1.5707963268 1.7739652728 2.1243706857 2.6469669131 1.4827341049 1.5707963268 1.6937793186 
1.8705049266 2.1243706857 2.4613776767 2.8286213739 1.5707963268 1.6588585487 1.7739652728 1.9258976586 2.1243706857 
2.3709992258 2.6469669131 2.9144344902 0.26576171152 0.33975332011 0.45685295248 0.40226393329 0.51573716537 0.6552068806 
0.45538277901 0.56421707518 0.69407236469 0.84594095064 0.50083690068 0.60464862014 0.72561863695 0.86392567495 1.0172219679 
0.54002084522 0.63877777351 0.75168694275 0.87851444325 1.0172219679 1.1636342747 0.57404952988 0.66790778838 0.77356233629 
0.89058134991 1.0172219679 1.1502619915 1.2852923014 0.60381225391 0.69302191562 0.79216440667 0.90072551443 1.0172219679 
1.139116835 1.2630228569 1.3852070904 0.71487100155 0.80816628637 0.80816628637 0.90937090954 0.90937090954 0.90937090954 
1.0172219679 1.0172219679 1.0172219679 1.0172219679 1.1296873865 1.1296873865 1.1296873865 1.1296873865 1.1296873865 
1.24411054 1.24411054 1.24411054 1.24411054 1.24411054 1.24411054 1.3575464161 1.3575464161 1.3575464161 
1.3575464161 1.3575464161 1.3575464161 1.3575464161 1.4671972081 1.4671972081 1.4671972081 1.4671972081 1.4671972081 
1.4671972081 1.4671972081 1.4671972081 1.6743954455 1.6743954455 1.7840462375 1.6743954455 1.7840462375 1.8974821136 
1.6743954455 1.7840462375 1.8974821136 2.0119052671 1.6743954455 1.7840462375 1.8974821136 2.0119052671 2.1243706857 
1.6743954455 1.7840462375 1.8974821136 2.0119052671 2.1243706857 2.232221744 1.6743954455 1.7840462375 1.8974821136 
2.0119052671 2.1243706857 2.232221744 2.3334263672 1.6743954455 1.7840462375 1.8974821136 2.0119052671 2.1243706857 
2.232221744 2.3334263672 2.426721652 1.7563855631 1.8785697967 1.8563003522 2.0024758186 1.9913306621 1.9779583789 
2.1243706857 2.1243706857 2.1243706857 2.1243706857 2.2408671392 2.2510113037 2.2630782103 2.2776669786 2.295651703 
2.3494282469 2.3680303173 2.3899057108 2.4159740166 2.4475202889 2.486385773 2.448570738 2.4736848652 2.5028148801 
2.5369440334 2.5773755784 2.6258554882 2.6847397011 2.5377803997 2.5675431237 2.6015718084 2.6407557529 2.6862098746 
2.7393287203 2.8018393335 2.8758309421 2.718901062 2.8307207459 2.7598010554 2.95115522 2.8800620952 2.8058000847 
3.0774230472 3.00855263 2.9351694502 2.8576792927 3.0774230472 3.1415926536 3.0719036933 2.9967168029 2.91630358 
2.95115522 3.00855263 3.0719036933 3.1415926536 3.0653475414 2.9825888767 2.8307207459 2.8800620952 2.9351694502 
2.9967168029 3.0653475414 3.1415926536 3.0574329311 2.718901062 2.7598010554 2.8058000847 2.8576792927 2.91630358 
2.9825888767 3.0574329311 3.1415926536 2.718901062 2.7598010554 2.8307207459 2.8058000847 2.8800620952 2.95115522 
2.8576792927 2.9351694502 3.00855263 3.0774230472 2.91630358 2.9967168029 3.0719036933 3.1415926536 3.0774230472 
2.9825888767 3.0653475414 3.1415926536 3.0719036933 3.00855263 2.95115522 3.0574329311 3.1415926536 3.0653475414 