# vtk DataFile Version 5.1
vtk output
ASCII
DATASET POLYDATA
POINTS 100 float
5.88355 29.7585 14.7496 5.90092 29.773 14.7421 5.95289 29.818 14.7263 
6.03773 29.8914 14.7029 6.15275 29.9903 14.6725 6.29454 30.1105 14.6359 
6.45931 30.2478 14.5943 6.64322 30.3974 14.5486 6.84266 30.555 14.4998 
7.05451 30.7168 14.4489 7.27633 30.8799 14.3965 7.50643 31.0421 14.3432 
7.74381 31.2025 14.2892 7.9881 31.361 14.2345 8.23929 31.5183 14.1786 
8.49757 31.6756 14.121 8.76304 31.8345 14.0611 9.03554 31.9964 13.9979 
9.31447 32.1628 13.9305 9.59869 32.3346 13.8583 9.88661 32.5121 13.7808 
10.1762 32.6953 13.6978 10.4652 32.8835 13.6094 10.7514 33.0758 13.5162 
11.0327 33.271 13.4193 11.3075 33.4683 13.3199 11.5751 33.6668 13.2198 
11.835 33.8663 13.1208 12.0881 34.0669 13.0249 12.3356 34.2694 12.9337 
12.5796 34.4753 12.8489 12.8224 34.6861 12.7716 13.0665 34.9039 12.7027 
13.3145 35.1303 12.6425 13.5685 35.3671 12.5905 13.8301 35.6152 12.5461 
14.1005 35.8748 12.508 14.38 36.1453 12.4747 14.6684 36.4254 12.4444 
14.9648 36.7126 12.4152 15.2682 37.0041 12.3855 15.577 37.2964 12.3533 
15.8897 37.5859 12.3174 16.205 37.8692 12.2765 16.5218 38.1433 12.2298 
16.8393 38.4059 12.1767 17.1568 38.6554 12.117 17.4742 38.8916 12.0506 
17.7914 39.115 11.9779 18.1084 39.327 11.8993 18.4255 39.5301 11.8152 
18.7424 39.7271 11.7265 19.0589 39.921 11.6341 19.3747 40.115 11.5389 
19.6891 40.312 11.4421 20.0012 40.5142 11.3449 20.3102 40.7233 11.2489 
20.6151 40.94 11.1556 20.9153 41.1646 11.0664 21.2102 41.3961 10.983 
21.4994 41.6334 10.9068 21.7831 41.8746 10.8389 22.0614 42.1177 10.7804 
22.3349 42.3606 10.7319 22.6042 42.6014 10.6935 22.8702 42.8385 10.6648 
23.1335 43.0707 10.6454 23.3947 43.2972 10.634 23.6542 43.5179 10.6295 
23.9122 43.7328 10.6304 24.1686 43.9427 10.6353 24.4232 44.1482 10.6429 
24.6757 44.3503 10.6521 24.9256 44.55 10.6621 25.1725 44.7481 10.6724 
25.4161 44.9454 10.6829 25.6563 45.1424 10.6935 25.8929 45.3393 10.7045 
26.126 45.5363 10.716 26.356 45.7332 10.7279 26.583 45.9299 10.7402 
26.8072 46.126 10.7521 27.0286 46.3212 10.7628 27.2469 46.5149 10.7709 
27.4618 46.7066 10.7749 27.6723 46.8959 10.7731 27.8775 47.0819 10.764 
28.0758 47.264 10.7462 28.2659 47.4411 10.719 28.4458 47.6121 10.6822 
28.6141 47.7754 10.6365 28.7689 47.9295 10.5833 28.9088 48.0724 10.5249 
29.0325 48.2022 10.4643 29.1388 48.3168 10.4049 29.227 48.4142 10.3503 
29.2962 48.4925 10.3041 29.3462 48.5502 10.2694 29.3765 48.5859 10.2486 
29.3869 48.5988 10.2434 
LINES 2 100
OFFSETS vtktypeint64
0 100 
CONNECTIVITY vtktypeint64
0 1 2 3 4 5 6 7 8 
9 10 11 12 13 14 15 16 17 
18 19 20 21 22 23 24 25 26 
27 28 29 30 31 32 33 34 35 
36 37 38 39 40 41 42 43 44 
45 46 47 48 49 50 51 52 53 
54 55 56 57 58 59 60 61 62 
63 64 65 66 67 68 69 70 71 
72 73 74 75 76 77 78 79 80 
81 82 83 84 85 86 87 88 89 
90 91 92 93 94 95 96 97 98 
99 
POINT_DATA 100
FIELD FieldData 3
_theta 1 100 double
0 0.031733259127 0.063466518254 0.095199777382 0.12693303651 0.15866629564 0.19039955476 0.22213281389 0.25386607302 
0.28559933214 0.31733259127 0.3490658504 0.38079910953 0.41253236865 0.44426562778 0.47599888691 0.50773214603 0.53946540516 
0.57119866429 0.60293192342 0.63466518254 0.66639844167 0.6981317008 0.72986495992 0.76159821905 0.79333147818 0.82506473731 
0.85679799643 0.88853125556 0.92026451469 0.95199777382 0.98373103294 1.0154642921 1.0471975512 1.0789308103 1.1106640695 
1.1423973286 1.1741305877 1.2058638468 1.237597106 1.2693303651 1.3010636242 1.3327968833 1.3645301425 1.3962634016 
1.4279966607 1.4597299198 1.491463179 1.5231964381 1.5549296972 1.5866629564 1.6183962155 1.6501294746 1.6818627337 
1.7135959929 1.745329252 1.7770625111 1.8087957702 1.8405290294 1.8722622885 1.9039955476 1.9357288068 1.9674620659 
1.999195325 2.0309285841 2.0626618433 2.0943951024 2.1261283615 2.1578616206 2.1895948798 2.2213281389 2.253061398 
2.2847946572 2.3165279163 2.3482611754 2.3799944345 2.4117276937 2.4434609528 2.4751942119 2.506927471 2.5386607302 
2.5703939893 2.6021272484 2.6338605076 2.6655937667 2.6973270258 2.7290602849 2.7607935441 2.7925268032 2.8242600623 
2.8559933214 2.8877265806 2.9194598397 2.9511930988 2.982926358 3.0146596171 3.0463928762 3.0781261353 3.1098593945 
3.1415926536 
_radius 1 100 double
3.0522855847e-14 0.31599828176 0.62834108586 0.93348473789 1.228452569 1.5110064479 1.7797097782 2.0338940345 2.2735642385 
2.4992882692 2.7121055191 2.9134654715 3.1051782913 3.2893429365 3.4682239508 3.6440740261 3.818930586 3.9944317219 
4.1716900517 4.3512389655 4.533040275 4.7165281114 4.900663831 5.0839863171 5.2646553969 5.4404980822 5.6090738306 
5.7677732827 5.9139555944 6.0451173958 6.1590777257 6.2541610801 6.3293632114 6.3844873106 6.4202387258 6.4382642856 
6.441119962 6.4321516392 6.4152815974 6.3947089253 6.3745519364 6.3584772796 6.3493665687 6.3490648869 6.3582402841 
6.3763654874 6.4018169443 6.4320740186 6.4639932336 6.4941286759 6.5190691089 6.5357635711 6.5418087603 6.5356721655 
6.5168252033 6.4857634505 6.4439004167 6.3933388342 6.336546504 6.2759857586 6.2137587574 6.1513293882 6.0893658221 
6.0277206752 5.9655370449 5.9014473275 5.8338226962 5.7610333684 5.6816877708 5.5948266687 5.500053672 5.3975873508 
5.2882254269 5.1732206512 5.0540812554 4.9323236962 4.8092170762 4.6855622187 4.5615412885 4.4366576779 4.3097664516 
4.1791802327 4.0428285283 3.8984492708 3.7437949099 3.5768371863 3.3959538654 3.2000794515 2.9888028379 2.7623990086 
2.521788969 2.2684312044 2.0041581305 1.7309808349 1.4508928625 1.1657061509 0.87694673834 0.58582365351 0.29326506291 
8.8780377075e-14 
_area 1 100 double
0 0.3027092886 1.1941697273 2.6282239902 4.5394449871 6.856161254 9.511631451 12.449607513 15.623524271 
18.992172332 22.516432101 26.160243148 29.895757918 33.709895826 37.608643 41.616473995 45.770433792 50.110609751 
54.669942791 59.466186879 64.497741958 69.743730206 75.167308287 80.719811975 86.342472593 91.963346792 97.490367192 
102.80540652 107.76547371 112.2139694 115.99995905 119.000323 121.1392652 122.40097121 122.8333182 122.54283584 
121.68291981 120.43813216 119.00727202 117.58701635 116.35683709 115.46552046 115.0201607 115.07859007 115.64494212 
116.66722446 118.03771689 119.60006703 121.16640766 122.54304651 123.55876725 124.08793679 124.06074225 123.45705789 
122.29415137 120.62680247 118.52515287 116.0427389 113.31051408 110.4806915 107.61487013 104.79344892 102.08670103 
99.529481662 97.114448496 94.806165971 92.550318113 90.272042828 87.890172039 85.343085605 82.60223974 79.672107335 
76.582856216 73.379807242 70.11302772 66.829806427 63.57106116 60.370689379 57.255621776 54.244457719 51.343827739 
48.543337513 45.811348718 43.094409697 40.322606005 37.421416276 34.328173108 31.008972295 27.471120568 23.767425999 
19.991136694 16.262966978 12.713563126 9.4656303855 6.6197534344 4.2467688521 2.3876053293 1.0593181299 0.26440022282 
3.8815114321e-13 
