# vtk DataFile Version 5.1
vtk output
ASCII
DATASET POLYDATA
POINTS 1002 float
20.3483 43.3358 15.6962 11.0154 39.3475 16.6617 21.2603 40.066 9.17353 
13.5052 35.1543 8.28579 13.1311 44.9393 12.371 14.7133 43.6573 6.7955 
18.2206 36.3416 17.0153 20.4996 33.6196 12.3171 8.6852 39.3267 10.8179 
21.8013 46.4569 11.4266 10.117 33.0165 15.0565 25.3106 41.0761 14.8843 
19.6038 42.8479 15.4826 18.6447 42.395 15.4158 17.4993 42.0071 15.5699 
16.3191 41.5895 15.7773 15.2079 41.0843 15.848 14.1992 40.5808 15.8546 
13.3433 40.1715 15.9751 12.6046 39.8514 16.2199 11.8433 39.5863 16.4779 
19.8527 43.5507 15.4224 19.2471 43.7097 15.0668 18.5528 43.8418 14.6767 
17.8192 43.9781 14.3124 17.0859 44.0957 13.9368 16.3373 44.1954 13.4969 
15.5303 44.3412 13.0778 14.6751 44.5522 12.7889 13.8492 44.7703 12.5927 
20.3205 42.7844 15.8112 20.1416 42.2207 16.011 19.8095 41.6532 16.2875 
19.4216 41.0213 16.5242 19.1139 40.2856 16.6825 18.9321 39.4756 16.8645 
18.8067 38.6282 17.0724 18.6538 37.7845 17.1667 18.4499 37.0103 17.1106 
20.726 43.9708 15.762 21.1033 44.5558 15.7137 21.5031 44.9694 15.4541 
21.8798 45.2592 15.0464 22.1557 45.6228 14.661 22.2861 46.0868 14.3086 
22.264 46.4333 13.8071 22.1251 46.5407 13.0699 21.9487 46.5094 12.2197 
21.0782 43.4485 15.9574 21.9713 43.4694 16.1083 23.0398 43.4344 16.2302 
24.0684 43.4266 16.6182 24.8142 43.3617 17.2862 25.3087 43.0106 17.6425 
25.6717 42.3816 17.1998 25.8258 41.7683 16.2536 25.6747 41.3565 15.405 
11.1139 39.7087 16.1742 11.2043 40.0527 15.6135 11.3053 40.6078 15.148 
11.4696 41.4397 14.8122 11.6833 42.3291 14.4498 11.8657 43.0822 13.9902 
12.0293 43.7232 13.5523 12.2873 44.2781 13.187 12.6802 44.686 12.8075 
11.4413 38.9718 16.8978 11.8411 38.4184 16.9363 12.2198 37.8466 16.8969 
12.6667 37.4311 16.9869 13.2396 37.1277 17.1838 13.9352 36.7956 17.213 
14.8033 36.4858 16.9914 15.8957 36.3348 16.7811 17.1065 36.3255 16.8063 
10.2089 39.3461 16.4545 9.48157 39.2977 16.0905 9.02345 39.2581 15.6247 
8.7542 39.2923 15.0546 8.39323 39.3828 14.3287 7.9527 39.4452 13.4902 
7.77837 39.4435 12.6706 7.99575 39.4118 11.9512 8.37157 39.3758 11.3394 
10.4289 38.8399 16.9617 9.94158 38.1157 17.1512 9.70127 37.2441 17.2071 
9.63231 36.3269 17.1726 9.49459 35.35 17.1126 9.23103 34.3091 17.0206 
9.06002 33.429 16.7912 9.17651 32.9714 16.3382 9.56969 32.913 15.7132 
20.6437 39.5849 9.02691 20.0502 39.0706 8.80567 19.5667 38.4257 8.41729 
19.0497 37.6449 7.97948 18.2192 36.9391 7.82309 17.1025 36.4839 8.04774 
16.0328 36.1651 8.3259 15.1488 35.8072 8.37836 14.3258 35.4321 8.29334 
20.8448 40.4436 8.90217 20.4514 40.8502 8.56312 20.0403 41.2769 8.19203 
19.357 41.7304 7.96686 18.2631 42.1623 7.98228 17.1028 42.5084 8.0327 
16.3264 42.7999 7.84551 15.8839 43.107 7.43273 15.4023 43.4162 7.02437 
21.2686 39.4284 9.37855 21.2034 38.8298 9.65794 21.0844 38.2314 9.98682 
21.0039 37.4935 10.297 21.0206 36.538 10.5352 21.0697 35.544 10.7587 
21.0543 34.7808 11.068 20.9458 34.2907 11.4644 20.7556 33.9339 11.8868 
21.5854 40.8473 9.20374 21.8399 41.7589 9.36155 22.0096 42.6903 9.62731 
22.1702 43.5624 9.8617 22.4011 44.3977 9.96269 22.6298 45.1765 10.0219 
22.6707 45.7598 10.1992 22.4572 46.085 10.5317 22.1157 46.2704 10.9609 
21.8671 40.164 9.46258 22.4014 40.3095 9.89863 22.8444 40.4876 10.4962 
23.2944 40.6582 11.1399 23.7818 40.8149 11.7772 24.2087 40.9718 12.4911 
24.5431 41.0981 13.2468 24.8473 41.1478 13.8799 25.1242 41.1263 14.3788 
13.4786 35.6573 7.97558 13.4716 36.3911 7.78817 13.5349 37.3246 7.68993 
13.7034 38.2083 7.46632 13.9375 38.9273 7.09501 14.1546 39.726 6.87655 
14.3212 40.7967 6.93064 14.4619 41.9577 7.00469 14.5952 42.937 6.92338 
14.0649 34.8677 8.5933 14.722 34.5705 8.86189 15.5174 34.1828 9.00062 
16.4583 33.6831 9.06599 17.4396 33.2148 9.25218 18.3041 32.9999 9.70292 
18.9984 33.0757 10.3718 19.5783 33.2683 11.0955 20.0841 33.445 11.7523 
12.6842 35.2844 8.23257 11.9516 35.5626 8.36106 11.4147 35.9673 8.63006 
10.9876 36.4501 8.95097 10.5073 36.935 9.28076 9.99715 37.3697 9.61798 
9.58147 37.8056 9.95565 9.25497 38.3142 10.2772 8.95339 38.8539 10.5652 
13.0056 34.764 8.5964 12.4947 34.3328 8.98568 12.0318 33.8267 9.39024 
11.6417 33.3511 9.861 11.297 33.0683 10.5469 10.9577 32.9796 11.4648 
10.6275 32.9645 12.4475 10.3573 32.9733 13.3703 10.1885 33.0037 14.2354 
12.9958 45.132 11.8588 12.8694 45.3014 11.1944 12.8095 45.4554 10.4231 
12.8331 45.5578 9.65613 12.8989 45.5168 8.95786 13.0135 45.2834 8.27441 
13.2709 44.926 7.58436 13.7125 44.5356 7.03036 14.2417 44.1223 6.76949 
12.247 44.9037 12.3125 11.4893 44.6989 12.0782 10.853 44.2729 11.7524 
10.3232 43.6673 11.4867 9.92943 42.9478 11.2859 9.60921 42.1554 11.0491 
9.23262 41.3548 10.8099 8.85178 40.6192 10.6966 8.65163 39.9556 10.7274 
14.0574 45.0512 12.0522 15.0274 45.2556 11.792 15.875 45.6359 11.7476 
16.6014 46.129 11.8799 17.4109 46.621 11.9619 18.4439 47.0317 11.8646 
19.5545 47.2329 11.6809 20.497 47.1199 11.5395 21.2104 46.7908 11.4655 
13.785 43.3926 6.81856 12.7598 42.9465 7.01907 11.8542 42.3855 7.28135 
11.1663 41.8795 7.45729 10.5516 41.4963 7.62102 9.9037 41.112 8.02694 
9.35853 40.6295 8.73495 9.03692 40.1188 9.53366 8.85639 39.6801 10.2349 
15.315 44.1187 6.852 15.9814 44.5707 7.07153 16.7344 45.0835 7.44364 
17.5434 45.6302 7.95777 18.3409 46.0969 8.59051 19.1156 46.4123 9.20573 
19.8974 46.5827 9.68924 20.6465 46.628 10.1457 21.2837 46.5713 10.7308 
18.6983 35.9281 17.1051 19.117 35.4325 17.081 19.4356 34.8853 16.834 
19.6913 34.4093 16.3974 19.9288 34.1088 15.8985 20.1386 33.9419 15.3403 
20.3052 33.799 14.6229 20.4331 33.6635 13.7824 20.5067 33.5953 12.9818 
17.2781 35.6943 16.8595 16.2766 35.049 16.8903 15.4185 34.4445 17.0939 
14.7105 33.8363 17.3767 13.9274 33.2477 17.6061 12.972 32.8732 17.5781 
12.0386 32.8335 17.1576 11.2894 32.9739 16.4664 10.6752 33.0601 15.7329 
19.2912 36.7064 17.3412 20.1377 37.0066 17.6161 20.8261 37.3188 17.6003 
21.552 37.8227 17.2088 22.3595 38.5598 16.6887 23.1278 39.3324 16.3521 
23.8161 39.9434 16.1672 24.4543 40.3812 15.8802 24.9849 40.7351 15.4088 
19.9309 33.2064 12.456 19.1822 32.9345 12.6717 18.1871 32.9269 12.9578 
16.9581 33.0175 13.2384 15.6269 32.959 13.4802 14.3644 32.8485 13.7561 
13.2303 32.9246 14.1105 12.1575 33.1042 14.4814 11.1 33.1451 14.8004 
21.0366 34.0246 12.5638 21.56 34.4813 12.7981 22.0348 35.051 13.0504 
22.4524 35.8415 13.3484 22.8319 36.8566 13.6842 23.1807 37.9567 14.0446 
23.5527 38.9896 14.3993 24.0587 39.8649 14.6687 24.6982 40.5483 14.809 
8.67395 38.6948 11.231 8.70839 37.9284 11.7105 8.73684 37.0342 12.2397 
8.66966 36.0778 12.7022 8.43624 35.0691 13.0347 8.13435 34.0336 13.3675 
8.06152 33.2017 13.8239 8.44584 32.8237 14.3278 9.21516 32.8496 14.749 
22.5131 46.2201 11.8585 23.4579 46.0439 12.2396 24.6332 45.8856 12.526 
25.6643 45.5741 12.851 26.0933 44.9561 13.3385 25.9871 44.0879 13.8454 
25.8214 43.1691 14.1749 25.7816 42.3401 14.3824 25.6635 41.6431 14.6161 
19.0178 43.0425 15.2301 18.3156 43.2127 14.9415 17.9618 42.6038 15.2379 
17.5771 43.3704 14.6093 17.2306 42.7957 14.9859 16.7866 42.2143 15.3925 
16.8407 43.5186 14.2434 16.5159 42.9777 14.6367 16.0865 42.421 15.0814 
15.6141 41.7607 15.4811 16.0395 43.6787 13.8617 15.7255 43.1864 14.2738 
15.3398 42.6758 14.7359 14.884 42.0081 15.1366 14.4826 41.2366 15.4794 
15.1229 43.9089 13.5187 14.7561 43.4743 13.9857 14.4149 43.0144 14.49 
14.0332 42.3701 14.9171 13.6877 41.5243 15.2238 13.4781 40.737 15.5593 
14.1798 44.2064 13.2643 13.7369 43.814 13.7575 13.4067 43.3732 14.29 
13.1137 42.7606 14.7765 12.8475 41.8871 15.0977 12.7053 40.9768 15.3689 
12.6683 40.312 15.765 13.3468 44.4863 13.0577 12.8937 44.0987 13.5082 
12.582 43.6198 13.9854 12.3593 43.0153 14.489 12.145 42.1828 14.886 
11.9905 41.2217 15.159 11.9447 40.4486 15.5034 11.925 39.9713 15.9947 
20.1756 44.2004 15.4214 20.4786 44.7642 15.2621 19.5467 44.3357 14.9354 
20.7893 45.16 14.883 19.8132 44.8897 14.6601 18.8268 44.4577 14.4536 
21.0961 45.5354 14.4388 20.0638 45.364 14.2513 19.043 45.0448 14.1393 
18.043 44.5949 14.0533 21.3583 46.0631 14.0981 20.3111 45.9125 13.8733 
19.2035 45.6108 13.7565 18.1849 45.1901 13.7028 17.2779 44.6761 13.5997 
21.5124 46.5958 13.7379 20.5367 46.5443 13.5624 19.3468 46.2208 13.4076 
18.2404 45.7491 13.2953 17.3806 45.2191 13.1581 16.5502 44.7041 13.0412 
21.5066 46.8709 13.1301 20.6619 47.0113 13.1013 19.489 46.7857 13.0368 
18.2792 46.2947 12.929 17.376 45.7279 12.7361 16.6578 45.1851 12.5521 
15.7739 44.7722 12.5606 21.374 46.8831 12.3003 20.6307 47.1688 12.3715 
19.5714 47.1308 12.4586 18.3583 46.7551 12.5068 17.3575 46.2216 12.4029 
16.6355 45.6671 12.1859 15.887 45.1948 12.0925 14.9138 44.9053 12.2661 
20.5431 46.9133 10.7599 19.7384 46.9509 10.1576 19.6355 47.1653 10.84 
18.8974 46.8423 9.58126 18.7082 47.0767 10.154 18.5806 47.1408 10.998 
18.0973 46.5424 8.92033 17.8393 46.7947 9.40336 17.6591 46.8992 10.2213 
17.5235 46.8533 11.207 17.2934 46.0777 8.26357 16.9922 46.3371 8.68368 
16.7789 46.4934 9.40235 16.6567 46.5632 10.4207 16.5902 46.4451 11.3394 
16.4458 45.5483 7.73278 16.0777 45.8476 8.17342 15.8117 46.0489 8.78801 
15.698 46.2035 9.67063 15.6774 46.2096 10.634 15.7397 45.9888 11.3379 
15.6202 45.0498 7.28901 15.1576 45.4243 7.77935 14.7967 45.7072 8.40964 
14.6423 45.9159 9.14315 14.6289 45.9836 9.98163 14.6998 45.8451 10.769 
14.8515 45.5633 11.358 14.8855 44.5945 6.9338 14.3589 45.0147 7.35833 
13.9207 45.3854 8.01773 13.698 45.6773 8.72812 13.6411 45.8058 9.44496 
13.659 45.73 10.1985 13.7483 45.5216 10.9291 13.9027 45.282 11.5517 
12.0986 45.0806 11.6835 12.0155 45.1831 10.8758 11.317 44.849 11.3674 
12.0597 45.2106 10.0013 11.2741 44.8426 10.4964 10.6667 44.3656 11.0138 
12.2096 45.1441 9.20227 11.4288 44.684 9.60787 10.6689 44.2387 10.1442 
10.191 43.6772 10.7034 12.3742 44.9337 8.49092 11.7155 44.4166 8.82616 
10.9154 43.9459 9.29408 10.2326 43.5022 9.82083 9.87682 42.8882 10.4014 
12.5404 44.5937 7.80837 11.9686 44.0726 8.1503 11.291 43.5787 8.57318 
10.4823 43.2093 9.0105 9.87549 42.7448 9.50418 9.55517 42.0616 10.1258 
[...]
POINT_DATA 1002
FIELD FieldData 4
_paraPhi 1 1002 double
6.2831853072 3.1415926536 6.2831853072 3.1415926536 4.7123889804 4.7123889804 1.5707963268 1.5707963268 3.6951670125 
5.7296109483 2.5880182947 0.5535743589 6.2831853072 6.2831853072 6.2831853072 6.2831853072 3.1415926536 3.1415926536 
3.1415926536 3.1415926536 3.1415926536 6.1053039672 5.898798347 5.6768734901 5.4599499503 5.2659633393 5.1032165617 
4.9713148346 4.8656852733 4.7809517865 0.17788134 0.38438696014 0.60631181711 0.82323535693 1.0172219679 1.1799687454 
1.3118704726 1.4175000338 1.5022335207 6.1892828907 6.1070320098 6.035312792 5.9728339911 5.9183214791 5.8706119594 
5.8286879411 5.7916808611 5.7588591896 0.093902416448 0.17615329733 0.2478725152 0.31035131605 0.36486382811 0.41257334776 
0.45449736604 0.4915044461 0.52432611754 3.3194739936 3.5259796137 3.7479044707 3.9648280105 4.1588146215 4.321561399 
4.4534631262 4.5590926874 4.6438261743 2.9637113136 2.7572056934 2.5352808365 2.3183572967 2.1243706857 1.9616239082 
1.829722181 1.7240926197 1.6393591329 3.23549507 3.3177459509 3.3894651688 3.4519439696 3.5064564817 3.5541660013 
3.5960900196 3.6330970997 3.6659187711 3.0476902371 2.9654393563 2.8937201384 2.8312413375 2.7767288255 2.7290193058 
2.6870952876 2.6500882075 2.617266536 6.2831853072 6.2831853072 6.2831853072 6.2831853072 3.1415926536 3.1415926536 
3.1415926536 3.1415926536 3.1415926536 6.1053039672 5.898798347 5.6768734901 5.4599499503 5.2659633393 5.1032165617 
4.9713148346 4.8656852733 4.7809517865 0.17788134 0.38438696014 0.60631181711 0.82323535693 1.0172219679 1.1799687454 
1.3118704726 1.4175000338 1.5022335207 6.1892828907 6.1070320098 6.035312792 5.9728339911 5.9183214791 5.8706119594 
5.8286879411 5.7916808611 5.7588591896 0.093902416448 0.17615329733 0.2478725152 0.31035131605 0.36486382811 0.41257334776 
0.45449736604 0.4915044461 0.52432611754 3.3194739936 3.5259796137 3.7479044707 3.9648280105 4.1588146215 4.321561399 
4.4534631262 4.5590926874 4.6438261743 2.9637113136 2.7572056934 2.5352808365 2.3183572967 2.1243706857 1.9616239082 
1.829722181 1.7240926197 1.6393591329 3.23549507 3.3177459509 3.3894651688 3.4519439696 3.5064564817 3.5541660013 
3.5960900196 3.6330970997 3.6659187711 3.0476902371 2.9654393563 2.8937201384 2.8312413375 2.7767288255 2.7290193058 
2.6870952876 2.6500882075 2.617266536 4.7123889804 4.7123889804 4.7123889804 4.7123889804 4.7123889804 4.7123889804 
4.7123889804 4.7123889804 4.7123889804 4.6087898617 4.4991390697 4.3857031936 4.2712800401 4.1588146215 4.0509635631 
3.94975894 3.8564636551 3.7716124825 4.8159880991 4.9256388911 5.0390747672 5.1534979207 5.2659633393 5.3738143976 
5.4750190208 5.5683143056 5.6531654782 4.6087898617 4.4991390697 4.3857031936 4.2712800401 4.1588146215 4.0509635631 
3.94975894 3.8564636551 3.7716124825 4.8159880991 4.9256388911 5.0390747672 5.1534979207 5.2659633393 5.3738143976 
5.4750190208 5.5683143056 5.6531654782 1.5707963268 1.5707963268 1.5707963268 1.5707963268 1.5707963268 1.5707963268 
1.5707963268 1.5707963268 1.5707963268 1.6743954455 1.7840462375 1.8974821136 2.0119052671 2.1243706857 2.232221744 
2.3334263672 2.426721652 2.5115728246 1.4671972081 1.3575464161 1.24411054 1.1296873865 1.0172219679 0.90937090954 
0.80816628637 0.71487100155 0.63001982895 1.6743954455 1.7840462375 1.8974821136 2.0119052671 2.1243706857 2.232221744 
2.3334263672 2.426721652 2.5115728246 1.4671972081 1.3575464161 1.24411054 1.1296873865 1.0172219679 0.90937090954 
0.80816628637 0.71487100155 0.63001982895 3.6007720849 3.4966939854 3.3839471039 3.2645756454 3.1415926536 3.0186096618 
2.8992382033 2.7864913217 2.6824132222 5.8240058758 5.9280839753 6.0408308569 6.1602023154 6.2831853072 0.12298299178 
0.2423544503 0.35510133185 0.45917943135 6.0560271438 5.7885595667 5.9702140275 5.5125918794 5.6029703303 5.7885595667 
5.2659633393 5.2659633393 5.2659633393 5.2659633393 5.0674903122 5.0120975802 4.9155579264 4.7123889804 4.1588146215 
4.9155579264 4.8353719722 4.7123889804 4.5092200343 4.1588146215 3.6362183941 4.8004512023 4.7123889804 4.5894059886 
4.4126803806 4.1588146215 3.8218076305 3.4545639333 4.7123889804 4.6243267584 4.5092200343 4.3572876485 4.1588146215 
3.9121860814 3.6362183941 3.368750817 6.0174235957 5.9434319871 5.8263323547 5.8809213739 5.7674481418 5.6279784266 
5.8278025282 5.718968232 5.5891129425 5.4372443565 5.7823484065 5.678536687 5.5575666702 5.4192596322 5.2659633393 
5.743164462 5.6444075337 5.5314983644 5.4046708639 5.2659633393 5.1195510325 5.7091357773 5.6152775188 5.5096229709 
5.3926039573 5.2659633393 5.1329233157 4.9978930058 5.6793730533 5.5901633916 5.4910209005 5.3824597928 5.2659633393 
5.1440684722 5.0201624502 4.8979782167 5.5683143056 5.4750190208 5.4750190208 5.3738143976 5.3738143976 5.3738143976 
5.2659633393 5.2659633393 5.2659633393 5.2659633393 5.1534979207 5.1534979207 5.1534979207 5.1534979207 5.1534979207 
5.0390747672 5.0390747672 5.0390747672 5.0390747672 5.0390747672 5.0390747672 4.9256388911 4.9256388911 4.9256388911 
4.9256388911 4.9256388911 4.9256388911 4.9256388911 4.8159880991 4.8159880991 4.8159880991 4.8159880991 4.8159880991 
4.8159880991 4.8159880991 4.8159880991 4.6087898617 4.6087898617 4.4991390697 4.6087898617 4.4991390697 4.3857031936 
4.6087898617 4.4991390697 4.3857031936 4.2712800401 4.6087898617 4.4991390697 4.3857031936 4.2712800401 4.1588146215 
4.6087898617 4.4991390697 4.3857031936 4.2712800401 4.1588146215 4.0509635631 4.6087898617 4.4991390697 4.3857031936 
4.2712800401 4.1588146215 4.0509635631 3.94975894 4.6087898617 4.4991390697 4.3857031936 4.2712800401 4.1588146215 
4.0509635631 3.94975894 3.8564636551 4.526799744 4.4046155105 4.426884955 4.2807094886 4.2918546451 4.3052269283 
4.1588146215 4.1588146215 4.1588146215 4.1588146215 4.042318168 4.0321740035 4.0201070968 4.0055183285 3.9875336042 
3.9337570603 3.9151549899 3.8932795963 3.8672112905 3.8356650183 3.7967995342 3.8346145692 3.809500442 3.7803704271 
3.7462412737 3.7058097288 3.657329819 3.5984456061 3.7454049075 3.7156421835 3.6816134988 3.6424295543 3.5969754326 
3.5438565869 3.4813459737 3.4073543651 3.5642842451 3.4524645613 3.5233842518 3.3320300872 3.403123212 3.4773852225 
3.20576226 3.2746326772 3.348015857 3.4255060145 3.0774230472 3.1415926536 3.2112816139 3.2864685043 3.3668817272 
2.95115522 3.00855263 3.0719036933 3.1415926536 3.2178377658 3.3005964304 2.8307207459 2.8800620952 2.9351694502 
2.9967168029 3.0653475414 3.1415926536 3.225752376 2.718901062 2.7598010554 2.8058000847 2.8576792927 2.91630358 
2.9825888767 3.0574329311 3.1415926536 3.5642842451 3.5233842518 3.4524645613 3.4773852225 3.403123212 3.3320300872 
3.4255060145 3.348015857 3.2746326772 3.20576226 3.3668817272 3.2864685043 3.2112816139 3.1415926536 3.0774230472 
3.3005964304 3.2178377658 3.1415926536 3.0719036933 3.00855263 2.95115522 3.225752376 3.1415926536 3.0653475414 
2.9967168029 2.9351694502 2.8800620952 2.8307207459 3.1415926536 3.0574329311 2.9825888767 2.91630358 2.8576792927 
2.8058000847 2.7598010554 2.718901062 4.526799744 4.426884955 4.4046155105 4.3052269283 4.2918546451 4.2807094886 
4.1588146215 4.1588146215 4.1588146215 4.1588146215 3.9875336042 4.0055183285 4.0201070968 4.0321740035 4.042318168 
3.7967995342 3.8356650183 3.8672112905 3.8932795963 3.9151549899 3.9337570603 3.5984456061 3.657329819 3.7058097288 
3.7462412737 3.7803704271 3.809500442 3.8346145692 3.4073543651 3.4813459737 3.5438565869 3.5969754326 3.6424295543 
3.6816134988 3.7156421835 3.7454049075 4.7123889804 4.8004512023 4.6243267584 4.9155579264 4.7123889804 4.5092200343 
5.0674903122 4.8353719722 4.5894059886 4.3572876485 5.2659633393 5.0120975802 4.7123889804 4.4126803806 4.1588146215 
5.5125918794 5.2659633393 4.9155579264 4.5092200343 4.1588146215 3.9121860814 5.7885595667 5.6029703303 5.2659633393 
4.7123889804 4.1588146215 3.8218076305 3.6362183941 6.0560271438 5.9702140275 5.7885595667 5.2659633393 4.1588146215 
3.6362183941 3.4545639333 3.368750817 0.22715816343 0.49462574053 0.3129712797 0.77059342779 0.68021497688 0.49462574053 
1.0172219679 1.0172219679 1.0172219679 1.0172219679 1.2156949949 1.271087727 1.3676273807 1.5707963268 2.1243706857 
1.3676273807 1.447813335 1.5707963268 1.7739652728 2.1243706857 2.6469669131 1.4827341049 1.5707963268 1.6937793186 
1.8705049266 2.1243706857 2.4613776767 2.8286213739 1.5707963268 1.6588585487 1.7739652728 1.9258976586 2.1243706857 
2.3709992258 2.6469669131 2.9144344902 1.7563855631 1.8785697967 1.8563003522 2.0024758186 1.9913306621 1.9779583789 
2.1243706857 2.1243706857 2.1243706857 2.1243706857 2.2408671392 2.2510113037 2.2630782103 2.2776669786 2.295651703 
2.3494282469 2.3680303173 2.3899057108 2.4159740166 2.4475202889 2.486385773 2.448570738 2.4736848652 2.5028148801 
2.5369440334 2.5773755784 2.6258554882 2.6847397011 2.5377803997 2.5675431237 2.6015718084 2.6407557529 2.6862098746 
2.7393287203 2.8018393335 2.8758309421 1.6743954455 1.6743954455 1.7840462375 1.6743954455 1.7840462375 1.8974821136 
1.6743954455 1.7840462375 1.8974821136 2.0119052671 1.6743954455 1.7840462375 1.8974821136 2.0119052671 2.1243706857 
1.6743954455 1.7840462375 1.8974821136 2.0119052671 2.1243706857 2.232221744 1.6743954455 1.7840462375 1.8974821136 
2.0119052671 2.1243706857 2.232221744 2.3334263672 1.6743954455 1.7840462375 1.8974821136 2.0119052671 2.1243706857 
2.232221744 2.3334263672 2.426721652 1.4671972081 1.3575464161 1.4671972081 1.24411054 1.3575464161 1.4671972081 
1.1296873865 1.24411054 1.3575464161 1.4671972081 1.0172219679 1.1296873865 1.24411054 1.3575464161 1.4671972081 
0.90937090954 1.0172219679 1.1296873865 1.24411054 1.3575464161 1.4671972081 0.80816628637 0.90937090954 1.0172219679 
1.1296873865 1.24411054 1.3575464161 1.4671972081 0.71487100155 0.80816628637 0.90937090954 1.0172219679 1.1296873865 
1.24411054 1.3575464161 1.4671972081 0.60381225391 0.57404952988 0.69302191562 0.54002084522 0.66790778838 0.79216440667 
0.50083690068 0.63877777351 0.77356233629 0.90072551443 0.45538277901 0.60464862014 0.75168694275 0.89058134991 1.0172219679 
0.40226393329 0.56421707518 0.72561863695 0.87851444325 1.0172219679 1.139116835 0.33975332011 0.51573716537 0.69407236469 
0.86392567495 1.0172219679 1.1502619915 1.2630228569 0.26576171152 0.45685295248 0.6552068806 0.84594095064 1.0172219679 
1.1636342747 1.2852923014 1.3852070904 0.22715816343 0.3129712797 0.49462574053 0.49462574053 0.68021497688 0.77059342779 
1.0172219679 1.0172219679 1.0172219679 1.0172219679 2.1243706857 1.5707963268 1.3676273807 1.271087727 1.2156949949 
2.6469669131 2.1243706857 1.7739652728 1.5707963268 1.447813335 1.3676273807 2.8286213739 2.4613776767 2.1243706857 
1.8705049266 1.6937793186 1.5707963268 1.4827341049 2.9144344902 2.6469669131 2.3709992258 2.1243706857 1.9258976586 
1.7739652728 1.6588585487 1.5707963268 1.7563855631 1.8563003522 1.8785697967 1.9779583789 1.9913306621 2.0024758186 
2.1243706857 2.1243706857 2.1243706857 2.1243706857 2.295651703 2.2776669786 2.2630782103 2.2510113037 2.2408671392 
2.486385773 2.4475202889 2.4159740166 2.3899057108 2.3680303173 2.3494282469 2.6847397011 2.6258554882 2.5773755784 
2.5369440334 2.5028148801 2.4736848652 2.448570738 2.8758309421 2.8018393335 2.7393287203 2.6862098746 2.6407557529 
2.6015718084 2.5675431237 2.5377803997 5.8604937156 5.901393709 5.9723133995 5.9473927383 6.0216547488 6.0927478736 
5.9992719463 6.0767621038 6.1501452836 6.2190157008 6.0578962336 6.1383094565 6.2134963469 0 0.064169606361 
6.1241815303 6.206940195 6.2831853072 0.069688960264 0.13304002361 0.19043743361 6.1990255847 0 0.07624511221 
0.14487585072 0.20642320337 0.26153055843 0.3108719077 0 0.084159722458 0.15900377685 0.22528907359 0.28391336087 
0.3357925689 0.38179159818 0.42269159155 5.8604937156 5.9723133995 5.901393709 6.0927478736 6.0216547488 5.9473927383 
6.2190157008 6.1501452836 6.0767621038 5.9992719463 0.064169606361 0 6.2134963469 6.1383094565 6.0578962336 
0.19043743361 0.13304002361 0.069688960264 6.2831853072 6.206940195 6.1241815303 0.3108719077 0.26153055843 0.20642320337 
0.14487585072 0.07624511221 6.2831853072 6.1990255847 0.42269159155 0.38179159818 0.3357925689 0.28391336087 0.22528907359 
0.15900377685 0.084159722458 0 5.6793730533 5.7091357773 5.5901633916 5.743164462 5.6152775188 5.4910209005 
5.7823484065 5.6444075337 5.5096229709 5.3824597928 5.8278025282 5.678536687 5.5314983644 5.3926039573 5.2659633393 
5.8809213739 5.718968232 5.5575666702 5.4046708639 5.2659633393 5.1440684722 5.9434319871 5.7674481418 5.5891129425 
5.4192596322 5.2659633393 5.1329233157 5.0201624502 6.0174235957 5.8263323547 5.6279784266 5.4372443565 5.2659633393 
5.1195510325 4.9978930058 4.8979782167 1.3852070904 1.2852923014 1.2630228569 1.1636342747 1.1502619915 1.139116835 
1.0172219679 1.0172219679 1.0172219679 1.0172219679 0.84594095064 0.86392567495 0.87851444325 0.89058134991 0.90072551443 
0.6552068806 0.69407236469 0.72561863695 0.75168694275 0.77356233629 0.79216440667 0.45685295248 0.51573716537 0.56421707518 
0.60464862014 0.63877777351 0.66790778838 0.69302191562 0.26576171152 0.33975332011 0.40226393329 0.45538277901 0.50083690068 
0.54002084522 0.57404952988 0.60381225391 
_paraPhiHalf 1 1002 double
0 3.1415926536 0 3.1415926536 1.5707963268 1.5707963268 1.5707963268 1.5707963268 2.5880182947 
0.5535743589 2.5880182947 0.5535743589 0 0 0 0 3.1415926536 3.1415926536 
3.1415926536 3.1415926536 3.1415926536 0.17788134 0.38438696014 0.60631181711 0.82323535693 1.0172219679 1.1799687454 
1.3118704726 1.4175000338 1.5022335207 0.17788134 0.38438696014 0.60631181711 0.82323535693 1.0172219679 1.1799687454 
1.3118704726 1.4175000338 1.5022335207 0.093902416448 0.17615329733 0.2478725152 0.31035131605 0.36486382811 0.41257334776 
0.45449736604 0.4915044461 0.52432611754 0.093902416448 0.17615329733 0.2478725152 0.31035131605 0.36486382811 0.41257334776 
0.45449736604 0.4915044461 0.52432611754 2.9637113136 2.7572056934 2.5352808365 2.3183572967 2.1243706857 1.9616239082 
1.829722181 1.7240926197 1.6393591329 2.9637113136 2.7572056934 2.5352808365 2.3183572967 2.1243706857 1.9616239082 
1.829722181 1.7240926197 1.6393591329 3.0476902371 2.9654393563 2.8937201384 2.8312413375 2.7767288255 2.7290193058 
2.6870952876 2.6500882075 2.617266536 3.0476902371 2.9654393563 2.8937201384 2.8312413375 2.7767288255 2.7290193058 
2.6870952876 2.6500882075 2.617266536 0 0 0 0 3.1415926536 3.1415926536 
3.1415926536 3.1415926536 3.1415926536 0.17788134 0.38438696014 0.60631181711 0.82323535693 1.0172219679 1.1799687454 
1.3118704726 1.4175000338 1.5022335207 0.17788134 0.38438696014 0.60631181711 0.82323535693 1.0172219679 1.1799687454 
1.3118704726 1.4175000338 1.5022335207 0.093902416448 0.17615329733 0.2478725152 0.31035131605 0.36486382811 0.41257334776 
0.45449736604 0.4915044461 0.52432611754 0.093902416448 0.17615329733 0.2478725152 0.31035131605 0.36486382811 0.41257334776 
0.45449736604 0.4915044461 0.52432611754 2.9637113136 2.7572056934 2.5352808365 2.3183572967 2.1243706857 1.9616239082 
1.829722181 1.7240926197 1.6393591329 2.9637113136 2.7572056934 2.5352808365 2.3183572967 2.1243706857 1.9616239082 
1.829722181 1.7240926197 1.6393591329 3.0476902371 2.9654393563 2.8937201384 2.8312413375 2.7767288255 2.7290193058 
2.6870952876 2.6500882075 2.617266536 3.0476902371 2.9654393563 2.8937201384 2.8312413375 2.7767288255 2.7290193058 
2.6870952876 2.6500882075 2.617266536 1.5707963268 1.5707963268 1.5707963268 1.5707963268 1.5707963268 1.5707963268 
1.5707963268 1.5707963268 1.5707963268 1.6743954455 1.7840462375 1.8974821136 2.0119052671 2.1243706857 2.232221744 
2.3334263672 2.426721652 2.5115728246 1.4671972081 1.3575464161 1.24411054 1.1296873865 1.0172219679 0.90937090954 
0.80816628637 0.71487100155 0.63001982895 1.6743954455 1.7840462375 1.8974821136 2.0119052671 2.1243706857 2.232221744 
2.3334263672 2.426721652 2.5115728246 1.4671972081 1.3575464161 1.24411054 1.1296873865 1.0172219679 0.90937090954 
0.80816628637 0.71487100155 0.63001982895 1.5707963268 1.5707963268 1.5707963268 1.5707963268 1.5707963268 1.5707963268 
1.5707963268 1.5707963268 1.5707963268 1.6743954455 1.7840462375 1.8974821136 2.0119052671 2.1243706857 2.232221744 
2.3334263672 2.426721652 2.5115728246 1.4671972081 1.3575464161 1.24411054 1.1296873865 1.0172219679 0.90937090954 
0.80816628637 0.71487100155 0.63001982895 1.6743954455 1.7840462375 1.8974821136 2.0119052671 2.1243706857 2.232221744 
2.3334263672 2.426721652 2.5115728246 1.4671972081 1.3575464161 1.24411054 1.1296873865 1.0172219679 0.90937090954 
0.80816628637 0.71487100155 0.63001982895 2.6824132222 2.7864913217 2.8992382033 3.0186096618 3.1415926536 3.0186096618 
2.8992382033 2.7864913217 2.6824132222 0.45917943135 0.35510133185 0.2423544503 0.12298299178 0 0.12298299178 
0.2423544503 0.35510133185 0.45917943135 0.22715816343 0.49462574053 0.3129712797 0.77059342779 0.68021497688 0.49462574053 
1.0172219679 1.0172219679 1.0172219679 1.0172219679 1.2156949949 1.271087727 1.3676273807 1.5707963268 2.1243706857 
1.3676273807 1.447813335 1.5707963268 1.7739652728 2.1243706857 2.6469669131 1.4827341049 1.5707963268 1.6937793186 
1.8705049266 2.1243706857 2.4613776767 2.8286213739 1.5707963268 1.6588585487 1.7739652728 1.9258976586 2.1243706857 
2.3709992258 2.6469669131 2.9144344902 0.26576171152 0.33975332011 0.45685295248 0.40226393329 0.51573716537 0.6552068806 
0.45538277901 0.56421707518 0.69407236469 0.84594095064 0.50083690068 0.60464862014 0.72561863695 0.86392567495 1.0172219679 
0.54002084522 0.63877777351 0.75168694275 0.87851444325 1.0172219679 1.1636342747 0.57404952988 0.66790778838 0.77356233629 
0.89058134991 1.0172219679 1.1502619915 1.2852923014 0.60381225391 0.69302191562 0.79216440667 0.90072551443 1.0172219679 
1.139116835 1.2630228569 1.3852070904 0.71487100155 0.80816628637 0.80816628637 0.90937090954 0.90937090954 0.90937090954 
1.0172219679 1.0172219679 1.0172219679 1.0172219679 1.1296873865 1.1296873865 1.1296873865 1.1296873865 1.1296873865 
1.24411054 1.24411054 1.24411054 1.24411054 1.24411054 1.24411054 1.3575464161 1.3575464161 1.3575464161 
1.3575464161 1.3575464161 1.3575464161 1.3575464161 1.4671972081 1.4671972081 1.4671972081 1.4671972081 1.4671972081 
1.4671972081 1.4671972081 1.4671972081 1.6743954455 1.6743954455 1.7840462375 1.6743954455 1.7840462375 1.8974821136 
1.6743954455 1.7840462375 1.8974821136 2.0119052671 1.6743954455 1.7840462375 1.8974821136 2.0119052671 2.1243706857 
1.6743954455 1.7840462375 1.8974821136 2.0119052671 2.1243706857 2.232221744 1.6743954455 1.7840462375 1.8974821136 
2.0119052671 2.1243706857 2.232221744 2.3334263672 1.6743954455 1.7840462375 1.8974821136 2.0119052671 2.1243706857 
2.232221744 2.3334263672 2.426721652 1.7563855631 1.8785697967 1.8563003522 2.0024758186 1.9913306621 1.9779583789 
2.1243706857 2.1243706857 2.1243706857 2.1243706857 2.2408671392 2.2510113037 2.2630782103 2.2776669786 2.295651703 
2.3494282469 2.3680303173 2.3899057108 2.4159740166 2.4475202889 2.486385773 2.448570738 2.4736848652 2.5028148801 
2.5369440334 2.5773755784 2.6258554882 2.6847397011 2.5377803997 2.5675431237 2.6015718084 2.6407557529 2.6862098746 
2.7393287203 2.8018393335 2.8758309421 2.718901062 2.8307207459 2.7598010554 2.95115522 2.8800620952 2.8058000847 
3.0774230472 3.00855263 2.9351694502 2.8576792927 3.0774230472 3.1415926536 3.0719036933 2.9967168029 2.91630358 
2.95115522 3.00855263 3.0719036933 3.1415926536 3.0653475414 2.9825888767 2.8307207459 2.8800620952 2.9351694502 
2.9967168029 3.0653475414 3.1415926536 3.0574329311 2.718901062 2.7598010554 2.8058000847 2.8576792927 2.91630358 
2.9825888767 3.0574329311 3.1415926536 2.718901062 2.7598010554 2.8307207459 2.8058000847 2.8800620952 2.95115522 
2.8576792927 2.9351694502 3.00855263 3.0774230472 2.91630358 2.9967168029 3.0719036933 3.1415926536 3.0774230472 
2.9825888767 3.0653475414 3.1415926536 3.0719036933 3.00855263 2.95115522 3.0574329311 3.1415926536 3.0653475414 