# vtk DataFile Version 5.1
vtk output
ASCII
DATASET POLYDATA
POINTS 1002 float
-5.63091 -0.241342 -2.26172 5.82338 0.16067 -4.45561 -5.61564 0.290424 3.31172 
5.81572 -0.21706 4.78906 -0.0289337 5.78601 -2.52278 -0.376474 5.49406 2.53567 
-0.360985 -6.04633 -3.04182 -0.10955 -6.12159 2.93011 9.71988 3.92361 -0.47264 
-10.1733 4.91344 -0.280492 11.0743 -4.41679 -1.3284 -9.98373 -4.53696 -0.599817 
-4.56189 -0.122897 -2.12346 -3.51137 -0.102441 -2.04636 -2.52874 -0.144308 -2.36166 
-1.53005 -0.118062 -3.17986 -0.323834 0.0393857 -4.08393 1.16912 0.222432 -4.56353 
2.7325 0.300278 -4.62194 4.04946 0.267671 -4.57182 5.03286 0.201856 -4.53865 
-5.19752 0.340053 -2.41378 -4.79397 0.967536 -2.5247 -4.41262 1.60862 -2.44705 
-3.92947 2.27124 -2.36834 -3.24351 3.02992 -2.71189 -2.46122 3.86003 -3.41208 
-1.76773 4.56828 -3.81889 -1.18038 5.04801 -3.58395 -0.6077 5.40948 -3.01328 
-5.40191 -0.724331 -2.22352 -5.12415 -1.26774 -2.42779 -4.73966 -1.86953 -2.59758 
-4.22514 -2.51246 -2.43233 -3.62443 -3.18249 -2.08724 -2.95556 -3.83531 -1.98369 
-2.194 -4.4183 -2.21472 -1.4104 -4.95896 -2.56523 -0.769341 -5.5128 -2.86564 
-6.45031 -0.0372324 -2.47467 -7.28901 0.254674 -2.68114 -8.01132 0.705964 -2.63007 
-8.50951 1.28725 -2.22386 -8.84361 1.91122 -1.78343 -9.1973 2.57074 -1.68463 
-9.62616 3.29247 -1.78177 -9.9917 3.99601 -1.61776 -10.1707 4.55142 -1.04105 
-6.58984 -0.720645 -2.18791 -7.54302 -1.26205 -2.05507 -8.38634 -1.82989 -2.11349 
-9.18964 -2.44354 -2.55053 -10.0499 -3.15461 -3.11136 -10.7799 -3.90027 -3.28851 
-11.0499 -4.46714 -2.9008 -10.8297 -4.70146 -2.16735 -10.394 -4.66613 -1.35318 
5.53115 0.716869 -4.35712 5.14582 1.34096 -4.26212 4.64353 2.00475 -4.19724 
4.05284 2.671 -4.0567 3.43909 3.32046 -3.72705 2.80659 3.93943 -3.28742 
2.09831 4.50086 -2.93704 1.32755 4.98775 -2.75154 0.595343 5.4104 -2.64729 
5.52727 -0.37465 -4.50765 5.0529 -0.935161 -4.30704 4.5132 -1.46394 -3.92213 
4.02587 -1.99809 -3.53142 3.49013 -2.64362 -3.18821 2.73132 -3.35053 -2.85689 
1.82198 -3.96497 -2.64864 0.972976 -4.53345 -2.69679 0.258111 -5.22803 -2.90388 
6.41804 0.479523 -4.18556 7.08331 0.847029 -3.82026 7.88805 1.26575 -3.58669 
8.75163 1.70978 -3.56128 9.48743 2.17103 -3.47054 9.99003 2.68389 -3.02675 
10.2402 3.20758 -2.32224 10.2264 3.60278 -1.62285 10.0065 3.81245 -1.02212 
6.53802 -0.176981 -4.37469 7.45875 -0.541723 -4.10588 8.4654 -0.968589 -3.54998 
9.33842 -1.45264 -2.87753 10.0763 -1.98364 -2.53029 10.8692 -2.60633 -2.70327 
11.6363 -3.30762 -2.98838 11.9947 -3.91944 -2.85026 11.7489 -4.28401 -2.20356 
-4.61432 0.260823 3.40781 -3.54483 0.185979 3.53675 -2.38761 0.0928994 3.65233 
-1.10789 0.0283596 3.77378 0.216398 -0.0311881 4.02556 1.44262 -0.135858 4.42243 
2.56854 -0.242069 4.76118 3.69239 -0.275692 4.88344 4.80853 -0.248834 4.84928 
-5.35912 0.839268 3.34453 -5.11879 1.36434 3.58851 -4.85846 1.93047 3.85651 
-4.4814 2.60067 3.86879 -3.95444 3.31846 3.62519 -3.33016 3.97178 3.37761 
-2.6428 4.51355 3.21996 -1.89923 4.93597 3.0433 -1.13041 5.24609 2.79801 
-5.24061 -0.307762 3.47444 -4.77968 -0.940088 3.6509 -4.22374 -1.57377 3.66069 
-3.58365 -2.21495 3.42443 -2.89201 -2.9048 3.11694 -2.2053 -3.65194 2.98272 
-1.58667 -4.40106 3.04316 -1.05446 -5.08181 3.12888 -0.573301 -5.65628 3.10035 
-6.43938 0.688609 3.18878 -7.28329 1.17055 3.02119 -8.06801 1.72366 2.76119 
-8.6802 2.30517 2.38435 -9.094 2.85336 1.92175 -9.45398 3.32376 1.48504 
-9.88193 3.7408 1.16015 -10.2604 4.16384 0.849428 -10.3757 4.58309 0.375239 
-6.39283 -0.103742 3.36315 -7.10562 -0.561069 3.42693 -7.61852 -1.01001 3.26047 
-8.05665 -1.50623 2.74621 -8.68607 -2.16809 2.11747 -9.44619 -2.88494 1.66278 
-9.97136 -3.40365 1.31917 -10.1156 -3.72802 0.839464 -10.0588 -4.07615 0.157789 
5.60835 0.412576 4.6368 5.38008 1.09844 4.47984 5.04644 1.77282 4.35589 
4.4666 2.40103 4.20918 3.63517 2.98359 3.9289 2.76016 3.53611 3.58567 
2.00615 4.08264 3.36453 1.29818 4.61656 3.22222 0.500828 5.09355 2.95783 
5.44343 -0.814838 4.96037 5.0475 -1.41428 5.09044 4.54393 -2.06045 5.10521 
3.8772 -2.78347 4.98214 3.1132 -3.52269 4.7841 2.35692 -4.21968 4.59501 
1.64485 -4.87775 4.38311 0.985977 -5.45093 4.0235 0.400885 -5.859 3.49515 
6.65354 0.192516 4.67987 7.54113 0.645244 4.60115 8.44203 1.14967 4.37592 
9.28318 1.71923 3.80158 9.91513 2.27947 2.96953 10.1991 2.68578 2.16439 
10.1705 2.92818 1.46653 10.0132 3.17199 0.780765 9.86236 3.52611 0.106521 
6.49904 -0.572639 4.83017 7.10983 -0.930437 4.77045 7.6462 -1.2916 4.44313 
8.20981 -1.68176 3.73538 8.83073 -2.07718 2.77567 9.36566 -2.43729 1.84796 
9.75494 -2.83352 1.055 10.1531 -3.36411 0.271669 10.6426 -3.95612 -0.562285 
-0.0303945 6.30502 -2.17133 -0.0764585 6.88795 -1.78118 -0.187665 7.35986 -1.30189 
-0.28664 7.49876 -0.68264 -0.32729 7.26237 -0.00542832 -0.389584 6.84968 0.572972 
-0.500641 6.47074 1.0409 -0.549725 6.16083 1.51798 -0.481838 5.84977 2.04413 
0.94376 5.98619 -2.36042 2.01824 6.22019 -2.46866 3.17121 6.46294 -2.64038 
4.35488 6.65329 -2.54463 5.49483 6.65903 -2.12549 6.53948 6.38209 -1.64172 
7.49597 5.8879 -1.28516 8.36915 5.29271 -1.01999 9.11959 4.63053 -0.757452 
-0.990389 5.88811 -2.61636 -2.05731 5.96289 -2.54662 -3.24705 6.02137 -2.08597 
-4.50631 6.10784 -1.38398 -5.70749 6.24623 -0.958399 -6.76109 6.38157 -1.03321 
-7.70413 6.37985 -1.22029 -8.6129 6.11568 -1.10514 -9.46949 5.58601 -0.710464 
0.992777 5.60969 2.5743 2.39024 5.94392 2.50057 3.59523 6.28831 2.19725 
4.60785 6.28113 1.77778 5.6452 5.89569 1.43452 6.76406 5.51304 1.14512 
7.75907 5.297 0.773506 8.51067 5.00607 0.328822 9.12249 4.49827 -0.0961206 
-1.74072 5.80473 2.27929 -3.02216 6.26751 2.27093 -4.12499 6.73045 2.5062 
-5.22209 7.03149 2.5995 -6.50944 7.1591 2.25766 -7.80441 7.13312 1.69396 
-8.75193 6.86653 1.2111 -9.32135 6.32541 0.774973 -9.74642 5.62977 0.26208 
-0.590282 -6.90711 -3.0509 -0.851483 -7.71168 -2.7882 -0.982042 -8.19888 -2.16761 
-0.908037 -8.24753 -1.30464 -0.71266 -7.98652 -0.420277 -0.497705 -7.62413 0.378998 
-0.307608 -7.25636 1.11602 -0.179426 -6.88763 1.80275 -0.125917 -6.51042 2.41281 
0.33018 -5.95449 -2.94183 1.20443 -5.80419 -2.52772 2.39284 -5.77388 -2.04448 
3.82462 -5.88462 -1.7586 5.32823 -5.91182 -1.59548 6.87636 -5.72683 -1.37801 
8.44707 -5.47856 -1.23409 9.79231 -5.25809 -1.30545 10.6609 -4.93845 -1.41582 
-1.16788 -6.48833 -2.8539 -2.13235 -6.5609 -2.37502 -3.29822 -6.19228 -1.89888 
-4.55864 -5.84961 -1.73634 -5.78679 -6.0618 -1.85341 -6.95854 -6.59148 -1.95629 
-8.02332 -6.70382 -1.85857 -8.86775 -6.15363 -1.55616 -9.48579 -5.30343 -1.10769 
0.705103 -6.41389 2.97486 1.63548 -6.70413 2.87807 2.64129 -6.89149 2.61498 
3.6748 -6.88702 2.21525 4.74998 -6.70217 1.75759 5.9454 -6.38214 1.31638 
7.29341 -5.93431 0.857485 8.69881 -5.40186 0.254706 9.99998 -4.8792 -0.522058 
-0.908141 -6.11286 2.55834 -1.79112 -6.15844 2.30032 -2.78598 -6.11651 2.12997 
-3.92193 -5.8146 1.82211 -5.19712 -5.41098 1.2716 -6.51462 -5.24294 0.705061 
-7.68805 -5.26756 0.33619 -8.60295 -5.1653 0.0801863 -9.32419 -4.86326 -0.224999 
10.4711 3.15764 -0.520827 11.3319 2.51789 -0.587365 12.2957 2.01789 -0.665947 
13.2325 1.36795 -0.720962 13.8116 0.338804 -0.742602 13.7502 -0.862689 -0.841759 
13.1729 -1.93376 -1.12189 12.4519 -2.8561 -1.44393 11.7712 -3.69477 -1.54185 
-10.8279 4.00187 -0.367451 -11.4486 3.01702 -0.482537 -11.9055 1.99712 -0.629909 
-12.179 0.948446 -0.732858 -12.3643 -0.203924 -0.687892 -12.4257 -1.47322 -0.538785 
-12.1645 -2.62572 -0.445257 -11.5346 -3.43172 -0.463568 -10.7365 -3.98826 -0.530263 
-4.12458 0.448696 -2.18363 -3.73669 1.05921 -2.2998 -3.07938 0.466699 -2.22874 
-3.29446 1.70061 -2.38261 -2.60976 1.10427 -2.54938 -2.03551 0.46682 -2.86193 
-2.63385 2.40817 -2.5889 -1.96104 1.79872 -2.82152 -1.36674 1.1801 -3.34578 
-0.869875 0.574196 -3.85089 -1.7915 3.2074 -3.07464 -1.10736 2.54075 -3.05421 
-0.515076 1.91918 -3.5215 0.000639191 1.345 -4.1613 0.54612 0.783066 -4.55604 
-1.01983 3.98159 -3.50998 -0.263943 3.29341 -3.26233 0.352463 2.61862 -3.45422 
0.882077 2.04513 -4.00716 1.48063 1.52059 -4.52296 2.14146 0.936414 -4.72387 
-0.438697 4.57604 -3.4642 0.368911 3.96583 -3.25519 1.05878 3.28101 -3.29953 
1.61542 2.65065 -3.69289 2.22974 2.11693 -4.19105 2.95405 1.57088 -4.52629 
3.60648 0.931952 -4.62872 0.0665528 5.01017 -3.04497 0.850389 4.51314 -3.00191 
1.60494 3.91431 -3.09578 2.23338 3.27378 -3.44173 2.8349 2.66964 -3.89713 
3.52169 2.09381 -4.24141 4.20076 1.47887 -4.42054 4.71354 0.824319 -4.50512 
-6.00374 0.644617 -2.77394 -6.78815 1.07771 -2.93442 -5.53979 1.38461 -2.79971 
-7.42027 1.68024 -2.6213 -6.20446 1.94305 -2.72356 -5.05882 2.11069 -2.49491 
-7.86997 2.35271 -2.02754 -6.74027 2.61126 -2.2189 -5.59177 2.72873 -2.26893 
-4.47487 2.85001 -2.39112 -8.24766 3.00049 -1.72855 -7.21386 3.25976 -1.736 
-6.07637 3.38347 -1.84325 -4.93411 3.50855 -2.27467 -3.75365 3.69235 -2.93372 
-8.64723 3.67769 -1.86871 -7.67488 3.89338 -1.70992 -6.59633 4.01027 -1.55691 
-5.41602 4.15998 -1.92398 -4.2227 4.35997 -2.83592 -3.0063 4.5209 -3.63324 
-9.02425 4.41814 -1.93145 -8.07293 4.63612 -1.89147 -7.08374 4.71372 -1.54619 
-5.94899 4.80921 -1.49934 -4.71926 4.96351 -2.21516 -3.50161 5.08922 -3.22578 
-2.3183 5.11685 -3.7323 -9.30091 5.0992 -1.50226 -8.37197 5.44471 -1.73093 
-7.44074 5.55916 -1.53196 -6.41947 5.55986 -1.21823 -5.24276 5.56404 -1.44187 
-3.99237 5.58046 -2.2741 -2.78245 5.5698 -3.03523 -1.65421 5.51051 -3.23054 
-9.03555 6.39235 -0.133459 -8.54564 7.09358 0.408088 -8.12282 6.94139 -0.527659 
-7.80193 7.52698 0.874987 -7.5043 7.56199 -0.0190972 -7.12297 7.12987 -0.706383 
-6.68027 7.67341 1.39744 -6.61507 7.88251 0.444009 -6.38769 7.63392 -0.318807 
-6.08269 6.99612 -0.707333 -5.42137 7.62276 1.88481 -5.50436 7.98598 0.987557 
-5.45322 7.93643 0.080759 -5.258 7.44885 -0.530575 -4.91868 6.74921 -0.889484 
-4.31582 7.33359 2.00372 -4.41072 7.83046 1.39075 -4.40049 8.04913 0.581853 
-4.26705 7.83437 -0.259009 -3.97575 7.25214 -0.871935 -3.59276 6.57635 -1.38893 
-3.24132 6.77976 1.81522 -3.33528 7.28265 1.40909 -3.2813 7.72091 0.900481 
[...]
POINT_DATA 1002
FIELD FieldData 4
_paraPhi 1 1002 double
6.2831853072 3.1415926536 6.2831853072 3.1415926536 4.7123889804 4.7123889804 1.5707963268 1.5707963268 3.6951670125 
5.7296109483 2.5880182947 0.5535743589 6.2831853072 6.2831853072 6.2831853072 6.2831853072 3.1415926536 3.1415926536 
3.1415926536 3.1415926536 3.1415926536 6.1053039672 5.898798347 5.6768734901 5.4599499503 5.2659633393 5.1032165617 
4.9713148346 4.8656852733 4.7809517865 0.17788134 0.38438696014 0.60631181711 0.82323535693 1.0172219679 1.1799687454 
1.3118704726 1.4175000338 1.5022335207 6.1892828907 6.1070320098 6.035312792 5.9728339911 5.9183214791 5.8706119594 
5.8286879411 5.7916808611 5.7588591896 0.093902416448 0.17615329733 0.2478725152 0.31035131605 0.36486382811 0.41257334776 
0.45449736604 0.4915044461 0.52432611754 3.3194739936 3.5259796137 3.7479044707 3.9648280105 4.1588146215 4.321561399 
4.4534631262 4.5590926874 4.6438261743 2.9637113136 2.7572056934 2.5352808365 2.3183572967 2.1243706857 1.9616239082 
1.829722181 1.7240926197 1.6393591329 3.23549507 3.3177459509 3.3894651688 3.4519439696 3.5064564817 3.5541660013 
3.5960900196 3.6330970997 3.6659187711 3.0476902371 2.9654393563 2.8937201384 2.8312413375 2.7767288255 2.7290193058 
2.6870952876 2.6500882075 2.617266536 6.2831853072 6.2831853072 6.2831853072 6.2831853072 3.1415926536 3.1415926536 
3.1415926536 3.1415926536 3.1415926536 6.1053039672 5.898798347 5.6768734901 5.4599499503 5.2659633393 5.1032165617 
4.9713148346 4.8656852733 4.7809517865 0.17788134 0.38438696014 0.60631181711 0.82323535693 1.0172219679 1.1799687454 
1.3118704726 1.4175000338 1.5022335207 6.1892828907 6.1070320098 6.035312792 5.9728339911 5.9183214791 5.8706119594 
5.8286879411 5.7916808611 5.7588591896 0.093902416448 0.17615329733 0.2478725152 0.31035131605 0.36486382811 0.41257334776 
0.45449736604 0.4915044461 0.52432611754 3.3194739936 3.5259796137 3.7479044707 3.9648280105 4.1588146215 4.321561399 
4.4534631262 4.5590926874 4.6438261743 2.9637113136 2.7572056934 2.5352808365 2.3183572967 2.1243706857 1.9616239082 
1.829722181 1.7240926197 1.6393591329 3.23549507 3.3177459509 3.3894651688 3.4519439696 3.5064564817 3.5541660013 
3.5960900196 3.6330970997 3.6659187711 3.0476902371 2.9654393563 2.8937201384 2.8312413375 2.7767288255 2.7290193058 
2.6870952876 2.6500882075 2.617266536 4.7123889804 4.7123889804 4.7123889804 4.7123889804 4.7123889804 4.7123889804 
4.7123889804 4.7123889804 4.7123889804 4.6087898617 4.4991390697 4.3857031936 4.2712800401 4.1588146215 4.0509635631 
3.94975894 3.8564636551 3.7716124825 4.8159880991 4.9256388911 5.0390747672 5.1534979207 5.2659633393 5.3738143976 
5.4750190208 5.5683143056 5.6531654782 4.6087898617 4.4991390697 4.3857031936 4.2712800401 4.1588146215 4.0509635631 
3.94975894 3.8564636551 3.7716124825 4.8159880991 4.9256388911 5.0390747672 5.1534979207 5.2659633393 5.3738143976 
5.4750190208 5.5683143056 5.6531654782 1.5707963268 1.5707963268 1.5707963268 1.5707963268 1.5707963268 1.5707963268 
1.5707963268 1.5707963268 1.5707963268 1.6743954455 1.7840462375 1.8974821136 2.0119052671 2.1243706857 2.232221744 
2.3334263672 2.426721652 2.5115728246 1.4671972081 1.3575464161 1.24411054 1.1296873865 1.0172219679 0.90937090954 
0.80816628637 0.71487100155 0.63001982895 1.6743954455 1.7840462375 1.8974821136 2.0119052671 2.1243706857 2.232221744 
2.3334263672 2.426721652 2.5115728246 1.4671972081 1.3575464161 1.24411054 1.1296873865 1.0172219679 0.90937090954 
0.80816628637 0.71487100155 0.63001982895 3.6007720849 3.4966939854 3.3839471039 3.2645756454 3.1415926536 3.0186096618 
2.8992382033 2.7864913217 2.6824132222 5.8240058758 5.9280839753 6.0408308569 6.1602023154 6.2831853072 0.12298299178 
0.2423544503 0.35510133185 0.45917943135 6.0560271438 5.7885595667 5.9702140275 5.5125918794 5.6029703303 5.7885595667 
5.2659633393 5.2659633393 5.2659633393 5.2659633393 5.0674903122 5.0120975802 4.9155579264 4.7123889804 4.1588146215 
4.9155579264 4.8353719722 4.7123889804 4.5092200343 4.1588146215 3.6362183941 4.8004512023 4.7123889804 4.5894059886 
4.4126803806 4.1588146215 3.8218076305 3.4545639333 4.7123889804 4.6243267584 4.5092200343 4.3572876485 4.1588146215 
3.9121860814 3.6362183941 3.368750817 6.0174235957 5.9434319871 5.8263323547 5.8809213739 5.7674481418 5.6279784266 
5.8278025282 5.718968232 5.5891129425 5.4372443565 5.7823484065 5.678536687 5.5575666702 5.4192596322 5.2659633393 
5.743164462 5.6444075337 5.5314983644 5.4046708639 5.2659633393 5.1195510325 5.7091357773 5.6152775188 5.5096229709 
5.3926039573 5.2659633393 5.1329233157 4.9978930058 5.6793730533 5.5901633916 5.4910209005 5.3824597928 5.2659633393 
5.1440684722 5.0201624502 4.8979782167 5.5683143056 5.4750190208 5.4750190208 5.3738143976 5.3738143976 5.3738143976 
5.2659633393 5.2659633393 5.2659633393 5.2659633393 5.1534979207 5.1534979207 5.1534979207 5.1534979207 5.1534979207 
5.0390747672 5.0390747672 5.0390747672 5.0390747672 5.0390747672 5.0390747672 4.9256388911 4.9256388911 4.9256388911 
4.9256388911 4.9256388911 4.9256388911 4.9256388911 4.8159880991 4.8159880991 4.8159880991 4.8159880991 4.8159880991 
4.8159880991 4.8159880991 4.8159880991 4.6087898617 4.6087898617 4.4991390697 4.6087898617 4.4991390697 4.3857031936 
4.6087898617 4.4991390697 4.3857031936 4.2712800401 4.6087898617 4.4991390697 4.3857031936 4.2712800401 4.1588146215 
4.6087898617 4.4991390697 4.3857031936 4.2712800401 4.1588146215 4.0509635631 4.6087898617 4.4991390697 4.3857031936 
4.2712800401 4.1588146215 4.0509635631 3.94975894 4.6087898617 4.4991390697 4.3857031936 4.2712800401 4.1588146215 
4.0509635631 3.94975894 3.8564636551 4.526799744 4.4046155105 4.426884955 4.2807094886 4.2918546451 4.3052269283 
4.1588146215 4.1588146215 4.1588146215 4.1588146215 4.042318168 4.0321740035 4.0201070968 4.0055183285 3.9875336042 
3.9337570603 3.9151549899 3.8932795963 3.8672112905 3.8356650183 3.7967995342 3.8346145692 3.809500442 3.7803704271 
3.7462412737 3.7058097288 3.657329819 3.5984456061 3.7454049075 3.7156421835 3.6816134988 3.6424295543 3.5969754326 
3.5438565869 3.4813459737 3.4073543651 3.5642842451 3.4524645613 3.5233842518 3.3320300872 3.403123212 3.4773852225 
3.20576226 3.2746326772 3.348015857 3.4255060145 3.0774230472 3.1415926536 3.2112816139 3.2864685043 3.3668817272 
2.95115522 3.00855263 3.0719036933 3.1415926536 3.2178377658 3.3005964304 2.8307207459 2.8800620952 2.9351694502 
2.9967168029 3.0653475414 3.1415926536 3.225752376 2.718901062 2.7598010554 2.8058000847 2.8576792927 2.91630358 
2.9825888767 3.0574329311 3.1415926536 3.5642842451 3.5233842518 3.4524645613 3.4773852225 3.403123212 3.3320300872 
3.4255060145 3.348015857 3.2746326772 3.20576226 3.3668817272 3.2864685043 3.2112816139 3.1415926536 3.0774230472 
3.3005964304 3.2178377658 3.1415926536 3.0719036933 3.00855263 2.95115522 3.225752376 3.1415926536 3.0653475414 
2.9967168029 2.9351694502 2.8800620952 2.8307207459 3.1415926536 3.0574329311 2.9825888767 2.91630358 2.8576792927 
2.8058000847 2.7598010554 2.718901062 4.526799744 4.426884955 4.4046155105 4.3052269283 4.2918546451 4.2807094886 
4.1588146215 4.1588146215 4.1588146215 4.1588146215 3.9875336042 4.0055183285 4.0201070968 4.0321740035 4.042318168 
3.7967995342 3.8356650183 3.8672112905 3.8932795963 3.9151549899 3.9337570603 3.5984456061 3.657329819 3.7058097288 
3.7462412737 3.7803704271 3.809500442 3.8346145692 3.4073543651 3.4813459737 3.5438565869 3.5969754326 3.6424295543 
3.6816134988 3.7156421835 3.7454049075 4.7123889804 4.8004512023 4.6243267584 4.9155579264 4.7123889804 4.5092200343 
5.0674903122 4.8353719722 4.5894059886 4.3572876485 5.2659633393 5.0120975802 4.7123889804 4.4126803806 4.1588146215 
5.5125918794 5.2659633393 4.9155579264 4.5092200343 4.1588146215 3.9121860814 5.7885595667 5.6029703303 5.2659633393 
4.7123889804 4.1588146215 3.8218076305 3.6362183941 6.0560271438 5.9702140275 5.7885595667 5.2659633393 4.1588146215 
3.6362183941 3.4545639333 3.368750817 0.22715816343 0.49462574053 0.3129712797 0.77059342779 0.68021497688 0.49462574053 
1.0172219679 1.0172219679 1.0172219679 1.0172219679 1.2156949949 1.271087727 1.3676273807 1.5707963268 2.1243706857 
1.3676273807 1.447813335 1.5707963268 1.7739652728 2.1243706857 2.6469669131 1.4827341049 1.5707963268 1.6937793186 
1.8705049266 2.1243706857 2.4613776767 2.8286213739 1.5707963268 1.6588585487 1.7739652728 1.9258976586 2.1243706857 
2.3709992258 2.6469669131 2.9144344902 1.7563855631 1.8785697967 1.8563003522 2.0024758186 1.9913306621 1.9779583789 
2.1243706857 2.1243706857 2.1243706857 2.1243706857 2.2408671392 2.2510113037 2.2630782103 2.2776669786 2.295651703 
2.3494282469 2.3680303173 2.3899057108 2.4159740166 2.4475202889 2.486385773 2.448570738 2.4736848652 2.5028148801 
2.5369440334 2.5773755784 2.6258554882 2.6847397011 2.5377803997 2.5675431237 2.6015718084 2.6407557529 2.6862098746 
2.7393287203 2.8018393335 2.8758309421 1.6743954455 1.6743954455 1.7840462375 1.6743954455 1.7840462375 1.8974821136 
1.6743954455 1.7840462375 1.8974821136 2.0119052671 1.6743954455 1.7840462375 1.8974821136 2.0119052671 2.1243706857 
1.6743954455 1.7840462375 1.8974821136 2.0119052671 2.1243706857 2.232221744 1.6743954455 1.7840462375 1.8974821136 
2.0119052671 2.1243706857 2.232221744 2.3334263672 1.6743954455 1.7840462375 1.8974821136 2.0119052671 2.1243706857 
2.232221744 2.3334263672 2.426721652 1.4671972081 1.3575464161 1.4671972081 1.24411054 1.3575464161 1.4671972081 
1.1296873865 1.24411054 1.3575464161 1.4671972081 1.0172219679 1.1296873865 1.24411054 1.3575464161 1.4671972081 
0.90937090954 1.0172219679 1.1296873865 1.24411054 1.3575464161 1.4671972081 0.80816628637 0.90937090954 1.0172219679 
1.1296873865 1.24411054 1.3575464161 1.4671972081 0.71487100155 0.80816628637 0.90937090954 1.0172219679 1.1296873865 
1.24411054 1.3575464161 1.4671972081 0.60381225391 0.57404952988 0.69302191562 0.54002084522 0.66790778838 0.79216440667 
0.50083690068 0.63877777351 0.77356233629 0.90072551443 0.45538277901 0.60464862014 0.75168694275 0.89058134991 1.0172219679 
0.40226393329 0.56421707518 0.72561863695 0.87851444325 1.0172219679 1.139116835 0.33975332011 0.51573716537 0.69407236469 
0.86392567495 1.0172219679 1.1502619915 1.2630228569 0.26576171152 0.45685295248 0.6552068806 0.84594095064 1.0172219679 
1.1636342747 1.2852923014 1.3852070904 0.22715816343 0.3129712797 0.49462574053 0.49462574053 0.68021497688 0.77059342779 
1.0172219679 1.0172219679 1.0172219679 1.0172219679 2.1243706857 1.5707963268 1.3676273807 1.271087727 1.2156949949 
2.6469669131 2.1243706857 1.7739652728 1.5707963268 1.447813335 1.3676273807 2.8286213739 2.4613776767 2.1243706857 
1.8705049266 1.6937793186 1.5707963268 1.4827341049 2.9144344902 2.6469669131 2.3709992258 2.1243706857 1.9258976586 
1.7739652728 1.6588585487 1.5707963268 1.7563855631 1.8563003522 1.8785697967 1.9779583789 1.9913306621 2.0024758186 
2.1243706857 2.1243706857 2.1243706857 2.1243706857 2.295651703 2.2776669786 2.2630782103 2.2510113037 2.2408671392 
2.486385773 2.4475202889 2.4159740166 2.3899057108 2.3680303173 2.3494282469 2.6847397011 2.6258554882 2.5773755784 
2.5369440334 2.5028148801 2.4736848652 2.448570738 2.8758309421 2.8018393335 2.7393287203 2.6862098746 2.6407557529 
2.6015718084 2.5675431237 2.5377803997 5.8604937156 5.901393709 5.9723133995 5.9473927383 6.0216547488 6.0927478736 
5.9992719463 6.0767621038 6.1501452836 6.2190157008 6.0578962336 6.1383094565 6.2134963469 0 0.064169606361 
6.1241815303 6.206940195 6.2831853072 0.069688960264 0.13304002361 0.19043743361 6.1990255847 0 0.07624511221 
0.14487585072 0.20642320337 0.26153055843 0.3108719077 0 0.084159722458 0.15900377685 0.22528907359 0.28391336087 
0.3357925689 0.38179159818 0.42269159155 5.8604937156 5.9723133995 5.901393709 6.0927478736 6.0216547488 5.9473927383 
6.2190157008 6.1501452836 6.0767621038 5.9992719463 0.064169606361 0 6.2134963469 6.1383094565 6.0578962336 
0.19043743361 0.13304002361 0.069688960264 6.2831853072 6.206940195 6.1241815303 0.3108719077 0.26153055843 0.20642320337 
0.14487585072 0.07624511221 6.2831853072 6.1990255847 0.42269159155 0.38179159818 0.3357925689 0.28391336087 0.22528907359 
0.15900377685 0.084159722458 0 5.6793730533 5.7091357773 5.5901633916 5.743164462 5.6152775188 5.4910209005 
5.7823484065 5.6444075337 5.5096229709 5.3824597928 5.8278025282 5.678536687 5.5314983644 5.3926039573 5.2659633393 
5.8809213739 5.718968232 5.5575666702 5.4046708639 5.2659633393 5.1440684722 5.9434319871 5.7674481418 5.5891129425 
5.4192596322 5.2659633393 5.1329233157 5.0201624502 6.0174235957 5.8263323547 5.6279784266 5.4372443565 5.2659633393 
5.1195510325 4.9978930058 4.8979782167 1.3852070904 1.2852923014 1.2630228569 1.1636342747 1.1502619915 1.139116835 
1.0172219679 1.0172219679 1.0172219679 1.0172219679 0.84594095064 0.86392567495 0.87851444325 0.89058134991 0.90072551443 
0.6552068806 0.69407236469 0.72561863695 0.75168694275 0.77356233629 0.79216440667 0.45685295248 0.51573716537 0.56421707518 
0.60464862014 0.63877777351 0.66790778838 0.69302191562 0.26576171152 0.33975332011 0.40226393329 0.45538277901 0.50083690068 
0.54002084522 0.57404952988 0.60381225391 
_paraPhiHalf 1 1002 double
0 3.1415926536 0 3.1415926536 1.5707963268 1.5707963268 1.5707963268 1.5707963268 2.5880182947 
0.5535743589 2.5880182947 0.5535743589 0 0 0 0 3.1415926536 3.1415926536 
3.1415926536 3.1415926536 3.1415926536 0.17788134 0.38438696014 0.60631181711 0.82323535693 1.0172219679 1.1799687454 
1.3118704726 1.4175000338 1.5022335207 0.17788134 0.38438696014 0.60631181711 0.82323535693 1.0172219679 1.1799687454 
1.3118704726 1.4175000338 1.5022335207 0.093902416448 0.17615329733 0.2478725152 0.31035131605 0.36486382811 0.41257334776 
0.45449736604 0.4915044461 0.52432611754 0.093902416448 0.17615329733 0.2478725152 0.31035131605 0.36486382811 0.41257334776 
0.45449736604 0.4915044461 0.52432611754 2.9637113136 2.7572056934 2.5352808365 2.3183572967 2.1243706857 1.9616239082 
1.829722181 1.7240926197 1.6393591329 2.9637113136 2.7572056934 2.5352808365 2.3183572967 2.1243706857 1.9616239082 
1.829722181 1.7240926197 1.6393591329 3.0476902371 2.9654393563 2.8937201384 2.8312413375 2.7767288255 2.7290193058 
2.6870952876 2.6500882075 2.617266536 3.0476902371 2.9654393563 2.8937201384 2.8312413375 2.7767288255 2.7290193058 
2.6870952876 2.6500882075 2.617266536 0 0 0 0 3.1415926536 3.1415926536 
3.1415926536 3.1415926536 3.1415926536 0.17788134 0.38438696014 0.60631181711 0.82323535693 1.0172219679 1.1799687454 
1.3118704726 1.4175000338 1.5022335207 0.17788134 0.38438696014 0.60631181711 0.82323535693 1.0172219679 1.1799687454 
1.3118704726 1.4175000338 1.5022335207 0.093902416448 0.17615329733 0.2478725152 0.31035131605 0.36486382811 0.41257334776 
0.45449736604 0.4915044461 0.52432611754 0.093902416448 0.17615329733 0.2478725152 0.31035131605 0.36486382811 0.41257334776 
0.45449736604 0.4915044461 0.52432611754 2.9637113136 2.7572056934 2.5352808365 2.3183572967 2.1243706857 1.9616239082 
1.829722181 1.7240926197 1.6393591329 2.9637113136 2.7572056934 2.5352808365 2.3183572967 2.1243706857 1.9616239082 
1.829722181 1.7240926197 1.6393591329 3.0476902371 2.9654393563 2.8937201384 2.8312413375 2.7767288255 2.7290193058 
2.6870952876 2.6500882075 2.617266536 3.0476902371 2.9654393563 2.8937201384 2.8312413375 2.7767288255 2.7290193058 
2.6870952876 2.6500882075 2.617266536 1.5707963268 1.5707963268 1.5707963268 1.5707963268 1.5707963268 1.5707963268 
1.5707963268 1.5707963268 1.5707963268 1.6743954455 1.7840462375 1.8974821136 2.0119052671 2.1243706857 2.232221744 
2.3334263672 2.426721652 2.5115728246 1.4671972081 1.3575464161 1.24411054 1.1296873865 1.0172219679 0.90937090954 
0.80816628637 0.71487100155 0.63001982895 1.6743954455 1.7840462375 1.8974821136 2.0119052671 2.1243706857 2.232221744 
2.3334263672 2.426721652 2.5115728246 1.4671972081 1.3575464161 1.24411054 1.1296873865 1.0172219679 0.90937090954 
0.80816628637 0.71487100155 0.63001982895 1.5707963268 1.5707963268 1.5707963268 1.5707963268 1.5707963268 1.5707963268 
1.5707963268 1.5707963268 1.5707963268 1.6743954455 1.7840462375 1.8974821136 2.0119052671 2.1243706857 2.232221744 
2.3334263672 2.426721652 2.5115728246 1.4671972081 1.3575464161 1.24411054 1.1296873865 1.0172219679 0.90937090954 
0.80816628637 0.71487100155 0.63001982895 1.6743954455 1.7840462375 1.8974821136 2.0119052671 2.1243706857 2.232221744 
2.3334263672 2.426721652 2.5115728246 1.4671972081 1.3575464161 1.24411054 1.1296873865 1.0172219679 0.90937090954 
0.80816628637 0.71487100155 0.63001982895 2.6824132222 2.7864913217 2.8992382033 3.0186096618 3.1415926536 3.0186096618 
2.8992382033 2.7864913217 2.6824132222 0.45917943135 0.35510133185 0.2423544503 0.12298299178 0 0.12298299178 
0.2423544503 0.35510133185 0.45917943135 0.22715816343 0.49462574053 0.3129712797 0.77059342779 0.68021497688 0.49462574053 
1.0172219679 1.0172219679 1.0172219679 1.0172219679 1.2156949949 1.271087727 1.3676273807 1.5707963268 2.1243706857 
1.3676273807 1.447813335 1.5707963268 1.7739652728 2.1243706857 2.6469669131 1.4827341049 1.5707963268 1.6937793186 
1.8705049266 2.1243706857 2.4613776767 2.8286213739 1.5707963268 1.6588585487 1.7739652728 1.9258976586 2.1243706857 
2.3709992258 2.6469669131 2.9144344902 0.26576171152 0.33975332011 0.45685295248 0.40226393329 0.51573716537 0.6552068806 
0.45538277901 0.56421707518 0.69407236469 0.84594095064 0.50083690068 0.60464862014 0.72561863695 0.86392567495 1.0172219679 
0.54002084522 0.63877777351 0.75168694275 0.87851444325 1.0172219679 1.1636342747 0.57404952988 0.66790778838 0.77356233629 
0.89058134991 1.0172219679 1.1502619915 1.2852923014 0.60381225391 0.69302191562 0.79216440667 0.90072551443 1.0172219679 
1.139116835 1.2630228569 1.3852070904 0.71487100155 0.80816628637 0.80816628637 0.90937090954 0.90937090954 0.90937090954 
1.0172219679 1.0172219679 1.0172219679 1.0172219679 1.1296873865 1.1296873865 1.1296873865 1.1296873865 1.1296873865 
1.24411054 1.24411054 1.24411054 1.24411054 1.24411054 1.24411054 1.3575464161 1.3575464161 1.3575464161 
1.3575464161 1.3575464161 1.3575464161 1.3575464161 1.4671972081 1.4671972081 1.4671972081 1.4671972081 1.4671972081 
1.4671972081 1.4671972081 1.4671972081 1.6743954455 1.6743954455 1.7840462375 1.6743954455 1.7840462375 1.8974821136 
1.6743954455 1.7840462375 1.8974821136 2.0119052671 1.6743954455 1.7840462375 1.8974821136 2.0119052671 2.1243706857 
1.6743954455 1.7840462375 1.8974821136 2.0119052671 2.1243706857 2.232221744 1.6743954455 1.7840462375 1.8974821136 
2.0119052671 2.1243706857 2.232221744 2.3334263672 1.6743954455 1.7840462375 1.8974821136 2.0119052671 2.1243706857 
2.232221744 2.3334263672 2.426721652 1.7563855631 1.8785697967 1.8563003522 2.0024758186 1.9913306621 1.9779583789 
2.1243706857 2.1243706857 2.1243706857 2.1243706857 2.2408671392 2.2510113037 2.2630782103 2.2776669786 2.295651703 
2.3494282469 2.3680303173 2.3899057108 2.4159740166 2.4475202889 2.486385773 2.448570738 2.4736848652 2.5028148801 
2.5369440334 2.5773755784 2.6258554882 2.6847397011 2.5377803997 2.5675431237 2.6015718084 2.6407557529 2.6862098746 
2.7393287203 2.8018393335 2.8758309421 2.718901062 2.8307207459 2.7598010554 2.95115522 2.8800620952 2.8058000847 
3.0774230472 3.00855263 2.9351694502 2.8576792927 3.0774230472 3.1415926536 3.0719036933 2.9967168029 2.91630358 
2.95115522 3.00855263 3.0719036933 3.1415926536 3.0653475414 2.9825888767 2.8307207459 2.8800620952 2.9351694502 
2.9967168029 3.0653475414 3.1415926536 3.0574329311 2.718901062 2.7598010554 2.8058000847 2.8576792927 2.91630358 
2.9825888767 3.0574329311 3.1415926536 2.718901062 2.7598010554 2.8307207459 2.8058000847 2.8800620952 2.95115522 
2.8576792927 2.9351694502 3.00855263 3.0774230472 2.91630358 2.9967168029 3.0719036933 3.1415926536 3.0774230472 
2.9825888767 3.0653475414 3.1415926536 3.0719036933 3.00855263 2.95115522 3.0574329311 3.1415926536 3.0653475414 