# vtk DataFile Version 5.1
vtk output
ASCII
DATASET POLYDATA
POINTS 1002 float
-5.3934 -0.363614 -4.14694 4.96234 0.126993 -4.0566 -5.83916 0.292295 4.24711 
5.79773 -0.75779 3.12068 0.333528 7.87866 -3.4891 0.00464138 7.32095 3.16101 
0.678602 -7.40399 -3.64931 0.45051 -6.54449 3.62918 9.00082 5.02735 0.00896413 
-9.15936 4.25844 0.590369 10.0295 -5.41473 0.67999 -11.5966 -5.18566 1.06112 
-4.48824 -0.234656 -4.45012 -3.52263 -0.0854676 -4.69459 -2.49336 0.00537155 -4.8906 
-1.31187 -0.0150445 -5.10171 0.0384533 -0.0860609 -5.29976 1.35113 -0.103468 -5.33077 
2.42173 -0.0443705 -5.12142 3.30306 0.0416031 -4.77101 4.1436 0.104924 -4.40164 
-5.03075 0.362676 -4.22614 -4.57964 1.13581 -4.20577 -4.02452 1.99315 -4.03235 
-3.40928 2.98186 -3.89462 -2.78843 3.99547 -3.93235 -2.18355 4.87048 -4.0131 
-1.59559 5.65238 -3.99532 -0.999414 6.46731 -3.89815 -0.354893 7.25635 -3.73954 
-5.15947 -1.04349 -4.3199 -4.84775 -1.79727 -4.63673 -4.40879 -2.56314 -5.04787 
-3.7682 -3.33749 -5.30842 -2.94462 -4.21257 -5.26365 -2.07837 -5.18875 -5.06574 
-1.28079 -6.05999 -4.87972 -0.558302 -6.65829 -4.62643 0.100758 -7.05245 -4.19744 
-6.04511 -0.0254792 -3.82202 -6.66893 0.350262 -3.40311 -7.28373 0.77375 -2.97731 
-7.93346 1.2474 -2.63351 -8.54813 1.74786 -2.27016 -8.97155 2.22696 -1.71392 
-9.16884 2.6753 -1.02683 -9.23415 3.15 -0.410234 -9.23003 3.69134 0.0948939 
-6.18755 -0.861131 -3.95624 -7.10554 -1.35431 -3.99489 -8.14287 -1.85438 -4.27058 
-9.21462 -2.35615 -4.35321 -10.1512 -2.80025 -3.76803 -10.8438 -3.16603 -2.65233 
-11.3352 -3.55482 -1.52274 -11.6662 -4.06686 -0.578936 -11.7708 -4.65722 0.275603 
4.72766 0.88574 -4.14436 4.44704 1.70382 -4.27398 4.14323 2.58249 -4.4551 
3.83724 3.4893 -4.67316 3.42818 4.40737 -4.8361 2.78226 5.34143 -4.84333 
1.98386 6.22488 -4.69205 1.26917 6.94387 -4.41349 0.741168 7.4731 -4.0044 
4.69856 -0.676409 -4.24223 4.45552 -1.60073 -4.46514 4.18082 -2.55951 -4.58888 
3.77433 -3.44042 -4.53557 3.24053 -4.23407 -4.37566 2.68901 -5.00553 -4.21661 
2.16373 -5.73937 -4.09015 1.63879 -6.36612 -3.98129 1.13047 -6.89755 -3.85292 
5.63688 0.591717 -3.78562 6.26972 1.09706 -3.53059 6.77111 1.70755 -3.17189 
7.23528 2.44237 -2.63661 7.84393 3.18859 -2.0872 8.55573 3.79053 -1.72657 
9.10122 4.22251 -1.4774 9.30792 4.56105 -1.11912 9.22907 4.83867 -0.591678 
5.60367 -0.36804 -3.77824 6.2792 -0.948663 -3.46519 6.97321 -1.59561 -3.18178 
7.68602 -2.25649 -2.89579 8.42668 -2.8563 -2.43179 9.13615 -3.34833 -1.73776 
9.66826 -3.77798 -1.02419 9.93844 -4.25294 -0.451475 10.0184 -4.82079 0.0694487 
-4.79778 0.200279 4.28596 -3.59414 0.115932 4.32103 -2.3218 0.0670826 4.18863 
-1.07193 0.0157928 3.83498 0.183299 -0.0684983 3.53871 1.50327 -0.169306 3.56713 
2.80673 -0.295963 3.7357 3.95783 -0.468967 3.69691 4.93496 -0.644083 3.41941 
-5.55364 0.988606 4.38379 -5.10403 1.73517 4.54212 -4.48489 2.48908 4.62218 
-3.77099 3.22492 4.51017 -3.0725 3.96785 4.25237 -2.46004 4.74722 4.03002 
-1.91223 5.52314 3.89064 -1.33454 6.2184 3.71279 -0.67469 6.80688 3.44412 
-5.40148 -0.451131 4.13528 -4.8444 -1.23058 3.92805 -4.20928 -1.98142 3.47 
-3.52553 -2.67373 2.82736 -2.83975 -3.34725 2.46709 -2.19618 -4.06857 2.76275 
-1.55769 -4.84853 3.43034 -0.866728 -5.5991 3.88703 -0.164909 -6.18777 3.90566 
-6.6271 0.776838 4.30687 -7.32204 1.23007 4.30114 -7.93725 1.63954 4.09034 
-8.57658 2.07589 3.70235 -9.25259 2.64019 3.35391 -9.77736 3.30749 3.0696 
-9.97063 3.88397 2.60248 -9.85269 4.19998 1.88392 -9.55042 4.27717 1.14642 
-6.57882 -0.11042 4.18352 -7.37352 -0.630112 4.14356 -8.22047 -1.2841 4.04181 
-9.06205 -2.00223 3.7436 -9.87538 -2.70075 3.25171 -10.6878 -3.395 2.78867 
-11.4152 -4.10736 2.49838 -11.8512 -4.72388 2.21811 -11.8859 -5.09152 1.73497 
5.40832 -0.0793831 2.97215 4.8389 0.713579 2.78588 4.10877 1.63226 2.66555 
3.37347 2.61182 2.65323 2.77525 3.53704 2.67768 2.26961 4.37516 2.68664 
1.73008 5.19182 2.75397 1.13714 6.00245 2.93098 0.550162 6.73221 3.1141 
5.54889 -1.35268 3.39358 5.13658 -1.97862 3.51072 4.52613 -2.65028 3.26338 
3.77702 -3.39393 2.9961 3.03183 -4.24001 3.46561 2.386 -5.08772 4.68184 
1.82706 -5.69635 5.58492 1.32264 -5.99837 5.41683 0.868334 -6.21258 4.52731 
6.44582 -0.380187 2.94339 7.13045 0.12405 3.06752 7.80458 0.709913 3.36814 
8.41364 1.29964 3.56181 8.94064 1.8628 3.47292 9.3456 2.45065 3.10352 
9.52045 3.11941 2.49847 9.43182 3.83822 1.71269 9.20803 4.5035 0.845372 
6.55228 -1.20864 3.02216 7.44408 -1.69301 3.02639 8.44116 -2.22212 3.30951 
9.38039 -2.82127 3.82528 10.1091 -3.52716 4.23107 10.5722 -4.30499 4.14063 
10.7427 -4.98017 3.45775 10.6349 -5.37032 2.43885 10.357 -5.46848 1.44546 
0.538767 8.37828 -2.87238 0.71666 8.78131 -2.14566 0.759319 9.19256 -1.45313 
0.594397 9.70391 -0.804835 0.316809 10.1116 -0.0459096 0.138703 10.0477 0.879847 
0.126361 9.47264 1.79081 0.145467 8.69781 2.48268 0.0929599 7.96953 2.91376 
1.32909 8.17973 -3.51258 2.39412 8.52 -3.49387 3.40914 8.8437 -3.43262 
4.41056 8.93568 -3.29742 5.57681 8.61294 -2.98507 6.81283 7.99043 -2.46647 
7.72301 7.31712 -1.86771 8.19522 6.63901 -1.27764 8.53354 5.87128 -0.659893 
-0.521023 7.95085 -3.11502 -1.49249 8.02676 -2.74031 -2.56624 7.93586 -2.3886 
-3.63195 7.54822 -2.00054 -4.58585 6.98907 -1.47462 -5.47551 6.47368 -0.840687 
-6.41096 5.99663 -0.272821 -7.38858 5.44016 0.119153 -8.32386 4.82422 0.377178 
0.958365 7.49817 2.90109 1.82706 7.64751 2.58639 2.6977 7.65977 2.20751 
3.78922 7.47543 1.81025 5.10502 7.20604 1.4928 6.30934 6.98223 1.25 
7.15642 6.7332 0.959331 7.7724 6.30623 0.589543 8.37625 5.69707 0.245037 
-1.01194 7.50978 3.20354 -2.138 7.64812 3.13285 -3.22234 7.7604 3.01629 
-4.20284 7.85672 2.83832 -5.16899 7.84058 2.52474 -6.16459 7.55602 2.1144 
-7.08491 6.95135 1.72505 -7.86113 6.11244 1.36918 -8.53992 5.1738 0.989127 
0.728645 -8.01087 -3.03942 0.716212 -8.69709 -2.28641 0.643277 -9.23603 -1.53034 
0.562892 -9.36532 -0.796763 0.49692 -9.06564 0.0598848 0.422079 -8.55263 1.04279 
0.373523 -8.00243 1.88897 0.408005 -7.46817 2.47547 0.471914 -6.97547 2.99648 
1.51498 -7.49627 -3.25769 2.46204 -7.676 -2.92698 3.53487 -7.81803 -2.64508 
4.69067 -7.75 -2.3459 5.83246 -7.47942 -1.97286 6.89753 -7.14279 -1.48301 
7.87709 -6.77266 -0.876102 8.74126 -6.3355 -0.251128 9.45179 -5.86632 0.274056 
-0.101867 -7.71448 -3.7215 -0.987033 -7.96266 -3.66818 -2.08999 -7.91086 -3.36766 
-3.52425 -7.45392 -2.80094 -5.21974 -6.82875 -2.0925 -6.87927 -6.38296 -1.39155 
-8.27204 -6.15896 -0.731544 -9.45354 -5.94243 -0.0765572 -10.5659 -5.60451 0.54769 
1.32496 -6.47833 3.64814 2.28034 -6.36507 3.44028 3.24654 -6.34502 3.00122 
4.35189 -6.49163 2.46285 5.79666 -6.75977 2.06247 7.38952 -7.03216 1.89656 
8.62554 -7.13124 1.79291 9.31603 -6.87357 1.5458 9.70166 -6.24001 1.13787 
-0.309999 -6.80871 3.10346 -1.21801 -6.90337 2.58829 -2.52606 -6.57775 1.97922 
-4.23076 -6.03409 1.36388 -5.88016 -5.89709 1.15204 -7.12959 -6.34244 1.4743 
-8.19401 -6.75402 1.8462 -9.3673 -6.58647 1.8336 -10.5741 -5.94075 1.4988 
9.80066 4.06044 0.375892 10.5996 3.08053 0.774031 11.107 2.08452 1.07055 
11.2953 0.953555 1.21559 11.4355 -0.340794 1.19462 11.6184 -1.61284 0.974355 
11.5877 -2.70155 0.672297 11.1931 -3.65465 0.527393 10.6022 -4.56522 0.587103 
-10.0346 3.39175 0.464795 -10.9049 2.55488 0.385898 -11.6933 1.73088 0.397138 
-12.4513 0.745243 0.362264 -13.2553 -0.534089 0.200693 -13.9362 -1.91222 0.139952 
-14.13 -3.03364 0.378678 -13.668 -3.82228 0.747972 -12.7238 -4.48799 0.991264 
-4.08842 0.559329 -4.50218 -3.59381 1.35946 -4.44007 -3.05993 0.736552 -4.66843 
-2.99679 2.226 -4.32712 -2.48174 1.5087 -4.62749 -1.9236 0.804971 -4.85647 
-2.34245 3.21896 -4.3015 -1.80155 2.34801 -4.6531 -1.23337 1.54917 -4.94475 
-0.641762 0.77171 -5.1698 -1.70233 4.21371 -4.30682 -1.10418 3.34117 -4.66653 
-0.478945 2.41276 -5.05089 0.0904966 1.56838 -5.32348 0.68904 0.746229 -5.4039 
-1.11987 5.08399 -4.24286 -0.489767 4.35221 -4.54122 0.226937 3.44449 -4.94449 
0.83743 2.51055 -5.28835 1.3409 1.63678 -5.39017 1.87468 0.787494 -5.28459 
-0.558827 5.90515 -4.17645 0.0502753 5.26673 -4.40705 0.824504 4.4656 -4.70707 
1.53785 3.54001 -5.0159 2.03682 2.60593 -5.13741 2.44497 1.7118 -5.0445 
2.88148 0.855103 -4.88661 0.057634 6.73343 -4.13332 0.62246 6.12921 -4.40659 
1.38676 5.37898 -4.62684 2.17669 4.49081 -4.81824 2.75275 3.55304 -4.87932 
3.1285 2.62844 -4.769 3.47025 1.73685 -4.59872 3.8229 0.89448 -4.47183 
-5.63112 0.728414 -3.85106 -6.1868 1.16094 -3.34266 -5.08582 1.56341 -3.7144 
-6.74553 1.66875 -2.8659 -5.54198 2.06889 -3.09607 -4.44129 2.53601 -3.46193 
-7.34072 2.23275 -2.50487 -6.02985 2.63827 -2.5838 -4.84498 3.09743 -2.85397 
-3.80101 3.60874 -3.39446 -7.84458 2.80437 -2.05839 -6.54144 3.25962 -2.189 
-5.31611 3.66928 -2.39189 -4.23762 4.15455 -2.92211 -3.19795 4.5996 -3.5674 
-8.12149 3.3271 -1.37556 -6.9156 3.89054 -1.65634 -5.76749 4.3007 -1.97102 
-4.73665 4.71037 -2.50443 -3.67547 5.14646 -3.17155 -2.58439 5.46964 -3.69896 
-8.23144 3.80455 -0.646574 -7.10724 4.45635 -0.956509 -6.05046 4.9465 -1.40672 
-5.13314 5.35253 -2.02058 -4.15912 5.78842 -2.6889 -3.0324 6.15806 -3.2444 
-1.93613 6.36386 -3.62806 -8.2929 4.29731 -0.0771032 -7.24475 4.95364 -0.334168 
-6.22238 5.50777 -0.78755 -5.33583 5.96844 -1.43486 -4.46556 6.46171 -2.10838 
-3.42659 6.9299 -2.64895 -2.2889 7.19385 -3.0588 -1.24878 7.25607 -3.41197 
-7.69663 5.80932 0.641462 -7.01416 6.80795 0.900745 -6.76568 6.41806 0.258091 
-6.19188 7.70348 1.29881 -6.04874 7.40954 0.500755 -5.75326 6.92618 -0.201728 
-5.22823 8.31974 1.85556 -5.14887 8.28841 1.01399 -4.92117 7.87394 0.0937239 
-4.69923 7.41232 -0.759181 -4.23811 8.53159 2.32017 -4.14298 8.82976 1.58233 
-3.91399 8.66187 0.605248 -3.69946 8.31098 -0.430828 -3.63596 7.97748 -1.30849 
-3.23448 8.44426 2.52429 -3.1257 8.96214 1.86105 -2.88032 9.10316 0.976772 
-2.61395 8.9477 -0.041011 -2.50887 8.74038 -0.971971 -2.55104 8.45736 -1.73237 
-2.12528 8.28409 2.62941 -2.04427 8.8985 1.95432 -1.86582 9.2954 1.12073 
-1.60286 9.33664 0.200647 -1.40371 9.16979 -0.655569 -1.38031 8.9602 -1.38935 
[...]
POINT_DATA 1002
FIELD FieldData 4
_paraPhi 1 1002 double
6.2831853072 3.1415926536 6.2831853072 3.1415926536 4.7123889804 4.7123889804 1.5707963268 1.5707963268 3.6951670125 
5.7296109483 2.5880182947 0.5535743589 6.2831853072 6.2831853072 6.2831853072 6.2831853072 3.1415926536 3.1415926536 
3.1415926536 3.1415926536 3.1415926536 6.1053039672 5.898798347 5.6768734901 5.4599499503 5.2659633393 5.1032165617 
4.9713148346 4.8656852733 4.7809517865 0.17788134 0.38438696014 0.60631181711 0.82323535693 1.0172219679 1.1799687454 
1.3118704726 1.4175000338 1.5022335207 6.1892828907 6.1070320098 6.035312792 5.9728339911 5.9183214791 5.8706119594 
5.8286879411 5.7916808611 5.7588591896 0.093902416448 0.17615329733 0.2478725152 0.31035131605 0.36486382811 0.41257334776 
0.45449736604 0.4915044461 0.52432611754 3.3194739936 3.5259796137 3.7479044707 3.9648280105 4.1588146215 4.321561399 
4.4534631262 4.5590926874 4.6438261743 2.9637113136 2.7572056934 2.5352808365 2.3183572967 2.1243706857 1.9616239082 
1.829722181 1.7240926197 1.6393591329 3.23549507 3.3177459509 3.3894651688 3.4519439696 3.5064564817 3.5541660013 
3.5960900196 3.6330970997 3.6659187711 3.0476902371 2.9654393563 2.8937201384 2.8312413375 2.7767288255 2.7290193058 
2.6870952876 2.6500882075 2.617266536 6.2831853072 6.2831853072 6.2831853072 6.2831853072 3.1415926536 3.1415926536 
3.1415926536 3.1415926536 3.1415926536 6.1053039672 5.898798347 5.6768734901 5.4599499503 5.2659633393 5.1032165617 
4.9713148346 4.8656852733 4.7809517865 0.17788134 0.38438696014 0.60631181711 0.82323535693 1.0172219679 1.1799687454 
1.3118704726 1.4175000338 1.5022335207 6.1892828907 6.1070320098 6.035312792 5.9728339911 5.9183214791 5.8706119594 
5.8286879411 5.7916808611 5.7588591896 0.093902416448 0.17615329733 0.2478725152 0.31035131605 0.36486382811 0.41257334776 
0.45449736604 0.4915044461 0.52432611754 3.3194739936 3.5259796137 3.7479044707 3.9648280105 4.1588146215 4.321561399 
4.4534631262 4.5590926874 4.6438261743 2.9637113136 2.7572056934 2.5352808365 2.3183572967 2.1243706857 1.9616239082 
1.829722181 1.7240926197 1.6393591329 3.23549507 3.3177459509 3.3894651688 3.4519439696 3.5064564817 3.5541660013 
3.5960900196 3.6330970997 3.6659187711 3.0476902371 2.9654393563 2.8937201384 2.8312413375 2.7767288255 2.7290193058 
2.6870952876 2.6500882075 2.617266536 4.7123889804 4.7123889804 4.7123889804 4.7123889804 4.7123889804 4.7123889804 
4.7123889804 4.7123889804 4.7123889804 4.6087898617 4.4991390697 4.3857031936 4.2712800401 4.1588146215 4.0509635631 
3.94975894 3.8564636551 3.7716124825 4.8159880991 4.9256388911 5.0390747672 5.1534979207 5.2659633393 5.3738143976 
5.4750190208 5.5683143056 5.6531654782 4.6087898617 4.4991390697 4.3857031936 4.2712800401 4.1588146215 4.0509635631 
3.94975894 3.8564636551 3.7716124825 4.8159880991 4.9256388911 5.0390747672 5.1534979207 5.2659633393 5.3738143976 
5.4750190208 5.5683143056 5.6531654782 1.5707963268 1.5707963268 1.5707963268 1.5707963268 1.5707963268 1.5707963268 
1.5707963268 1.5707963268 1.5707963268 1.6743954455 1.7840462375 1.8974821136 2.0119052671 2.1243706857 2.232221744 
2.3334263672 2.426721652 2.5115728246 1.4671972081 1.3575464161 1.24411054 1.1296873865 1.0172219679 0.90937090954 
0.80816628637 0.71487100155 0.63001982895 1.6743954455 1.7840462375 1.8974821136 2.0119052671 2.1243706857 2.232221744 
2.3334263672 2.426721652 2.5115728246 1.4671972081 1.3575464161 1.24411054 1.1296873865 1.0172219679 0.90937090954 
0.80816628637 0.71487100155 0.63001982895 3.6007720849 3.4966939854 3.3839471039 3.2645756454 3.1415926536 3.0186096618 
2.8992382033 2.7864913217 2.6824132222 5.8240058758 5.9280839753 6.0408308569 6.1602023154 6.2831853072 0.12298299178 
0.2423544503 0.35510133185 0.45917943135 6.0560271438 5.7885595667 5.9702140275 5.5125918794 5.6029703303 5.7885595667 
5.2659633393 5.2659633393 5.2659633393 5.2659633393 5.0674903122 5.0120975802 4.9155579264 4.7123889804 4.1588146215 
4.9155579264 4.8353719722 4.7123889804 4.5092200343 4.1588146215 3.6362183941 4.8004512023 4.7123889804 4.5894059886 
4.4126803806 4.1588146215 3.8218076305 3.4545639333 4.7123889804 4.6243267584 4.5092200343 4.3572876485 4.1588146215 
3.9121860814 3.6362183941 3.368750817 6.0174235957 5.9434319871 5.8263323547 5.8809213739 5.7674481418 5.6279784266 
5.8278025282 5.718968232 5.5891129425 5.4372443565 5.7823484065 5.678536687 5.5575666702 5.4192596322 5.2659633393 
5.743164462 5.6444075337 5.5314983644 5.4046708639 5.2659633393 5.1195510325 5.7091357773 5.6152775188 5.5096229709 
5.3926039573 5.2659633393 5.1329233157 4.9978930058 5.6793730533 5.5901633916 5.4910209005 5.3824597928 5.2659633393 
5.1440684722 5.0201624502 4.8979782167 5.5683143056 5.4750190208 5.4750190208 5.3738143976 5.3738143976 5.3738143976 
5.2659633393 5.2659633393 5.2659633393 5.2659633393 5.1534979207 5.1534979207 5.1534979207 5.1534979207 5.1534979207 
5.0390747672 5.0390747672 5.0390747672 5.0390747672 5.0390747672 5.0390747672 4.9256388911 4.9256388911 4.9256388911 
4.9256388911 4.9256388911 4.9256388911 4.9256388911 4.8159880991 4.8159880991 4.8159880991 4.8159880991 4.8159880991 
4.8159880991 4.8159880991 4.8159880991 4.6087898617 4.6087898617 4.4991390697 4.6087898617 4.4991390697 4.3857031936 
4.6087898617 4.4991390697 4.3857031936 4.2712800401 4.6087898617 4.4991390697 4.3857031936 4.2712800401 4.1588146215 
4.6087898617 4.4991390697 4.3857031936 4.2712800401 4.1588146215 4.0509635631 4.6087898617 4.4991390697 4.3857031936 
4.2712800401 4.1588146215 4.0509635631 3.94975894 4.6087898617 4.4991390697 4.3857031936 4.2712800401 4.1588146215 
4.0509635631 3.94975894 3.8564636551 4.526799744 4.4046155105 4.426884955 4.2807094886 4.2918546451 4.3052269283 
4.1588146215 4.1588146215 4.1588146215 4.1588146215 4.042318168 4.0321740035 4.0201070968 4.0055183285 3.9875336042 
3.9337570603 3.9151549899 3.8932795963 3.8672112905 3.8356650183 3.7967995342 3.8346145692 3.809500442 3.7803704271 
3.7462412737 3.7058097288 3.657329819 3.5984456061 3.7454049075 3.7156421835 3.6816134988 3.6424295543 3.5969754326 
3.5438565869 3.4813459737 3.4073543651 3.5642842451 3.4524645613 3.5233842518 3.3320300872 3.403123212 3.4773852225 
3.20576226 3.2746326772 3.348015857 3.4255060145 3.0774230472 3.1415926536 3.2112816139 3.2864685043 3.3668817272 
2.95115522 3.00855263 3.0719036933 3.1415926536 3.2178377658 3.3005964304 2.8307207459 2.8800620952 2.9351694502 
2.9967168029 3.0653475414 3.1415926536 3.225752376 2.718901062 2.7598010554 2.8058000847 2.8576792927 2.91630358 
2.9825888767 3.0574329311 3.1415926536 3.5642842451 3.5233842518 3.4524645613 3.4773852225 3.403123212 3.3320300872 
3.4255060145 3.348015857 3.2746326772 3.20576226 3.3668817272 3.2864685043 3.2112816139 3.1415926536 3.0774230472 
3.3005964304 3.2178377658 3.1415926536 3.0719036933 3.00855263 2.95115522 3.225752376 3.1415926536 3.0653475414 
2.9967168029 2.9351694502 2.8800620952 2.8307207459 3.1415926536 3.0574329311 2.9825888767 2.91630358 2.8576792927 
2.8058000847 2.7598010554 2.718901062 4.526799744 4.426884955 4.4046155105 4.3052269283 4.2918546451 4.2807094886 
4.1588146215 4.1588146215 4.1588146215 4.1588146215 3.9875336042 4.0055183285 4.0201070968 4.0321740035 4.042318168 
3.7967995342 3.8356650183 3.8672112905 3.8932795963 3.9151549899 3.9337570603 3.5984456061 3.657329819 3.7058097288 
3.7462412737 3.7803704271 3.809500442 3.8346145692 3.4073543651 3.4813459737 3.5438565869 3.5969754326 3.6424295543 
3.6816134988 3.7156421835 3.7454049075 4.7123889804 4.8004512023 4.6243267584 4.9155579264 4.7123889804 4.5092200343 
5.0674903122 4.8353719722 4.5894059886 4.3572876485 5.2659633393 5.0120975802 4.7123889804 4.4126803806 4.1588146215 
5.5125918794 5.2659633393 4.9155579264 4.5092200343 4.1588146215 3.9121860814 5.7885595667 5.6029703303 5.2659633393 
4.7123889804 4.1588146215 3.8218076305 3.6362183941 6.0560271438 5.9702140275 5.7885595667 5.2659633393 4.1588146215 
3.6362183941 3.4545639333 3.368750817 0.22715816343 0.49462574053 0.3129712797 0.77059342779 0.68021497688 0.49462574053 
1.0172219679 1.0172219679 1.0172219679 1.0172219679 1.2156949949 1.271087727 1.3676273807 1.5707963268 2.1243706857 
1.3676273807 1.447813335 1.5707963268 1.7739652728 2.1243706857 2.6469669131 1.4827341049 1.5707963268 1.6937793186 
1.8705049266 2.1243706857 2.4613776767 2.8286213739 1.5707963268 1.6588585487 1.7739652728 1.9258976586 2.1243706857 
2.3709992258 2.6469669131 2.9144344902 1.7563855631 1.8785697967 1.8563003522 2.0024758186 1.9913306621 1.9779583789 
2.1243706857 2.1243706857 2.1243706857 2.1243706857 2.2408671392 2.2510113037 2.2630782103 2.2776669786 2.295651703 
2.3494282469 2.3680303173 2.3899057108 2.4159740166 2.4475202889 2.486385773 2.448570738 2.4736848652 2.5028148801 
2.5369440334 2.5773755784 2.6258554882 2.6847397011 2.5377803997 2.5675431237 2.6015718084 2.6407557529 2.6862098746 
2.7393287203 2.8018393335 2.8758309421 1.6743954455 1.6743954455 1.7840462375 1.6743954455 1.7840462375 1.8974821136 
1.6743954455 1.7840462375 1.8974821136 2.0119052671 1.6743954455 1.7840462375 1.8974821136 2.0119052671 2.1243706857 
1.6743954455 1.7840462375 1.8974821136 2.0119052671 2.1243706857 2.232221744 1.6743954455 1.7840462375 1.8974821136 
2.0119052671 2.1243706857 2.232221744 2.3334263672 1.6743954455 1.7840462375 1.8974821136 2.0119052671 2.1243706857 
2.232221744 2.3334263672 2.426721652 1.4671972081 1.3575464161 1.4671972081 1.24411054 1.3575464161 1.4671972081 
1.1296873865 1.24411054 1.3575464161 1.4671972081 1.0172219679 1.1296873865 1.24411054 1.3575464161 1.4671972081 
0.90937090954 1.0172219679 1.1296873865 1.24411054 1.3575464161 1.4671972081 0.80816628637 0.90937090954 1.0172219679 
1.1296873865 1.24411054 1.3575464161 1.4671972081 0.71487100155 0.80816628637 0.90937090954 1.0172219679 1.1296873865 
1.24411054 1.3575464161 1.4671972081 0.60381225391 0.57404952988 0.69302191562 0.54002084522 0.66790778838 0.79216440667 
0.50083690068 0.63877777351 0.77356233629 0.90072551443 0.45538277901 0.60464862014 0.75168694275 0.89058134991 1.0172219679 
0.40226393329 0.56421707518 0.72561863695 0.87851444325 1.0172219679 1.139116835 0.33975332011 0.51573716537 0.69407236469 
0.86392567495 1.0172219679 1.1502619915 1.2630228569 0.26576171152 0.45685295248 0.6552068806 0.84594095064 1.0172219679 
1.1636342747 1.2852923014 1.3852070904 0.22715816343 0.3129712797 0.49462574053 0.49462574053 0.68021497688 0.77059342779 
1.0172219679 1.0172219679 1.0172219679 1.0172219679 2.1243706857 1.5707963268 1.3676273807 1.271087727 1.2156949949 
2.6469669131 2.1243706857 1.7739652728 1.5707963268 1.447813335 1.3676273807 2.8286213739 2.4613776767 2.1243706857 
1.8705049266 1.6937793186 1.5707963268 1.4827341049 2.9144344902 2.6469669131 2.3709992258 2.1243706857 1.9258976586 
1.7739652728 1.6588585487 1.5707963268 1.7563855631 1.8563003522 1.8785697967 1.9779583789 1.9913306621 2.0024758186 
2.1243706857 2.1243706857 2.1243706857 2.1243706857 2.295651703 2.2776669786 2.2630782103 2.2510113037 2.2408671392 
2.486385773 2.4475202889 2.4159740166 2.3899057108 2.3680303173 2.3494282469 2.6847397011 2.6258554882 2.5773755784 
2.5369440334 2.5028148801 2.4736848652 2.448570738 2.8758309421 2.8018393335 2.7393287203 2.6862098746 2.6407557529 
2.6015718084 2.5675431237 2.5377803997 5.8604937156 5.901393709 5.9723133995 5.9473927383 6.0216547488 6.0927478736 
5.9992719463 6.0767621038 6.1501452836 6.2190157008 6.0578962336 6.1383094565 6.2134963469 0 0.064169606361 
6.1241815303 6.206940195 6.2831853072 0.069688960264 0.13304002361 0.19043743361 6.1990255847 0 0.07624511221 
0.14487585072 0.20642320337 0.26153055843 0.3108719077 0 0.084159722458 0.15900377685 0.22528907359 0.28391336087 
0.3357925689 0.38179159818 0.42269159155 5.8604937156 5.9723133995 5.901393709 6.0927478736 6.0216547488 5.9473927383 
6.2190157008 6.1501452836 6.0767621038 5.9992719463 0.064169606361 0 6.2134963469 6.1383094565 6.0578962336 
0.19043743361 0.13304002361 0.069688960264 6.2831853072 6.206940195 6.1241815303 0.3108719077 0.26153055843 0.20642320337 
0.14487585072 0.07624511221 6.2831853072 6.1990255847 0.42269159155 0.38179159818 0.3357925689 0.28391336087 0.22528907359 
0.15900377685 0.084159722458 0 5.6793730533 5.7091357773 5.5901633916 5.743164462 5.6152775188 5.4910209005 
5.7823484065 5.6444075337 5.5096229709 5.3824597928 5.8278025282 5.678536687 5.5314983644 5.3926039573 5.2659633393 
5.8809213739 5.718968232 5.5575666702 5.4046708639 5.2659633393 5.1440684722 5.9434319871 5.7674481418 5.5891129425 
5.4192596322 5.2659633393 5.1329233157 5.0201624502 6.0174235957 5.8263323547 5.6279784266 5.4372443565 5.2659633393 
5.1195510325 4.9978930058 4.8979782167 1.3852070904 1.2852923014 1.2630228569 1.1636342747 1.1502619915 1.139116835 
1.0172219679 1.0172219679 1.0172219679 1.0172219679 0.84594095064 0.86392567495 0.87851444325 0.89058134991 0.90072551443 
0.6552068806 0.69407236469 0.72561863695 0.75168694275 0.77356233629 0.79216440667 0.45685295248 0.51573716537 0.56421707518 
0.60464862014 0.63877777351 0.66790778838 0.69302191562 0.26576171152 0.33975332011 0.40226393329 0.45538277901 0.50083690068 
0.54002084522 0.57404952988 0.60381225391 
_paraPhiHalf 1 1002 double
0 3.1415926536 0 3.1415926536 1.5707963268 1.5707963268 1.5707963268 1.5707963268 2.5880182947 
0.5535743589 2.5880182947 0.5535743589 0 0 0 0 3.1415926536 3.1415926536 
3.1415926536 3.1415926536 3.1415926536 0.17788134 0.38438696014 0.60631181711 0.82323535693 1.0172219679 1.1799687454 
1.3118704726 1.4175000338 1.5022335207 0.17788134 0.38438696014 0.60631181711 0.82323535693 1.0172219679 1.1799687454 
1.3118704726 1.4175000338 1.5022335207 0.093902416448 0.17615329733 0.2478725152 0.31035131605 0.36486382811 0.41257334776 
0.45449736604 0.4915044461 0.52432611754 0.093902416448 0.17615329733 0.2478725152 0.31035131605 0.36486382811 0.41257334776 
0.45449736604 0.4915044461 0.52432611754 2.9637113136 2.7572056934 2.5352808365 2.3183572967 2.1243706857 1.9616239082 
1.829722181 1.7240926197 1.6393591329 2.9637113136 2.7572056934 2.5352808365 2.3183572967 2.1243706857 1.9616239082 
1.829722181 1.7240926197 1.6393591329 3.0476902371 2.9654393563 2.8937201384 2.8312413375 2.7767288255 2.7290193058 
2.6870952876 2.6500882075 2.617266536 3.0476902371 2.9654393563 2.8937201384 2.8312413375 2.7767288255 2.7290193058 
2.6870952876 2.6500882075 2.617266536 0 0 0 0 3.1415926536 3.1415926536 
3.1415926536 3.1415926536 3.1415926536 0.17788134 0.38438696014 0.60631181711 0.82323535693 1.0172219679 1.1799687454 
1.3118704726 1.4175000338 1.5022335207 0.17788134 0.38438696014 0.60631181711 0.82323535693 1.0172219679 1.1799687454 
1.3118704726 1.4175000338 1.5022335207 0.093902416448 0.17615329733 0.2478725152 0.31035131605 0.36486382811 0.41257334776 
0.45449736604 0.4915044461 0.52432611754 0.093902416448 0.17615329733 0.2478725152 0.31035131605 0.36486382811 0.41257334776 
0.45449736604 0.4915044461 0.52432611754 2.9637113136 2.7572056934 2.5352808365 2.3183572967 2.1243706857 1.9616239082 
1.829722181 1.7240926197 1.6393591329 2.9637113136 2.7572056934 2.5352808365 2.3183572967 2.1243706857 1.9616239082 
1.829722181 1.7240926197 1.6393591329 3.0476902371 2.9654393563 2.8937201384 2.8312413375 2.7767288255 2.7290193058 
2.6870952876 2.6500882075 2.617266536 3.0476902371 2.9654393563 2.8937201384 2.8312413375 2.7767288255 2.7290193058 
2.6870952876 2.6500882075 2.617266536 1.5707963268 1.5707963268 1.5707963268 1.5707963268 1.5707963268 1.5707963268 
1.5707963268 1.5707963268 1.5707963268 1.6743954455 1.7840462375 1.8974821136 2.0119052671 2.1243706857 2.232221744 
2.3334263672 2.426721652 2.5115728246 1.4671972081 1.3575464161 1.24411054 1.1296873865 1.0172219679 0.90937090954 
0.80816628637 0.71487100155 0.63001982895 1.6743954455 1.7840462375 1.8974821136 2.0119052671 2.1243706857 2.232221744 
2.3334263672 2.426721652 2.5115728246 1.4671972081 1.3575464161 1.24411054 1.1296873865 1.0172219679 0.90937090954 
0.80816628637 0.71487100155 0.63001982895 1.5707963268 1.5707963268 1.5707963268 1.5707963268 1.5707963268 1.5707963268 
1.5707963268 1.5707963268 1.5707963268 1.6743954455 1.7840462375 1.8974821136 2.0119052671 2.1243706857 2.232221744 
2.3334263672 2.426721652 2.5115728246 1.4671972081 1.3575464161 1.24411054 1.1296873865 1.0172219679 0.90937090954 
0.80816628637 0.71487100155 0.63001982895 1.6743954455 1.7840462375 1.8974821136 2.0119052671 2.1243706857 2.232221744 
2.3334263672 2.426721652 2.5115728246 1.4671972081 1.3575464161 1.24411054 1.1296873865 1.0172219679 0.90937090954 
0.80816628637 0.71487100155 0.63001982895 2.6824132222 2.7864913217 2.8992382033 3.0186096618 3.1415926536 3.0186096618 
2.8992382033 2.7864913217 2.6824132222 0.45917943135 0.35510133185 0.2423544503 0.12298299178 0 0.12298299178 
0.2423544503 0.35510133185 0.45917943135 0.22715816343 0.49462574053 0.3129712797 0.77059342779 0.68021497688 0.49462574053 
1.0172219679 1.0172219679 1.0172219679 1.0172219679 1.2156949949 1.271087727 1.3676273807 1.5707963268 2.1243706857 
1.3676273807 1.447813335 1.5707963268 1.7739652728 2.1243706857 2.6469669131 1.4827341049 1.5707963268 1.6937793186 
1.8705049266 2.1243706857 2.4613776767 2.8286213739 1.5707963268 1.6588585487 1.7739652728 1.9258976586 2.1243706857 
2.3709992258 2.6469669131 2.9144344902 0.26576171152 0.33975332011 0.45685295248 0.40226393329 0.51573716537 0.6552068806 
0.45538277901 0.56421707518 0.69407236469 0.84594095064 0.50083690068 0.60464862014 0.72561863695 0.86392567495 1.0172219679 
0.54002084522 0.63877777351 0.75168694275 0.87851444325 1.0172219679 1.1636342747 0.57404952988 0.66790778838 0.77356233629 
0.89058134991 1.0172219679 1.1502619915 1.2852923014 0.60381225391 0.69302191562 0.79216440667 0.90072551443 1.0172219679 
1.139116835 1.2630228569 1.3852070904 0.71487100155 0.80816628637 0.80816628637 0.90937090954 0.90937090954 0.90937090954 
1.0172219679 1.0172219679 1.0172219679 1.0172219679 1.1296873865 1.1296873865 1.1296873865 1.1296873865 1.1296873865 
1.24411054 1.24411054 1.24411054 1.24411054 1.24411054 1.24411054 1.3575464161 1.3575464161 1.3575464161 
1.3575464161 1.3575464161 1.3575464161 1.3575464161 1.4671972081 1.4671972081 1.4671972081 1.4671972081 1.4671972081 
1.4671972081 1.4671972081 1.4671972081 1.6743954455 1.6743954455 1.7840462375 1.6743954455 1.7840462375 1.8974821136 
1.6743954455 1.7840462375 1.8974821136 2.0119052671 1.6743954455 1.7840462375 1.8974821136 2.0119052671 2.1243706857 
1.6743954455 1.7840462375 1.8974821136 2.0119052671 2.1243706857 2.232221744 1.6743954455 1.7840462375 1.8974821136 
2.0119052671 2.1243706857 2.232221744 2.3334263672 1.6743954455 1.7840462375 1.8974821136 2.0119052671 2.1243706857 
2.232221744 2.3334263672 2.426721652 1.7563855631 1.8785697967 1.8563003522 2.0024758186 1.9913306621 1.9779583789 
2.1243706857 2.1243706857 2.1243706857 2.1243706857 2.2408671392 2.2510113037 2.2630782103 2.2776669786 2.295651703 
2.3494282469 2.3680303173 2.3899057108 2.4159740166 2.4475202889 2.486385773 2.448570738 2.4736848652 2.5028148801 
2.5369440334 2.5773755784 2.6258554882 2.6847397011 2.5377803997 2.5675431237 2.6015718084 2.6407557529 2.6862098746 
2.7393287203 2.8018393335 2.8758309421 2.718901062 2.8307207459 2.7598010554 2.95115522 2.8800620952 2.8058000847 
3.0774230472 3.00855263 2.9351694502 2.8576792927 3.0774230472 3.1415926536 3.0719036933 2.9967168029 2.91630358 
2.95115522 3.00855263 3.0719036933 3.1415926536 3.0653475414 2.9825888767 2.8307207459 2.8800620952 2.9351694502 
2.9967168029 3.0653475414 3.1415926536 3.0574329311 2.718901062 2.7598010554 2.8058000847 2.8576792927 2.91630358 
2.9825888767 3.0574329311 3.1415926536 2.718901062 2.7598010554 2.8307207459 2.8058000847 2.8800620952 2.95115522 
2.8576792927 2.9351694502 3.00855263 3.0774230472 2.91630358 2.9967168029 3.0719036933 3.1415926536 3.0774230472 
2.9825888767 3.0653475414 3.1415926536 3.0719036933 3.00855263 2.95115522 3.0574329311 3.1415926536 3.0653475414 