# vtk DataFile Version 5.1
vtk output
ASCII
DATASET POLYDATA
POINTS 100 float
8.07624 26.9897 17.3392 8.09298 27.0072 17.3247 8.14236 27.0606 17.2881 
8.22405 27.1463 17.2312 8.33745 27.2593 17.1565 8.48159 27.3932 17.0673 
8.65508 27.5411 16.9674 8.85606 27.6963 16.8604 9.08216 27.8532 16.7499 
9.33049 28.0073 16.6389 9.59772 28.1561 16.5298 9.88018 28.299 16.4239 
10.174 28.437 16.322 10.4753 28.5727 16.2238 10.7804 28.7094 16.1284 
11.086 28.8508 16.0345 11.3892 29.0003 15.9407 11.6879 29.1606 15.8452 
11.9807 29.3329 15.7468 12.2667 29.5173 15.6446 12.5459 29.7126 15.5381 
12.8186 29.9164 15.4276 13.0855 30.1255 15.3136 13.3475 30.3367 15.1975 
13.6056 30.5469 15.0805 13.8605 30.7536 14.9643 14.1129 30.9556 14.8503 
14.3632 31.1526 14.7396 14.6115 31.3456 14.6332 14.8577 31.5366 14.5313 
15.1016 31.7282 14.4338 15.3431 31.9231 14.34 15.582 32.1239 14.2488 
15.8185 32.3324 14.1587 16.0528 32.5493 14.0684 16.2855 32.7743 13.9762 
16.5171 33.006 13.8808 16.7486 33.2418 13.7814 16.9807 33.4786 13.6772 
17.2139 33.7132 13.5681 17.4488 33.9425 13.4544 17.6855 34.1643 13.3368 
17.9238 34.3774 13.2163 18.1632 34.5819 13.0942 18.4031 34.779 12.9719 
18.6426 34.9714 12.8506 18.8808 35.1621 12.7316 19.1172 35.355 12.6159 
19.3511 35.5535 12.5043 19.5827 35.7606 12.3972 19.8122 35.9782 12.2951 
20.0403 36.2071 12.1978 20.2679 36.4465 12.1054 20.4962 36.6945 12.0176 
20.7263 36.9484 11.9342 20.959 37.2044 11.855 21.1949 37.4589 11.7801 
21.4341 37.7086 11.7093 21.6759 37.9508 11.6429 21.9193 38.1838 11.581 
22.1626 38.4073 11.5241 22.4039 38.622 11.4723 22.641 38.8298 11.426 
22.8718 39.0332 11.3854 23.0947 39.2348 11.3505 23.3083 39.4375 11.321 
23.5121 39.6433 11.2968 23.7063 39.8534 11.277 23.892 40.0681 11.2609 
24.0706 40.2865 11.2476 24.2443 40.5068 11.2358 24.4154 40.7266 11.2243 
24.5863 40.943 11.2119 24.7589 41.1532 11.1974 24.9347 41.355 11.1799 
25.1145 41.5466 11.1585 25.2982 41.7275 11.1327 25.4849 41.8978 11.1024 
25.673 42.0588 11.0679 25.8603 42.212 11.0295 26.0441 42.3596 10.9883 
26.2218 42.5035 10.9453 26.3907 42.6454 10.902 26.5486 42.786 10.8599 
26.6937 42.9254 10.8205 26.8251 43.0627 10.7853 26.9422 43.1962 10.7554 
27.0452 43.3235 10.7319 27.135 43.4422 10.7153 27.2125 43.5497 10.7057 
27.2791 43.6439 10.7028 27.3361 43.7236 10.7061 27.3848 43.7882 10.7142 
27.4261 43.8382 10.7261 27.4608 43.8751 10.7399 27.4893 43.9008 10.7543 
27.512 43.9178 10.7677 27.5288 43.9282 10.7787 27.5396 43.9342 10.7864 
27.5444 43.937 10.7901 
LINES 2 100
OFFSETS vtktypeint64
0 100 
CONNECTIVITY vtktypeint64
0 1 2 3 4 5 6 7 8 
9 10 11 12 13 14 15 16 17 
18 19 20 21 22 23 24 25 26 
27 28 29 30 31 32 33 34 35 
36 37 38 39 40 41 42 43 44 
45 46 47 48 49 50 51 52 53 
54 55 56 57 58 59 60 61 62 
63 64 65 66 67 68 69 70 71 
72 73 74 75 76 77 78 79 80 
81 82 83 84 85 86 87 88 89 
90 91 92 93 94 95 96 97 98 
99 
POINT_DATA 100
FIELD FieldData 3
_theta 1 100 double
0 0.031733259127 0.063466518254 0.095199777382 0.12693303651 0.15866629564 0.19039955476 0.22213281389 0.25386607302 
0.28559933214 0.31733259127 0.3490658504 0.38079910953 0.41253236865 0.44426562778 0.47599888691 0.50773214603 0.53946540516 
0.57119866429 0.60293192342 0.63466518254 0.66639844167 0.6981317008 0.72986495992 0.76159821905 0.79333147818 0.82506473731 
0.85679799643 0.88853125556 0.92026451469 0.95199777382 0.98373103294 1.0154642921 1.0471975512 1.0789308103 1.1106640695 
1.1423973286 1.1741305877 1.2058638468 1.237597106 1.2693303651 1.3010636242 1.3327968833 1.3645301425 1.3962634016 
1.4279966607 1.4597299198 1.491463179 1.5231964381 1.5549296972 1.5866629564 1.6183962155 1.6501294746 1.6818627337 
1.7135959929 1.745329252 1.7770625111 1.8087957702 1.8405290294 1.8722622885 1.9039955476 1.9357288068 1.9674620659 
1.999195325 2.0309285841 2.0626618433 2.0943951024 2.1261283615 2.1578616206 2.1895948798 2.2213281389 2.253061398 
2.2847946572 2.3165279163 2.3482611754 2.3799944345 2.4117276937 2.4434609528 2.4751942119 2.506927471 2.5386607302 
2.5703939893 2.6021272484 2.6338605076 2.6655937667 2.6973270258 2.7290602849 2.7607935441 2.7925268032 2.8242600623 
2.8559933214 2.8877265806 2.9194598397 2.9511930988 2.982926358 3.0146596171 3.0463928762 3.0781261353 3.1098593945 
3.1415926536 
_radius 1 100 double
3.2802534578e-14 0.29703210708 0.59099474989 0.87908867928 1.1589454115 1.4286979257 1.686950417 1.932687313 2.1651780419 
2.3839270988 2.5886932424 2.7795699123 2.9570949548 3.1223476326 3.2769927132 3.423240927 3.5637100181 3.7011901692 
3.8383397985 3.9773581882 4.1196939226 4.265845971 4.4152939981 4.5665629936 4.7174009188 4.8650378525 5.0064967152 
5.1389274313 5.2599328465 5.3678493583 5.4619447696 5.5425039718 5.6107883223 5.6688723349 5.7193769651 5.7651304116 
5.8087962494 5.8525167079 5.8976243342 5.9444719114 5.9924131461 6.0399378766 6.0849354846 6.1250389803 6.157994114 
6.1820011154 6.1959868587 6.1997778914 6.194156776 6.1807949334 6.1620662495 6.1407590539 6.1197195172 6.101474025 
6.0878872529 6.0799124997 6.0774785528 6.0795323912 6.0842236715 6.0891858708 6.0918528225 6.0897543202 6.0807551702 
6.0632251561 6.0361407301 5.9991202784 5.9523904255 5.8966799932 5.8330453762 5.7626449996 5.6864960953 5.6052576708 
5.5190837518 5.427578703 5.329863973 5.2247390192 5.1108964877 4.9871406457 4.8525628252 4.7066464302 4.5492987656 
4.3808267963 4.2018813406 4.0133885597 3.8164740961 3.6123708834 3.4022932659 3.1872639087 2.9679001348 2.7441999066 
2.51540041 2.2799912406 2.0359323271 1.7810602443 1.5135970096 1.2326379425 0.93850326768 0.63287973592 0.31873088416 
4.5608436945e-14 
_area 1 100 double
0 0.21841458892 0.88220594141 2.0115561786 3.6242920342 5.7192148508 8.2630819191 11.185566147 14.383709063 
17.734927887 21.115781677 24.422397999 27.587883721 30.592525291 33.464232404 36.269143773 39.094919941 42.031217975 
45.152407827 48.506314985 52.110154394 55.952292391 59.997291222 64.191859522 68.470074843 72.757193883 76.972573314 
81.033321895 84.860513623 88.388590005 91.575821742 94.409982777 96.903974407 99.088398109 101.01321328 102.75105308 
104.38863912 106.00774553 107.66559796 109.38238033 111.1375227 112.87294001 114.50266724 115.92871608 117.05943511 
117.82494524 118.1871632 118.14232342 117.70834478 116.94777692 115.93825838 114.68728547 113.28075537 111.8321415 
110.44568131 109.2018131 108.16667132 107.40123621 106.92620173 106.67506333 106.47890859 106.16069255 105.60156001 
104.73813013 103.55151925 102.05563756 100.28446953 98.280638767 96.086647361 93.738893135 91.264453147 88.680296771 
85.993877192 83.203579931 80.298382337 77.259046277 74.064012944 70.697615144 67.155257036 63.443512108 59.576597453 
55.573233529 51.456760378 47.257369271 43.013222004 38.768536651 34.569141399 30.457502444 26.46932103 22.632914461 
18.971551564 15.508116733 12.270751007 9.2974579619 6.63760017 4.3491893516 2.4925981779 1.1228501399 0.28299434849 
4.9208519212e-13 
