# vtk DataFile Version 5.1
vtk output
ASCII
DATASET POLYDATA
POINTS 100 float
12.394 32.9448 15.4403 12.4089 32.9537 15.4399 12.4548 32.9798 15.4323 
12.5303 33.0232 15.4178 12.6332 33.0834 15.3968 12.7604 33.1602 15.3697 
12.9086 33.2529 15.3372 13.0739 33.3603 15.2996 13.2526 33.4813 15.2573 
13.441 33.614 15.2104 13.636 33.7564 15.1587 13.8349 33.9061 15.1021 
14.0359 34.0608 15.0402 14.2376 34.218 14.9726 14.4394 34.3754 14.8991 
14.6413 34.5312 14.8197 14.8439 34.6839 14.7347 15.0477 34.833 14.6448 
15.2538 34.9782 14.551 15.4628 35.1203 14.4548 15.6754 35.2605 14.358 
15.8918 35.4007 14.2623 16.1119 35.543 14.1696 16.3351 35.6898 14.0815 
16.5605 35.8434 13.9995 16.7869 36.0061 13.9243 17.0129 36.1796 13.8563 
17.2371 36.365 13.7951 17.4582 36.5631 13.7398 17.6752 36.7739 13.6891 
17.8874 36.9969 13.6414 18.0942 37.2313 13.5947 18.2959 37.4757 13.5474 
18.4926 37.7287 13.4978 18.685 37.9888 13.4449 18.8737 38.2547 13.3879 
19.0597 38.525 13.3267 19.2435 38.7989 13.2617 19.4257 39.0756 13.1936 
19.6066 39.3546 13.1234 19.7864 39.6354 13.0525 19.9651 39.9179 12.9819 
20.1424 40.2015 12.9125 20.3182 40.4858 12.845 20.4923 40.7701 12.7793 
20.6648 41.0535 12.7151 20.836 41.3349 12.6516 21.0063 41.6131 12.5878 
21.1766 41.8866 12.5222 21.3477 42.1543 12.4536 21.5207 42.4149 12.3809 
21.6964 42.6676 12.3033 21.8756 42.9118 12.2204 22.0587 43.1476 12.1325 
22.2455 43.3753 12.0403 22.4357 43.5957 11.9449 22.6284 43.81 11.848 
22.8222 44.0196 11.7511 23.0158 44.226 11.6561 23.2076 44.4308 11.5643 
23.3966 44.6352 11.4769 23.5819 44.8403 11.3945 23.7631 45.0466 11.3172 
23.9408 45.2544 11.2446 24.1159 45.4633 11.1757 24.29 45.6726 11.1094 
24.4651 45.8813 11.0445 24.6434 46.088 10.9798 24.8266 46.2914 10.9146 
25.0164 46.4901 10.8485 25.2132 46.6831 10.7818 25.4167 46.8694 10.7156 
25.6253 47.0486 10.6514 25.8366 47.2206 10.5913 26.0469 47.3855 10.5377 
26.2521 47.544 10.4929 26.4477 47.697 10.4591 26.6294 47.8453 10.438 
26.7937 47.9901 10.4304 26.9383 48.1323 10.4361 27.0621 48.2724 10.4541 
27.1658 48.4111 10.4822 27.2521 48.5485 10.5173 27.3248 48.6843 10.5557 
27.3891 48.8181 10.5932 27.4509 48.949 10.6254 27.5162 49.076 10.6486 
27.5904 49.198 10.6594 27.6778 49.3137 10.6557 27.7807 49.4221 10.6364 
27.8995 49.5221 10.6018 28.0324 49.6127 10.5538 28.1753 49.6933 10.4953 
28.3222 49.7633 10.4302 28.4657 49.8225 10.3632 28.5977 49.8708 10.2992 
28.7103 49.908 10.2432 28.796 49.9342 10.1994 28.8493 49.9494 10.1711 
28.8665 49.9539 10.1604 
LINES 2 100
OFFSETS vtktypeint64
0 100 
CONNECTIVITY vtktypeint64
0 1 2 3 4 5 6 7 8 
9 10 11 12 13 14 15 16 17 
18 19 20 21 22 23 24 25 26 
27 28 29 30 31 32 33 34 35 
36 37 38 39 40 41 42 43 44 
45 46 47 48 49 50 51 52 53 
54 55 56 57 58 59 60 61 62 
63 64 65 66 67 68 69 70 71 
72 73 74 75 76 77 78 79 80 
81 82 83 84 85 86 87 88 89 
90 91 92 93 94 95 96 97 98 
99 
POINT_DATA 100
FIELD FieldData 3
_theta 1 100 double
0 0.031733259127 0.063466518254 0.095199777382 0.12693303651 0.15866629564 0.19039955476 0.22213281389 0.25386607302 
0.28559933214 0.31733259127 0.3490658504 0.38079910953 0.41253236865 0.44426562778 0.47599888691 0.50773214603 0.53946540516 
0.57119866429 0.60293192342 0.63466518254 0.66639844167 0.6981317008 0.72986495992 0.76159821905 0.79333147818 0.82506473731 
0.85679799643 0.88853125556 0.92026451469 0.95199777382 0.98373103294 1.0154642921 1.0471975512 1.0789308103 1.1106640695 
1.1423973286 1.1741305877 1.2058638468 1.237597106 1.2693303651 1.3010636242 1.3327968833 1.3645301425 1.3962634016 
1.4279966607 1.4597299198 1.491463179 1.5231964381 1.5549296972 1.5866629564 1.6183962155 1.6501294746 1.6818627337 
1.7135959929 1.745329252 1.7770625111 1.8087957702 1.8405290294 1.8722622885 1.9039955476 1.9357288068 1.9674620659 
1.999195325 2.0309285841 2.0626618433 2.0943951024 2.1261283615 2.1578616206 2.1895948798 2.2213281389 2.253061398 
2.2847946572 2.3165279163 2.3482611754 2.3799944345 2.4117276937 2.4434609528 2.4751942119 2.506927471 2.5386607302 
2.5703939893 2.6021272484 2.6338605076 2.6655937667 2.6973270258 2.7290602849 2.7607935441 2.7925268032 2.8242600623 
2.8559933214 2.8877265806 2.9194598397 2.9511930988 2.982926358 3.0146596171 3.0463928762 3.0781261353 3.1098593945 
3.1415926536 
_radius 1 100 double
3.3374714953e-14 0.3064779126 0.60804154927 0.90019193588 1.1792909754 1.4428567221 1.6897098681 1.9199573227 2.134827607 
2.3363955196 2.5272436536 2.7101075936 2.8875450135 3.0616597052 3.233901242 3.4049504112 3.5746907499 3.7422588896 
3.9061622583 4.0644517852 4.2149374008 4.3554326116 4.4840099807 4.5992432417 4.7004071952 4.7876068725 4.8618145196 
4.9248059753 4.9790038171 5.0272487019 5.0725286089 5.1176968361 5.1652056443 5.2168773386 5.2737310739 5.3358817044 
5.4025244394 5.4720136438 5.5420345875 5.6098539589 5.6726214524 5.727684877 5.7728780852 5.8067450572 5.828673174 
5.8389221572 5.8385504597 5.8292555359 5.8131547912 5.792537007 5.7696098164 5.7462617847 5.7238538717 5.703057544 
5.6837629946 5.6650836939 5.645475237 5.6229644225 5.5954548804 5.5610521456 5.5183468662 5.4666118334 5.4058953618 
5.3370145804 5.261459829 5.181220751 5.09854725 5.0156703872 4.9345235679 4.8565092472 4.7823427391 4.7119794454 
4.6446110877 4.5787110183 4.5121165453 4.4421484217 4.3657768969 4.2798469155 4.1813692974 4.0678657201 3.9377241052 
3.7904907682 3.6270154263 3.449385314 3.2606306278 3.064240508 2.8635792204 2.6613218577 2.4590316007 2.2569776508 
2.0542449689 1.8491134683 1.6396007806 1.4240084656 1.2013215438 0.97138089454 0.7348369521 0.49295937376 0.24740130447 
6.2515330929e-14 
_area 1 100 double
0 0.26633975249 1.0508450081 2.3141034426 4.0022126018 6.0584370625 8.4307211471 11.072698814 13.940363505 
16.989018294 20.17398613 23.455474792 26.805285858 30.211867976 33.680688324 37.228641031 40.873443922 44.62084775 
48.453462525 52.324864821 56.161308778 59.871088224 63.359211861 66.543531881 69.368252839 71.811684208 73.886958087 
75.637034467 77.127493815 78.440098005 79.666916854 80.902449817 82.232206731 83.720744234 85.40561869 87.298825627 
89.39015017 91.64799161 94.018102684 96.423163165 98.7663362 100.94039014 102.84094572 104.38007766 105.49685028 
106.1635717 106.38805804 106.21164072 105.701452 104.93728233 103.99870126 102.9588135 101.88309029 100.82773717 
99.836695057 98.929768875 98.060499198 97.100954896 95.90536899 94.365988391 92.42546736 90.078905489 87.372955912 
84.39727221 81.267809368 78.107848025 75.032295937 72.136126938 69.485410055 67.111359789 65.009881204 63.147460987 
61.471308041 59.920204666 58.431479468 56.938671744 55.359139776 53.585309374 51.49850755 49.002218254 46.053808939 
42.68049557 38.976706853 35.085583688 31.170245965 27.381884314 23.83185383 20.575079944 17.610154923 14.896926779 
12.385557742 10.043513785 7.8682477783 5.8846254419 4.1336739611 2.6590422778 1.495500079 0.66256001551 0.1650637282 
7.5995767911e-13 
