# vtk DataFile Version 5.1
vtk output
ASCII
DATASET POLYDATA
POINTS 100 float
13.3391 31.1502 16.2094 13.3417 31.1408 16.21 13.3493 31.1146 16.2052 
13.3625 31.0756 16.1943 13.3819 31.0298 16.1758 13.4085 30.9847 16.148 
13.4432 30.9486 16.1093 13.4867 30.9296 16.0584 13.54 30.935 15.9945 
13.6033 30.9706 15.9173 13.6769 31.0401 15.8276 13.7606 31.1448 15.727 
13.854 31.2836 15.6177 13.9564 31.4536 15.5027 14.0668 31.6498 15.3856 
14.1844 31.8663 15.2698 14.3083 32.0967 15.159 14.4377 32.3348 15.056 
14.572 32.5752 14.9635 14.711 32.8137 14.8831 14.8545 33.0475 14.8155 
15.0026 33.2756 14.7606 15.1557 33.4982 14.7173 15.314 33.717 14.6841 
15.4778 33.9341 14.6588 15.6473 34.1526 14.6387 15.8224 34.375 14.6214 
16.0026 34.6039 14.6044 16.1873 34.8408 14.5854 16.3754 35.0867 14.5627 
16.5657 35.3416 14.535 16.7567 35.6048 14.5013 16.9467 35.8751 14.4614 
17.1345 36.1508 14.4151 17.3186 36.4302 14.3628 17.4981 36.7117 14.3049 
17.6721 36.9941 14.242 17.8405 37.2767 14.1747 18.0033 37.5591 14.1037 
18.161 37.8412 14.0294 18.3142 38.1234 13.9525 18.4638 38.4062 13.8732 
18.6107 38.6899 13.792 18.7557 38.9749 13.7088 18.8994 39.2612 13.624 
19.0422 39.5486 13.5374 19.1841 39.8368 13.449 19.3245 40.1253 13.3585 
19.4628 40.4136 13.2657 19.5979 40.7016 13.1702 19.7286 40.9891 13.0715 
19.8537 41.2765 12.9693 19.9719 41.5644 12.8631 20.0822 41.854 12.7527 
20.184 42.1464 12.638 20.2771 42.443 12.5192 20.3616 42.7447 12.3967 
20.4384 43.0525 12.2713 20.5084 43.3667 12.1437 20.5733 43.6868 12.0151 
20.635 44.0121 11.8868 20.6953 44.3409 11.7597 20.7563 44.6712 11.6351 
20.8197 45.0007 11.5136 20.887 45.3269 11.3957 20.9592 45.6476 11.2815 
21.0369 45.9611 11.1705 21.12 46.2658 11.0622 21.2077 46.5613 10.9555 
21.299 46.8476 10.8495 21.3922 47.1254 10.7431 21.4852 47.3958 10.6355 
21.5758 47.6603 10.5263 21.6619 47.9205 10.4156 21.7415 48.1779 10.3038 
21.8128 48.4335 10.192 21.8746 48.688 10.082 21.9263 48.9414 9.97545 
21.9681 49.1934 9.87462 22.0006 49.4429 9.7815 22.0252 49.6889 9.69788 
22.0439 49.9298 9.62514 22.059 50.1643 9.56402 22.0732 50.3911 9.51464 
22.089 50.6092 9.47637 22.1089 50.8177 9.44802 22.135 51.0163 9.42784 
22.1686 51.2047 9.41381 22.2106 51.3827 9.4038 22.2608 51.5504 9.3958 
22.3185 51.7073 9.38813 22.3818 51.853 9.37958 22.4483 51.9866 9.36948 
22.5153 52.1069 9.35778 22.5794 52.2126 9.3449 22.6373 52.302 9.3317 
22.686 52.3736 9.31925 22.7226 52.4258 9.30865 22.7451 52.4575 9.30087 
22.7521 52.4679 9.29659 
LINES 2 100
OFFSETS vtktypeint64
0 100 
CONNECTIVITY vtktypeint64
0 1 2 3 4 5 6 7 8 
9 10 11 12 13 14 15 16 17 
18 19 20 21 22 23 24 25 26 
27 28 29 30 31 32 33 34 35 
36 37 38 39 40 41 42 43 44 
45 46 47 48 49 50 51 52 53 
54 55 56 57 58 59 60 61 62 
63 64 65 66 67 68 69 70 71 
72 73 74 75 76 77 78 79 80 
81 82 83 84 85 86 87 88 89 
90 91 92 93 94 95 96 97 98 
99 
POINT_DATA 100
FIELD FieldData 3
_theta 1 100 double
0 0.031733259127 0.063466518254 0.095199777382 0.12693303651 0.15866629564 0.19039955476 0.22213281389 0.25386607302 
0.28559933214 0.31733259127 0.3490658504 0.38079910953 0.41253236865 0.44426562778 0.47599888691 0.50773214603 0.53946540516 
0.57119866429 0.60293192342 0.63466518254 0.66639844167 0.6981317008 0.72986495992 0.76159821905 0.79333147818 0.82506473731 
0.85679799643 0.88853125556 0.92026451469 0.95199777382 0.98373103294 1.0154642921 1.0471975512 1.0789308103 1.1106640695 
1.1423973286 1.1741305877 1.2058638468 1.237597106 1.2693303651 1.3010636242 1.3327968833 1.3645301425 1.3962634016 
1.4279966607 1.4597299198 1.491463179 1.5231964381 1.5549296972 1.5866629564 1.6183962155 1.6501294746 1.6818627337 
1.7135959929 1.745329252 1.7770625111 1.8087957702 1.8405290294 1.8722622885 1.9039955476 1.9357288068 1.9674620659 
1.999195325 2.0309285841 2.0626618433 2.0943951024 2.1261283615 2.1578616206 2.1895948798 2.2213281389 2.253061398 
2.2847946572 2.3165279163 2.3482611754 2.3799944345 2.4117276937 2.4434609528 2.4751942119 2.506927471 2.5386607302 
2.5703939893 2.6021272484 2.6338605076 2.6655937667 2.6973270258 2.7290602849 2.7607935441 2.7925268032 2.8242600623 
2.8559933214 2.8877265806 2.9194598397 2.9511930988 2.982926358 3.0146596171 3.0463928762 3.0781261353 3.1098593945 
3.1415926536 
_radius 1 100 double
7.6548408239e-14 0.40016982583 0.79651231243 1.185273258 1.5628168597 1.9257221372 2.2709094586 2.5957872187 2.8983993531 
3.1775496707 3.4328805284 3.6648910907 3.8748923428 4.0649084894 4.2375429317 4.3958282873 4.5430733302 4.6827082248 
4.81811864 4.952455575 5.0884153639 5.228002783 5.3723122854 5.5213764471 5.6741271272 5.8284928622 5.9816248888 
6.1302170242 6.2708702334 6.4004519126 6.5164079174 6.6169965232 6.7014245244 6.769876032 6.8234351029 6.8639146715 
6.8936152986 6.9150455798 6.9306394103 6.9425033419 6.9522215288 6.9607380096 6.9683266627 6.9746475966 6.978875675 
6.9798755161 6.9763918884 6.9672270659 6.951385554 6.9281770927 6.8972768286 6.8587454322 6.8130125905 6.7608267131 
6.7031737449 6.6411699436 6.5759378734 6.508480977 6.439577497 6.3697154405 6.299083457 6.227618017 6.1550900738 
6.0812024286 6.0056685296 5.9282544678 5.8487820381 5.7671035735 5.683064172 5.5964648782 5.5070354036 5.4144203069 
5.3181790086 5.2177969038 5.1127018517 5.0022785859 4.8858749656 4.7627991551 4.6323138292 4.4936386306 4.3459724952 
4.188542992 4.0206824098 3.8419219837 3.6520877579 3.4513755674 3.2403807443 3.0200632826 2.7916431458 2.5564414633 
2.3157044934 2.070457888 1.8214313126 1.5690697881 1.3136196941 1.0552569372 0.7942179276 0.53089862082 0.26589832333 
1.2280717532e-13 
_area 1 100 double
0 0.46237220228 1.8301390235 4.0464637082 7.020760301 10.635123525 14.753405089 19.232450707 23.934452032 
28.738726705 33.550620342 38.305089259 42.963718137 47.506828878 51.925374771 56.217448212 60.390712281 64.468024815 
68.491961511 72.524764014 76.641954946 80.919825425 85.419331542 90.170866184 95.164100541 100.34478161 105.61842236 
110.86003316 115.92847852 120.68341968 125.00247072 128.79615962 132.01825267 134.66910472 136.79073069 138.45466757 
139.74623736 140.74955946 141.53629942 142.15932811 142.65127043 143.02702572 143.28868512 143.43210119 143.46601609 
143.5316311 143.61459401 143.571425 143.43690599 143.00037271 142.19079001 140.96909046 139.31127763 137.21278607 
134.69774626 131.82595091 128.69229333 125.41772644 122.13389742 118.96214967 115.98794248 113.24140364 110.70057858 
108.31438285 106.0266715 103.79236911 101.58327393 99.382167822 97.169739145 94.915456643 92.577823702 90.108441298 
87.455752077 84.570770253 81.416590492 77.978688731 74.270424365 70.330038045 66.210101513 61.964434788 57.638120273 
53.263430155 48.861282616 44.446576951 40.035629218 35.653431619 31.337965664 27.139584993 23.115554943 19.321940734 
15.806086028 12.602524139 9.7334465575 7.212632028 5.0503484907 3.2569299965 1.8440037962 0.82366041223 0.20656157983 
1.7723971204e-13 
