# vtk DataFile Version 5.1
vtk output
ASCII
DATASET POLYDATA
POINTS 1002 float
12.0375 37.9379 17.3519 22.5638 42.6288 14.7989 13.8718 32.803 9.87083 
22.3647 39.0735 8.79431 20.9649 35.4774 18.522 22.2884 31.5152 13.3197 
13.8045 44.5661 12.0837 15.1413 41.4967 6.46587 29.1506 39.772 14.3114 
10.4229 30.5971 17.7891 23.6809 45.8696 8.88723 7.25186 37.0902 12.3004 
12.7534 38.6999 17.5595 13.5137 39.5305 17.702 14.3924 40.1152 17.4773 
15.4937 40.2731 16.8024 16.8225 40.3357 16.0741 18.2158 40.7575 15.7039 
19.4928 41.442 15.5752 20.6149 41.9963 15.3682 21.6312 42.3353 15.056 
12.5227 37.7016 17.696 13.1571 37.4342 18.0369 13.9377 37.1589 18.336 
14.7368 36.8784 18.4851 15.5021 36.522 18.3574 16.4292 36.0803 18.023 
17.6642 35.7234 17.7835 19.0046 35.5827 17.8564 20.1395 35.5575 18.1726 
12.0634 38.5823 17.0764 12.0996 39.2567 16.6934 12.1052 39.9989 16.213 
12.1228 40.8207 15.6941 12.2287 41.6692 15.1504 12.4444 42.4521 14.5409 
12.7613 43.0936 13.88 13.1494 43.6028 13.2378 13.5231 44.0717 12.6441 
11.5931 37.0999 17.4238 11.1387 36.2055 17.5824 10.6665 35.2801 17.7944 
10.1382 34.3768 17.98 9.54737 33.5134 18.1734 9.02163 32.6605 18.4886 
8.8173 31.8622 18.8221 9.09296 31.2399 18.8606 9.72268 30.8404 18.4626 
11.2732 37.7081 17.0629 10.3897 37.5829 16.8388 9.46433 37.4962 16.6224 
8.6092 37.3905 16.3374 7.86227 37.34 15.9638 7.21739 37.4108 15.4321 
6.76124 37.4874 14.6396 6.62808 37.4293 13.6877 6.83168 37.2603 12.8541 
22.7075 42.0577 15.0564 22.7717 41.4736 15.367 22.6835 40.8556 15.7144 
22.4695 40.1009 16.0585 22.2373 39.2041 16.3949 22.0231 38.35 16.7819 
21.7749 37.6591 17.2729 21.4851 37.0151 17.8176 21.206 36.2801 18.2723 
21.8264 42.9444 14.6407 21.0025 43.1166 14.3369 20.0418 43.1622 13.8808 
18.9706 43.2736 13.4271 17.9652 43.5963 13.1282 17.1458 44.0254 12.9345 
16.3825 44.363 12.7194 15.5129 44.543 12.4853 14.5947 44.6009 12.2836 
23.6095 42.6241 14.7931 24.7431 42.7091 14.9378 25.8388 42.8506 15.2339 
26.7949 42.8262 15.5636 27.7146 42.4254 15.8256 28.7296 41.7198 15.9398 
29.6133 40.9994 15.7855 29.959 40.4649 15.3496 29.7039 40.0951 14.8009 
23.0285 43.2376 14.5589 23.4963 43.9186 14.2982 23.8968 44.4851 13.8748 
24.1606 44.8615 13.2862 24.3015 45.2114 12.6827 24.3705 45.6398 12.0645 
24.3461 45.9771 11.2793 24.1858 46.0686 10.3664 23.9336 45.9881 9.53658 
14.6016 33.1432 9.57878 15.3944 33.6535 9.40836 16.2935 34.2071 9.22951 
17.3351 34.7517 8.93487 18.4586 35.4115 8.66104 19.4924 36.2292 8.6016 
20.3188 37.0467 8.69087 21.002 37.7709 8.75309 21.6717 38.4449 8.76484 
14.3892 32.2974 9.9962 15.0057 31.8132 10.1962 15.7956 31.462 10.4313 
16.7771 31.2825 10.6764 17.8416 31.1721 10.9985 18.8308 31.0759 11.465 
19.7075 31.0978 12.0039 20.5639 31.2692 12.4917 21.4499 31.4451 12.9103 
13.8146 33.4718 9.55175 13.7593 34.2395 9.23354 13.7614 35.1331 8.88883 
13.8698 36.0479 8.40684 14.0406 36.8243 7.74513 14.1908 37.5029 7.08251 
14.3422 38.3028 6.66511 14.5739 39.3164 6.52803 14.871 40.4309 6.50886 
13.4324 32.2651 10.3192 12.9157 31.7169 10.7695 12.3299 31.1355 11.1946 
11.7334 30.6202 11.7898 11.2484 30.3875 12.7544 10.973 30.4942 13.9168 
10.8531 30.705 14.9656 10.7402 30.776 15.8996 10.5735 30.6955 16.8583 
13.0802 33.0227 10.1233 12.1933 33.3218 10.4882 11.2777 33.6071 10.8092 
10.4249 33.8981 11.0489 9.69286 34.3326 11.3999 9.08069 34.9145 11.9094 
8.53841 35.4732 12.2768 8.02531 35.9544 12.3203 7.57235 36.4733 12.2424 
22.5058 38.3248 9.13778 22.6289 37.4716 9.38305 22.7209 36.6179 9.66187 
22.786 35.7979 10.1506 22.782 34.9486 10.8033 22.6832 34.0438 11.3901 
22.5805 33.1642 11.84 22.5427 32.4193 12.2784 22.4823 31.8717 12.782 
21.7751 39.372 8.32705 21.1719 39.6454 7.86488 20.5246 39.9604 7.56424 
19.7226 40.3668 7.38014 18.8203 40.6983 7.01027 18.0577 40.7609 6.37189 
17.4622 40.7132 5.85135 16.792 40.8599 5.78621 15.9585 41.1996 6.08129 
23.1717 39.2508 9.1285 23.9858 39.4248 9.51754 24.7564 39.5721 9.93152 
25.5294 39.6782 10.3974 26.339 39.7435 10.9723 27.073 39.7728 11.6263 
27.6294 39.7725 12.2686 28.0998 39.7576 12.8954 28.6161 39.7502 13.5733 
22.7453 39.8274 8.54671 23.1578 40.4944 8.2606 23.5218 41.1078 7.9855 
23.8135 41.8264 7.7365 24.0633 42.7488 7.56559 24.2488 43.7449 7.61312 
24.3064 44.595 7.91822 24.2221 45.206 8.30986 24.0111 45.6105 8.62818 
21.2476 34.8058 18.7216 21.5511 33.9866 18.6773 21.9108 33.1826 18.3594 
22.2923 32.5549 17.8943 22.5949 32.0779 17.362 22.7573 31.6589 16.6774 
22.7962 31.3595 15.7941 22.7329 31.2769 14.8449 22.5611 31.3652 13.9972 
21.7596 35.8316 18.6437 22.5514 36.2005 18.4925 23.4938 36.6367 18.0944 
24.6715 37.1442 17.6084 25.9967 37.6777 17.1702 27.2847 38.2183 16.803 
28.346 38.7452 16.4116 29.0211 39.1873 15.8554 29.2571 39.51 15.1122 
20.2225 34.7305 18.3716 19.2635 33.9753 18.1604 18.1183 33.2449 18.1339 
16.9431 32.4961 18.3705 15.8289 31.6973 18.7048 14.6415 30.9362 18.9565 
13.2901 30.3926 19.0366 11.9942 30.1962 18.8635 11.0308 30.3171 18.4137 
23.1622 31.7508 13.4291 23.7582 32.3176 13.5897 24.0755 33.4869 13.7798 
24.4785 34.9829 13.9427 25.2895 36.1412 14.0611 26.3382 36.8082 14.1754 
27.2616 37.4569 14.2899 27.9891 38.3234 14.3544 28.6208 39.1655 14.3508 
21.4222 31.2106 13.617 20.4447 30.7923 13.9607 19.5428 30.299 14.3764 
18.5861 30.0109 14.8807 17.1613 30.0338 15.4406 15.2709 30.0667 15.9918 
13.5131 29.9462 16.5038 12.2728 29.9299 16.9833 11.3444 30.1985 17.4234 
13.5383 44.854 11.5176 13.3318 45.1623 10.7077 13.2502 45.3881 9.68 
13.3611 45.341 8.66301 13.6554 44.8789 7.89993 14.0095 44.1341 7.42271 
14.3079 43.4122 7.11276 14.5608 42.8164 6.87271 14.8346 42.2094 6.66073 
14.497 45.0997 11.6411 15.3766 45.4831 11.1675 16.5993 45.7058 10.7497 
18.0433 46.0334 10.4308 19.2568 46.5924 10.1022 20.0282 46.9985 9.63733 
20.7067 46.893 9.13179 21.6356 46.4753 8.81463 22.7164 46.1092 8.76848 
12.9999 44.0964 12.1758 12.259 43.5103 12.219 11.5634 42.8361 12.2154 
10.8322 42.0357 12.1628 10.0075 41.1617 12.0857 9.14117 40.396 12.0434 
8.3627 39.7448 12.0571 7.77902 38.9893 12.0997 7.42065 38.0504 12.1711 
15.8572 42.3888 6.09643 16.6155 43.195 5.69077 17.4133 43.8282 5.49351 
18.3158 44.4135 5.63257 19.383 45.1011 5.97361 20.5044 45.7461 6.37066 
21.473 46.0675 6.86339 22.2441 46.0542 7.49702 22.9459 45.9317 8.20002 
14.2873 41.0159 6.83479 13.508 40.4855 7.13348 12.6944 40.0687 7.493 
11.6706 39.7954 8.03512 10.5293 39.4898 8.72541 9.59946 39.0207 9.49416 
8.9733 38.4719 10.3159 8.43283 37.9653 11.1028 7.83626 37.5146 11.7571 
29.1798 40.2702 13.7595 29.0225 41.0133 13.1349 28.8317 42.1462 12.4287 
28.7097 43.3727 11.6541 28.4933 44.2207 10.96 27.9187 44.6977 10.5092 
26.9697 45.1187 10.2249 25.8487 45.5078 9.88457 24.7271 45.7368 9.40864 
9.45469 30.9562 17.5207 8.27761 31.0413 17.1221 7.01557 30.9143 16.5592 
6.07301 31.0949 15.8521 5.77329 31.9747 15.1015 5.96891 33.2439 14.4002 
6.28321 34.3903 13.772 6.56715 35.3386 13.2182 6.87956 36.2329 12.7356 
13.2828 38.5239 17.9024 14.0147 38.2387 18.1276 14.1452 39.2761 17.8782 
14.9232 37.8793 18.2115 15.0378 38.8333 17.8311 15.2049 39.646 17.3599 
15.8434 37.5034 18.1438 16.1052 38.3453 17.6908 16.2806 39.0567 17.0983 
16.5079 39.7209 16.5661 16.7674 37.1032 17.9464 17.1653 37.9482 17.6041 
17.4537 38.5966 16.9761 17.6829 39.2601 16.4085 17.9495 40.0283 16.0607 
17.8881 36.7136 17.7583 18.2489 37.6144 17.5858 18.5818 38.3258 17.0866 
18.8379 39.0159 16.4939 19.0939 39.8549 16.1463 19.3386 40.7318 15.9347 
19.1811 36.4612 17.7571 19.4489 37.3223 17.5999 19.7209 38.0901 17.2357 
19.9399 38.8504 16.7046 20.1678 39.7153 16.2788 20.4143 40.6214 16.0379 
20.5786 41.4053 15.7735 20.3494 36.3616 17.9702 20.6007 37.1299 17.6673 
20.8465 37.8438 17.2717 21.0368 38.6093 16.8084 21.222 39.4896 16.3723 
21.4518 40.3785 16.0362 21.6409 41.1498 15.7422 21.6927 41.7903 15.4117 
12.1724 36.7354 17.763 11.7977 35.764 17.9365 12.8953 36.4106 18.1569 
11.34 34.8596 18.1486 12.5607 35.456 18.3681 13.6819 36.1636 18.5404 
10.7829 34.027 18.3026 12.1331 34.6223 18.5678 13.3654 35.2483 18.7809 
14.4327 35.8915 18.7 10.2465 33.1756 18.4915 11.7205 33.7879 18.6901 
13.1203 34.3903 18.9687 14.2441 34.916 18.9135 15.2703 35.4598 18.4733 
9.95686 32.2548 18.8283 11.4861 32.7963 18.869 13.0702 33.4183 19.0735 
14.3357 33.9507 19.088 15.3491 34.4155 18.6358 16.4298 34.9986 18.0641 
10.0645 31.381 19.0959 11.4982 31.7116 19.1326 13.1499 32.2788 19.1737 
14.5729 32.9194 19.1565 15.6616 33.4777 18.7991 16.6943 34.0471 18.2229 
17.8419 34.7687 17.8736 10.4958 30.7192 18.965 11.7024 30.7867 19.2022 
13.2271 31.1837 19.2224 14.6833 31.8543 19.1143 15.8634 32.5851 18.823 
16.9366 33.2649 18.3692 18.0652 33.9672 18.0452 19.1758 34.7546 18.0375 
12.0934 29.9431 18.0358 13.2903 29.8472 17.5344 13.2165 29.9362 18.4701 
14.8759 29.9634 16.9955 14.602 29.9446 17.9354 14.5282 30.2488 18.6102 
16.7739 29.99 16.4752 16.3121 29.9692 17.4314 15.9094 30.2245 18.1119 
15.7601 30.8566 18.4923 18.4309 29.9605 15.947 18.1183 29.9075 17.0132 
17.6081 30.1235 17.7662 17.1287 30.7724 18.1088 16.9394 31.6647 18.2588 
19.5761 30.2181 15.3863 19.5814 30.088 16.5445 19.3699 30.1507 17.4981 
18.8929 30.6717 17.9485 18.4359 31.5766 18.0486 18.2235 32.5118 18.0984 
20.5486 30.7187 14.8445 20.7068 30.5913 15.9541 20.8094 30.549 17.0517 
20.6384 30.8261 17.7569 20.1989 31.5101 18.0124 19.7692 32.4225 18.1056 
19.4955 33.2885 18.1802 21.5994 31.1197 14.3804 21.7637 31.0363 15.3523 
21.9101 31.0453 16.4186 21.9233 31.2461 17.2971 21.6775 31.6824 17.8204 
21.247 32.3572 18.1272 20.8355 33.1977 18.3652 20.5175 34.034 18.4693 
22.0367 35.0844 18.8152 22.3513 34.2623 18.6305 22.8648 35.4986 18.5777 
22.6726 33.5968 18.0985 23.1734 34.8427 18.2235 23.8862 36.0828 18.0278 
22.9456 33.1138 17.4294 23.3853 34.3828 17.5297 24.1614 35.6381 17.5133 
25.1024 36.6935 17.3336 23.1765 32.595 16.7511 23.522 33.9359 16.7888 
24.2362 35.3016 16.7808 25.2807 36.3286 16.7178 26.33 37.1993 16.7006 
23.3848 32.0189 15.9902 23.6957 33.2945 16.0987 24.2249 34.8527 16.107 
25.2058 36.021 16.0575 26.3297 36.7912 16.0686 27.3755 37.6744 16.2115 
[...]
POINT_DATA 1002
FIELD FieldData 4
_paraPhi 1 1002 double
6.2831853072 3.1415926536 6.2831853072 3.1415926536 4.7123889804 4.7123889804 1.5707963268 1.5707963268 3.6951670125 
5.7296109483 2.5880182947 0.5535743589 6.2831853072 6.2831853072 6.2831853072 6.2831853072 3.1415926536 3.1415926536 
3.1415926536 3.1415926536 3.1415926536 6.1053039672 5.898798347 5.6768734901 5.4599499503 5.2659633393 5.1032165617 
4.9713148346 4.8656852733 4.7809517865 0.17788134 0.38438696014 0.60631181711 0.82323535693 1.0172219679 1.1799687454 
1.3118704726 1.4175000338 1.5022335207 6.1892828907 6.1070320098 6.035312792 5.9728339911 5.9183214791 5.8706119594 
5.8286879411 5.7916808611 5.7588591896 0.093902416448 0.17615329733 0.2478725152 0.31035131605 0.36486382811 0.41257334776 
0.45449736604 0.4915044461 0.52432611754 3.3194739936 3.5259796137 3.7479044707 3.9648280105 4.1588146215 4.321561399 
4.4534631262 4.5590926874 4.6438261743 2.9637113136 2.7572056934 2.5352808365 2.3183572967 2.1243706857 1.9616239082 
1.829722181 1.7240926197 1.6393591329 3.23549507 3.3177459509 3.3894651688 3.4519439696 3.5064564817 3.5541660013 
3.5960900196 3.6330970997 3.6659187711 3.0476902371 2.9654393563 2.8937201384 2.8312413375 2.7767288255 2.7290193058 
2.6870952876 2.6500882075 2.617266536 6.2831853072 6.2831853072 6.2831853072 6.2831853072 3.1415926536 3.1415926536 
3.1415926536 3.1415926536 3.1415926536 6.1053039672 5.898798347 5.6768734901 5.4599499503 5.2659633393 5.1032165617 
4.9713148346 4.8656852733 4.7809517865 0.17788134 0.38438696014 0.60631181711 0.82323535693 1.0172219679 1.1799687454 
1.3118704726 1.4175000338 1.5022335207 6.1892828907 6.1070320098 6.035312792 5.9728339911 5.9183214791 5.8706119594 
5.8286879411 5.7916808611 5.7588591896 0.093902416448 0.17615329733 0.2478725152 0.31035131605 0.36486382811 0.41257334776 
0.45449736604 0.4915044461 0.52432611754 3.3194739936 3.5259796137 3.7479044707 3.9648280105 4.1588146215 4.321561399 
4.4534631262 4.5590926874 4.6438261743 2.9637113136 2.7572056934 2.5352808365 2.3183572967 2.1243706857 1.9616239082 
1.829722181 1.7240926197 1.6393591329 3.23549507 3.3177459509 3.3894651688 3.4519439696 3.5064564817 3.5541660013 
3.5960900196 3.6330970997 3.6659187711 3.0476902371 2.9654393563 2.8937201384 2.8312413375 2.7767288255 2.7290193058 
2.6870952876 2.6500882075 2.617266536 4.7123889804 4.7123889804 4.7123889804 4.7123889804 4.7123889804 4.7123889804 
4.7123889804 4.7123889804 4.7123889804 4.6087898617 4.4991390697 4.3857031936 4.2712800401 4.1588146215 4.0509635631 
3.94975894 3.8564636551 3.7716124825 4.8159880991 4.9256388911 5.0390747672 5.1534979207 5.2659633393 5.3738143976 
5.4750190208 5.5683143056 5.6531654782 4.6087898617 4.4991390697 4.3857031936 4.2712800401 4.1588146215 4.0509635631 
3.94975894 3.8564636551 3.7716124825 4.8159880991 4.9256388911 5.0390747672 5.1534979207 5.2659633393 5.3738143976 
5.4750190208 5.5683143056 5.6531654782 1.5707963268 1.5707963268 1.5707963268 1.5707963268 1.5707963268 1.5707963268 
1.5707963268 1.5707963268 1.5707963268 1.6743954455 1.7840462375 1.8974821136 2.0119052671 2.1243706857 2.232221744 
2.3334263672 2.426721652 2.5115728246 1.4671972081 1.3575464161 1.24411054 1.1296873865 1.0172219679 0.90937090954 
0.80816628637 0.71487100155 0.63001982895 1.6743954455 1.7840462375 1.8974821136 2.0119052671 2.1243706857 2.232221744 
2.3334263672 2.426721652 2.5115728246 1.4671972081 1.3575464161 1.24411054 1.1296873865 1.0172219679 0.90937090954 
0.80816628637 0.71487100155 0.63001982895 3.6007720849 3.4966939854 3.3839471039 3.2645756454 3.1415926536 3.0186096618 
2.8992382033 2.7864913217 2.6824132222 5.8240058758 5.9280839753 6.0408308569 6.1602023154 6.2831853072 0.12298299178 
0.2423544503 0.35510133185 0.45917943135 6.0560271438 5.7885595667 5.9702140275 5.5125918794 5.6029703303 5.7885595667 
5.2659633393 5.2659633393 5.2659633393 5.2659633393 5.0674903122 5.0120975802 4.9155579264 4.7123889804 4.1588146215 
4.9155579264 4.8353719722 4.7123889804 4.5092200343 4.1588146215 3.6362183941 4.8004512023 4.7123889804 4.5894059886 
4.4126803806 4.1588146215 3.8218076305 3.4545639333 4.7123889804 4.6243267584 4.5092200343 4.3572876485 4.1588146215 
3.9121860814 3.6362183941 3.368750817 6.0174235957 5.9434319871 5.8263323547 5.8809213739 5.7674481418 5.6279784266 
5.8278025282 5.718968232 5.5891129425 5.4372443565 5.7823484065 5.678536687 5.5575666702 5.4192596322 5.2659633393 
5.743164462 5.6444075337 5.5314983644 5.4046708639 5.2659633393 5.1195510325 5.7091357773 5.6152775188 5.5096229709 
5.3926039573 5.2659633393 5.1329233157 4.9978930058 5.6793730533 5.5901633916 5.4910209005 5.3824597928 5.2659633393 
5.1440684722 5.0201624502 4.8979782167 5.5683143056 5.4750190208 5.4750190208 5.3738143976 5.3738143976 5.3738143976 
5.2659633393 5.2659633393 5.2659633393 5.2659633393 5.1534979207 5.1534979207 5.1534979207 5.1534979207 5.1534979207 
5.0390747672 5.0390747672 5.0390747672 5.0390747672 5.0390747672 5.0390747672 4.9256388911 4.9256388911 4.9256388911 
4.9256388911 4.9256388911 4.9256388911 4.9256388911 4.8159880991 4.8159880991 4.8159880991 4.8159880991 4.8159880991 
4.8159880991 4.8159880991 4.8159880991 4.6087898617 4.6087898617 4.4991390697 4.6087898617 4.4991390697 4.3857031936 
4.6087898617 4.4991390697 4.3857031936 4.2712800401 4.6087898617 4.4991390697 4.3857031936 4.2712800401 4.1588146215 
4.6087898617 4.4991390697 4.3857031936 4.2712800401 4.1588146215 4.0509635631 4.6087898617 4.4991390697 4.3857031936 
4.2712800401 4.1588146215 4.0509635631 3.94975894 4.6087898617 4.4991390697 4.3857031936 4.2712800401 4.1588146215 
4.0509635631 3.94975894 3.8564636551 4.526799744 4.4046155105 4.426884955 4.2807094886 4.2918546451 4.3052269283 
4.1588146215 4.1588146215 4.1588146215 4.1588146215 4.042318168 4.0321740035 4.0201070968 4.0055183285 3.9875336042 
3.9337570603 3.9151549899 3.8932795963 3.8672112905 3.8356650183 3.7967995342 3.8346145692 3.809500442 3.7803704271 
3.7462412737 3.7058097288 3.657329819 3.5984456061 3.7454049075 3.7156421835 3.6816134988 3.6424295543 3.5969754326 
3.5438565869 3.4813459737 3.4073543651 3.5642842451 3.4524645613 3.5233842518 3.3320300872 3.403123212 3.4773852225 
3.20576226 3.2746326772 3.348015857 3.4255060145 3.0774230472 3.1415926536 3.2112816139 3.2864685043 3.3668817272 
2.95115522 3.00855263 3.0719036933 3.1415926536 3.2178377658 3.3005964304 2.8307207459 2.8800620952 2.9351694502 
2.9967168029 3.0653475414 3.1415926536 3.225752376 2.718901062 2.7598010554 2.8058000847 2.8576792927 2.91630358 
2.9825888767 3.0574329311 3.1415926536 3.5642842451 3.5233842518 3.4524645613 3.4773852225 3.403123212 3.3320300872 
3.4255060145 3.348015857 3.2746326772 3.20576226 3.3668817272 3.2864685043 3.2112816139 3.1415926536 3.0774230472 
3.3005964304 3.2178377658 3.1415926536 3.0719036933 3.00855263 2.95115522 3.225752376 3.1415926536 3.0653475414 
2.9967168029 2.9351694502 2.8800620952 2.8307207459 3.1415926536 3.0574329311 2.9825888767 2.91630358 2.8576792927 
2.8058000847 2.7598010554 2.718901062 4.526799744 4.426884955 4.4046155105 4.3052269283 4.2918546451 4.2807094886 
4.1588146215 4.1588146215 4.1588146215 4.1588146215 3.9875336042 4.0055183285 4.0201070968 4.0321740035 4.042318168 
3.7967995342 3.8356650183 3.8672112905 3.8932795963 3.9151549899 3.9337570603 3.5984456061 3.657329819 3.7058097288 
3.7462412737 3.7803704271 3.809500442 3.8346145692 3.4073543651 3.4813459737 3.5438565869 3.5969754326 3.6424295543 
3.6816134988 3.7156421835 3.7454049075 4.7123889804 4.8004512023 4.6243267584 4.9155579264 4.7123889804 4.5092200343 
5.0674903122 4.8353719722 4.5894059886 4.3572876485 5.2659633393 5.0120975802 4.7123889804 4.4126803806 4.1588146215 
5.5125918794 5.2659633393 4.9155579264 4.5092200343 4.1588146215 3.9121860814 5.7885595667 5.6029703303 5.2659633393 
4.7123889804 4.1588146215 3.8218076305 3.6362183941 6.0560271438 5.9702140275 5.7885595667 5.2659633393 4.1588146215 
3.6362183941 3.4545639333 3.368750817 0.22715816343 0.49462574053 0.3129712797 0.77059342779 0.68021497688 0.49462574053 
1.0172219679 1.0172219679 1.0172219679 1.0172219679 1.2156949949 1.271087727 1.3676273807 1.5707963268 2.1243706857 
1.3676273807 1.447813335 1.5707963268 1.7739652728 2.1243706857 2.6469669131 1.4827341049 1.5707963268 1.6937793186 
1.8705049266 2.1243706857 2.4613776767 2.8286213739 1.5707963268 1.6588585487 1.7739652728 1.9258976586 2.1243706857 
2.3709992258 2.6469669131 2.9144344902 1.7563855631 1.8785697967 1.8563003522 2.0024758186 1.9913306621 1.9779583789 
2.1243706857 2.1243706857 2.1243706857 2.1243706857 2.2408671392 2.2510113037 2.2630782103 2.2776669786 2.295651703 
2.3494282469 2.3680303173 2.3899057108 2.4159740166 2.4475202889 2.486385773 2.448570738 2.4736848652 2.5028148801 
2.5369440334 2.5773755784 2.6258554882 2.6847397011 2.5377803997 2.5675431237 2.6015718084 2.6407557529 2.6862098746 
2.7393287203 2.8018393335 2.8758309421 1.6743954455 1.6743954455 1.7840462375 1.6743954455 1.7840462375 1.8974821136 
1.6743954455 1.7840462375 1.8974821136 2.0119052671 1.6743954455 1.7840462375 1.8974821136 2.0119052671 2.1243706857 
1.6743954455 1.7840462375 1.8974821136 2.0119052671 2.1243706857 2.232221744 1.6743954455 1.7840462375 1.8974821136 
2.0119052671 2.1243706857 2.232221744 2.3334263672 1.6743954455 1.7840462375 1.8974821136 2.0119052671 2.1243706857 
2.232221744 2.3334263672 2.426721652 1.4671972081 1.3575464161 1.4671972081 1.24411054 1.3575464161 1.4671972081 
1.1296873865 1.24411054 1.3575464161 1.4671972081 1.0172219679 1.1296873865 1.24411054 1.3575464161 1.4671972081 
0.90937090954 1.0172219679 1.1296873865 1.24411054 1.3575464161 1.4671972081 0.80816628637 0.90937090954 1.0172219679 
1.1296873865 1.24411054 1.3575464161 1.4671972081 0.71487100155 0.80816628637 0.90937090954 1.0172219679 1.1296873865 
1.24411054 1.3575464161 1.4671972081 0.60381225391 0.57404952988 0.69302191562 0.54002084522 0.66790778838 0.79216440667 
0.50083690068 0.63877777351 0.77356233629 0.90072551443 0.45538277901 0.60464862014 0.75168694275 0.89058134991 1.0172219679 
0.40226393329 0.56421707518 0.72561863695 0.87851444325 1.0172219679 1.139116835 0.33975332011 0.51573716537 0.69407236469 
0.86392567495 1.0172219679 1.1502619915 1.2630228569 0.26576171152 0.45685295248 0.6552068806 0.84594095064 1.0172219679 
1.1636342747 1.2852923014 1.3852070904 0.22715816343 0.3129712797 0.49462574053 0.49462574053 0.68021497688 0.77059342779 
1.0172219679 1.0172219679 1.0172219679 1.0172219679 2.1243706857 1.5707963268 1.3676273807 1.271087727 1.2156949949 
2.6469669131 2.1243706857 1.7739652728 1.5707963268 1.447813335 1.3676273807 2.8286213739 2.4613776767 2.1243706857 
1.8705049266 1.6937793186 1.5707963268 1.4827341049 2.9144344902 2.6469669131 2.3709992258 2.1243706857 1.9258976586 
1.7739652728 1.6588585487 1.5707963268 1.7563855631 1.8563003522 1.8785697967 1.9779583789 1.9913306621 2.0024758186 
2.1243706857 2.1243706857 2.1243706857 2.1243706857 2.295651703 2.2776669786 2.2630782103 2.2510113037 2.2408671392 
2.486385773 2.4475202889 2.4159740166 2.3899057108 2.3680303173 2.3494282469 2.6847397011 2.6258554882 2.5773755784 
2.5369440334 2.5028148801 2.4736848652 2.448570738 2.8758309421 2.8018393335 2.7393287203 2.6862098746 2.6407557529 
2.6015718084 2.5675431237 2.5377803997 5.8604937156 5.901393709 5.9723133995 5.9473927383 6.0216547488 6.0927478736 
5.9992719463 6.0767621038 6.1501452836 6.2190157008 6.0578962336 6.1383094565 6.2134963469 0 0.064169606361 
6.1241815303 6.206940195 6.2831853072 0.069688960264 0.13304002361 0.19043743361 6.1990255847 0 0.07624511221 
0.14487585072 0.20642320337 0.26153055843 0.3108719077 0 0.084159722458 0.15900377685 0.22528907359 0.28391336087 
0.3357925689 0.38179159818 0.42269159155 5.8604937156 5.9723133995 5.901393709 6.0927478736 6.0216547488 5.9473927383 
6.2190157008 6.1501452836 6.0767621038 5.9992719463 0.064169606361 0 6.2134963469 6.1383094565 6.0578962336 
0.19043743361 0.13304002361 0.069688960264 6.2831853072 6.206940195 6.1241815303 0.3108719077 0.26153055843 0.20642320337 
0.14487585072 0.07624511221 6.2831853072 6.1990255847 0.42269159155 0.38179159818 0.3357925689 0.28391336087 0.22528907359 
0.15900377685 0.084159722458 0 5.6793730533 5.7091357773 5.5901633916 5.743164462 5.6152775188 5.4910209005 
5.7823484065 5.6444075337 5.5096229709 5.3824597928 5.8278025282 5.678536687 5.5314983644 5.3926039573 5.2659633393 
5.8809213739 5.718968232 5.5575666702 5.4046708639 5.2659633393 5.1440684722 5.9434319871 5.7674481418 5.5891129425 
5.4192596322 5.2659633393 5.1329233157 5.0201624502 6.0174235957 5.8263323547 5.6279784266 5.4372443565 5.2659633393 
5.1195510325 4.9978930058 4.8979782167 1.3852070904 1.2852923014 1.2630228569 1.1636342747 1.1502619915 1.139116835 
1.0172219679 1.0172219679 1.0172219679 1.0172219679 0.84594095064 0.86392567495 0.87851444325 0.89058134991 0.90072551443 
0.6552068806 0.69407236469 0.72561863695 0.75168694275 0.77356233629 0.79216440667 0.45685295248 0.51573716537 0.56421707518 
0.60464862014 0.63877777351 0.66790778838 0.69302191562 0.26576171152 0.33975332011 0.40226393329 0.45538277901 0.50083690068 
0.54002084522 0.57404952988 0.60381225391 
_paraPhiHalf 1 1002 double
0 3.1415926536 0 3.1415926536 1.5707963268 1.5707963268 1.5707963268 1.5707963268 2.5880182947 
0.5535743589 2.5880182947 0.5535743589 0 0 0 0 3.1415926536 3.1415926536 
3.1415926536 3.1415926536 3.1415926536 0.17788134 0.38438696014 0.60631181711 0.82323535693 1.0172219679 1.1799687454 
1.3118704726 1.4175000338 1.5022335207 0.17788134 0.38438696014 0.60631181711 0.82323535693 1.0172219679 1.1799687454 
1.3118704726 1.4175000338 1.5022335207 0.093902416448 0.17615329733 0.2478725152 0.31035131605 0.36486382811 0.41257334776 
0.45449736604 0.4915044461 0.52432611754 0.093902416448 0.17615329733 0.2478725152 0.31035131605 0.36486382811 0.41257334776 
0.45449736604 0.4915044461 0.52432611754 2.9637113136 2.7572056934 2.5352808365 2.3183572967 2.1243706857 1.9616239082 
1.829722181 1.7240926197 1.6393591329 2.9637113136 2.7572056934 2.5352808365 2.3183572967 2.1243706857 1.9616239082 
1.829722181 1.7240926197 1.6393591329 3.0476902371 2.9654393563 2.8937201384 2.8312413375 2.7767288255 2.7290193058 
2.6870952876 2.6500882075 2.617266536 3.0476902371 2.9654393563 2.8937201384 2.8312413375 2.7767288255 2.7290193058 
2.6870952876 2.6500882075 2.617266536 0 0 0 0 3.1415926536 3.1415926536 
3.1415926536 3.1415926536 3.1415926536 0.17788134 0.38438696014 0.60631181711 0.82323535693 1.0172219679 1.1799687454 
1.3118704726 1.4175000338 1.5022335207 0.17788134 0.38438696014 0.60631181711 0.82323535693 1.0172219679 1.1799687454 
1.3118704726 1.4175000338 1.5022335207 0.093902416448 0.17615329733 0.2478725152 0.31035131605 0.36486382811 0.41257334776 
0.45449736604 0.4915044461 0.52432611754 0.093902416448 0.17615329733 0.2478725152 0.31035131605 0.36486382811 0.41257334776 
0.45449736604 0.4915044461 0.52432611754 2.9637113136 2.7572056934 2.5352808365 2.3183572967 2.1243706857 1.9616239082 
1.829722181 1.7240926197 1.6393591329 2.9637113136 2.7572056934 2.5352808365 2.3183572967 2.1243706857 1.9616239082 
1.829722181 1.7240926197 1.6393591329 3.0476902371 2.9654393563 2.8937201384 2.8312413375 2.7767288255 2.7290193058 
2.6870952876 2.6500882075 2.617266536 3.0476902371 2.9654393563 2.8937201384 2.8312413375 2.7767288255 2.7290193058 
2.6870952876 2.6500882075 2.617266536 1.5707963268 1.5707963268 1.5707963268 1.5707963268 1.5707963268 1.5707963268 
1.5707963268 1.5707963268 1.5707963268 1.6743954455 1.7840462375 1.8974821136 2.0119052671 2.1243706857 2.232221744 
2.3334263672 2.426721652 2.5115728246 1.4671972081 1.3575464161 1.24411054 1.1296873865 1.0172219679 0.90937090954 
0.80816628637 0.71487100155 0.63001982895 1.6743954455 1.7840462375 1.8974821136 2.0119052671 2.1243706857 2.232221744 
2.3334263672 2.426721652 2.5115728246 1.4671972081 1.3575464161 1.24411054 1.1296873865 1.0172219679 0.90937090954 
0.80816628637 0.71487100155 0.63001982895 1.5707963268 1.5707963268 1.5707963268 1.5707963268 1.5707963268 1.5707963268 
1.5707963268 1.5707963268 1.5707963268 1.6743954455 1.7840462375 1.8974821136 2.0119052671 2.1243706857 2.232221744 
2.3334263672 2.426721652 2.5115728246 1.4671972081 1.3575464161 1.24411054 1.1296873865 1.0172219679 0.90937090954 
0.80816628637 0.71487100155 0.63001982895 1.6743954455 1.7840462375 1.8974821136 2.0119052671 2.1243706857 2.232221744 
2.3334263672 2.426721652 2.5115728246 1.4671972081 1.3575464161 1.24411054 1.1296873865 1.0172219679 0.90937090954 
0.80816628637 0.71487100155 0.63001982895 2.6824132222 2.7864913217 2.8992382033 3.0186096618 3.1415926536 3.0186096618 
2.8992382033 2.7864913217 2.6824132222 0.45917943135 0.35510133185 0.2423544503 0.12298299178 0 0.12298299178 
0.2423544503 0.35510133185 0.45917943135 0.22715816343 0.49462574053 0.3129712797 0.77059342779 0.68021497688 0.49462574053 
1.0172219679 1.0172219679 1.0172219679 1.0172219679 1.2156949949 1.271087727 1.3676273807 1.5707963268 2.1243706857 
1.3676273807 1.447813335 1.5707963268 1.7739652728 2.1243706857 2.6469669131 1.4827341049 1.5707963268 1.6937793186 
1.8705049266 2.1243706857 2.4613776767 2.8286213739 1.5707963268 1.6588585487 1.7739652728 1.9258976586 2.1243706857 
2.3709992258 2.6469669131 2.9144344902 0.26576171152 0.33975332011 0.45685295248 0.40226393329 0.51573716537 0.6552068806 
0.45538277901 0.56421707518 0.69407236469 0.84594095064 0.50083690068 0.60464862014 0.72561863695 0.86392567495 1.0172219679 
0.54002084522 0.63877777351 0.75168694275 0.87851444325 1.0172219679 1.1636342747 0.57404952988 0.66790778838 0.77356233629 
0.89058134991 1.0172219679 1.1502619915 1.2852923014 0.60381225391 0.69302191562 0.79216440667 0.90072551443 1.0172219679 
1.139116835 1.2630228569 1.3852070904 0.71487100155 0.80816628637 0.80816628637 0.90937090954 0.90937090954 0.90937090954 
1.0172219679 1.0172219679 1.0172219679 1.0172219679 1.1296873865 1.1296873865 1.1296873865 1.1296873865 1.1296873865 
1.24411054 1.24411054 1.24411054 1.24411054 1.24411054 1.24411054 1.3575464161 1.3575464161 1.3575464161 
1.3575464161 1.3575464161 1.3575464161 1.3575464161 1.4671972081 1.4671972081 1.4671972081 1.4671972081 1.4671972081 
1.4671972081 1.4671972081 1.4671972081 1.6743954455 1.6743954455 1.7840462375 1.6743954455 1.7840462375 1.8974821136 
1.6743954455 1.7840462375 1.8974821136 2.0119052671 1.6743954455 1.7840462375 1.8974821136 2.0119052671 2.1243706857 
1.6743954455 1.7840462375 1.8974821136 2.0119052671 2.1243706857 2.232221744 1.6743954455 1.7840462375 1.8974821136 
2.0119052671 2.1243706857 2.232221744 2.3334263672 1.6743954455 1.7840462375 1.8974821136 2.0119052671 2.1243706857 
2.232221744 2.3334263672 2.426721652 1.7563855631 1.8785697967 1.8563003522 2.0024758186 1.9913306621 1.9779583789 
2.1243706857 2.1243706857 2.1243706857 2.1243706857 2.2408671392 2.2510113037 2.2630782103 2.2776669786 2.295651703 
2.3494282469 2.3680303173 2.3899057108 2.4159740166 2.4475202889 2.486385773 2.448570738 2.4736848652 2.5028148801 
2.5369440334 2.5773755784 2.6258554882 2.6847397011 2.5377803997 2.5675431237 2.6015718084 2.6407557529 2.6862098746 
2.7393287203 2.8018393335 2.8758309421 2.718901062 2.8307207459 2.7598010554 2.95115522 2.8800620952 2.8058000847 
3.0774230472 3.00855263 2.9351694502 2.8576792927 3.0774230472 3.1415926536 3.0719036933 2.9967168029 2.91630358 
2.95115522 3.00855263 3.0719036933 3.1415926536 3.0653475414 2.9825888767 2.8307207459 2.8800620952 2.9351694502 
2.9967168029 3.0653475414 3.1415926536 3.0574329311 2.718901062 2.7598010554 2.8058000847 2.8576792927 2.91630358 
2.9825888767 3.0574329311 3.1415926536 2.718901062 2.7598010554 2.8307207459 2.8058000847 2.8800620952 2.95115522 
2.8576792927 2.9351694502 3.00855263 3.0774230472 2.91630358 2.9967168029 3.0719036933 3.1415926536 3.0774230472 
2.9825888767 3.0653475414 3.1415926536 3.0719036933 3.00855263 2.95115522 3.0574329311 3.1415926536 3.0653475414 