# vtk DataFile Version 5.1
vtk output
ASCII
DATASET POLYDATA
POINTS 1002 float
22.7282 39.7053 15.058 14.0265 35.4048 19.153 22.6746 34.9486 9.55847 
13.838 28.9068 11.3949 14.0698 40.9073 13.0061 14.3256 37.1464 7.93791 
22.7679 33.0534 20.1658 23.5282 28.8036 14.6331 9.41552 33.5194 16.2744 
23.3497 42.9384 7.9568 13.2637 28.5804 21.778 28.0569 36.8531 13.6261 
22.0414 39.3538 15.3391 21.2021 39.1127 15.8321 20.229 38.9396 16.5021 
19.215 38.5915 17.0284 18.2315 37.9411 17.2116 17.2561 37.2216 17.3233 
16.2867 36.6878 17.6849 15.4073 36.2895 18.2305 14.6671 35.8717 18.7438 
22.0067 39.8456 14.8279 21.0988 40.0079 14.6043 20.1501 40.2381 14.4136 
19.2418 40.5225 14.3019 18.266 40.7061 14.1717 17.1724 40.6677 13.8463 
16.1617 40.5439 13.3954 15.3898 40.5544 13.0875 14.7478 40.719 13.0093 
22.9136 39.2949 15.4833 22.9985 38.8039 16.0193 23.005 38.2384 16.6281 
23.0233 37.5939 17.2266 23.0952 36.8738 17.8326 23.157 36.1395 18.5535 
23.1404 35.4511 19.3274 23.0478 34.7575 19.9013 22.9145 33.9587 20.1448 
22.9972 40.1927 14.6661 23.3474 40.7236 14.1743 23.7611 41.2462 13.5047 
24.1042 41.702 12.7159 24.2502 42.1063 11.9729 24.2181 42.5132 11.2812 
24.099 42.888 10.4734 23.9216 43.1157 9.52843 23.6689 43.1264 8.63571 
23.448 39.8578 15.078 24.108 39.9403 15.0547 24.8195 39.9141 14.9767 
25.6678 39.8921 14.9669 26.5324 39.9028 15.0675 27.2027 39.7017 15.0798 
27.6269 39.0964 14.8268 27.8833 38.2537 14.3938 28.0227 37.4666 13.9663 
13.8763 36.2274 18.9848 13.7627 37.1648 18.8169 13.6782 38.0521 18.5335 
13.5606 38.7106 17.937 13.3804 39.1877 17.0538 13.245 39.6951 16.2081 
13.3013 40.2412 15.554 13.5442 40.6289 14.8746 13.8355 40.8031 13.9914 
14.6223 34.9722 19.0986 15.3036 34.6007 19.0642 16.0444 34.2692 19.0427 
16.9336 33.9037 18.9844 18.0783 33.5055 18.8953 19.3416 33.2216 18.9249 
20.4368 33.1711 19.2166 21.2926 33.2531 19.6818 22.0447 33.2495 20.0595 
13.2885 35.3742 19.3957 12.4752 35.283 19.558 11.5995 35.133 19.6497 
10.7499 34.9491 19.7102 10.022 34.7123 19.6116 9.45517 34.4048 19.1319 
9.09503 34.0886 18.3195 9.00602 33.8411 17.4895 9.15915 33.6654 16.8298 
13.7238 34.6225 19.5084 13.4089 33.8017 19.9177 13.1616 32.9291 20.3211 
12.993 32.0126 20.6241 12.8068 31.1547 20.8625 12.5972 30.4426 21.2003 
12.5374 29.8486 21.6671 12.7186 29.3304 22.0462 13.0126 28.9022 22.0987 
21.9694 34.4375 9.72014 21.1972 33.9161 9.9194 20.3609 33.2981 10.0732 
19.3856 32.6276 10.2281 18.2857 32.0502 10.5144 17.2454 31.5217 10.858 
16.3661 30.8384 11.0371 15.5367 30.0184 11.056 14.6692 29.3168 11.1311 
22.0324 35.1982 9.31597 21.3314 35.4432 9.04001 20.5904 35.6608 8.69411 
19.7935 35.8732 8.31411 18.8861 36.0905 7.99025 17.8273 36.2761 7.77575 
16.6947 36.4297 7.66586 15.6754 36.6152 7.65604 14.8954 36.8654 7.75237 
22.8657 34.3565 9.92258 23.0234 33.7487 10.417 23.1776 33.1158 10.9603 
23.4116 32.3366 11.3559 23.7097 31.388 11.6228 23.886 30.5285 12.0603 
23.8215 29.9882 12.7706 23.645 29.6446 13.5113 23.5411 29.2603 14.1101 
22.9362 35.6855 9.30411 23.1293 36.5167 9.05082 23.2537 37.3839 8.75925 
23.34 38.2614 8.47787 23.3853 39.1647 8.30867 23.4115 40.0744 8.20054 
23.4931 40.9453 8.00241 23.5993 41.7555 7.76431 23.5771 42.4525 7.71216 
23.467 35.1885 9.68572 24.2589 35.5313 9.89816 24.9892 35.8732 10.1479 
25.6193 36.1051 10.4508 26.1671 36.2782 10.9052 26.6778 36.5151 11.4903 
27.1633 36.7708 12.0365 27.588 36.9011 12.498 27.8979 36.8929 13.0031 
13.5318 29.4143 10.9873 13.2895 30.0936 10.6014 13.2497 30.9781 10.3502 
13.3704 32.0226 10.1839 13.4319 33.077 9.85484 13.3923 33.9984 9.27768 
13.4741 34.7891 8.6951 13.7665 35.555 8.31906 14.0987 36.3538 8.10642 
14.6141 28.6506 11.5736 15.388 28.4796 11.8169 16.2088 28.4881 12.2305 
17.1592 28.6869 12.8227 18.2428 28.8725 13.3482 19.4254 28.8241 13.5814 
20.6762 28.6265 13.6665 21.8701 28.5355 13.8792 22.8349 28.6296 14.2477 
12.8713 28.993 11.5901 11.9731 29.1971 11.9375 11.2368 29.4624 12.4351 
10.6357 29.783 13.0859 10.163 30.1863 13.8499 9.9173 30.6822 14.6193 
9.87643 31.2871 15.2785 9.82187 32.0122 15.7637 9.63194 32.7937 16.0769 
13.5496 28.556 11.9424 13.2865 28.3948 12.7154 13.0769 28.4166 13.8135 
12.9472 28.5527 15.2534 12.8686 28.6937 16.7941 12.7618 28.7409 18.0942 
12.6293 28.6795 19.1208 12.614 28.5867 20.0923 12.8381 28.5448 21.0457 
13.6872 41.0646 12.2915 13.2767 41.1915 11.4109 13.046 41.266 10.4705 
13.0793 41.1768 9.60459 13.2168 40.7848 8.9074 13.3221 40.106 8.42234 
13.48 39.3176 8.15067 13.7646 38.5516 8.03292 14.0813 37.8261 7.97803 
13.1365 41.0279 13.5942 12.0917 41.1299 14.0675 11.2314 40.9102 14.2696 
10.9013 40.0059 14.3134 11.0404 38.4834 14.4787 11.0887 36.9685 14.8551 
10.6495 35.935 15.2902 9.97077 35.2117 15.662 9.51792 34.4324 15.9795 
14.7239 41.025 12.0975 15.4379 41.3235 11.3887 16.3394 41.6787 10.8941 
17.5137 41.9501 10.3955 18.7654 42.1735 9.75094 19.7788 42.49 9.1105 
20.5703 42.8818 8.64167 21.4196 43.1535 8.31628 22.4077 43.1633 8.07839 
13.7213 36.9434 8.3138 13.052 36.7015 8.8187 12.2512 36.3876 9.44526 
11.4052 35.9896 10.1401 10.7126 35.5469 10.8974 10.2712 35.1266 11.8418 
10.0138 34.7515 13.0472 9.82969 34.3768 14.334 9.64174 33.9607 15.438 
14.8734 37.7651 7.63364 15.666 38.4079 7.33682 16.7688 39.046 7.03422 
17.9787 39.718 6.66413 18.9931 40.4925 6.26693 19.7921 41.3332 6.08246 
20.5964 42.072 6.29828 21.5074 42.5669 6.81339 22.4515 42.8227 7.40427 
23.1262 32.1999 20.0907 23.4876 31.2297 19.9792 23.7808 30.3671 19.7837 
23.9634 29.7707 19.3437 24.0668 29.363 18.5775 24.1405 28.9929 17.6396 
24.1672 28.6899 16.7413 24.082 28.5733 15.9462 23.857 28.6441 15.239 
22.1329 32.2227 20.0395 21.3681 31.3427 19.7468 20.4459 30.615 19.5331 
19.3788 30.0865 19.6505 18.2806 29.5683 20.1579 17.293 28.9667 20.9147 
16.3897 28.4891 21.6579 15.4117 28.329 22.0975 14.3227 28.4182 22.1024 
23.5747 33.2882 19.9272 24.3599 33.4579 19.3008 25.0995 33.7058 18.5737 
25.8926 34.1177 18.078 26.7787 34.5683 17.7774 27.5492 34.9054 17.3276 
27.9835 35.2106 16.5405 28.1253 35.6567 15.5301 28.1308 36.2476 14.5069 
23.1065 28.2279 14.9815 22.3944 27.7877 15.4922 21.2281 27.7122 16.1753 
19.7459 27.9478 16.9184 18.2605 28.1168 17.7219 16.9271 27.9933 18.736 
15.7688 27.8081 19.8948 14.823 27.872 20.8706 14.0403 28.1914 21.4716 
24.1402 29.2528 14.6304 24.9202 29.6748 14.555 25.9001 30.1259 14.4524 
26.821 30.6906 14.3691 27.388 31.4097 14.2884 27.6538 32.343 14.1863 
27.854 33.5149 14.0808 28.0299 34.7695 13.9671 28.0951 35.899 13.8121 
9.26031 32.607 16.9102 8.91164 31.6783 17.5793 8.1761 30.8674 18.319 
7.24698 30.1667 19.1792 6.7876 29.5383 20.1141 7.3451 29.1068 20.9075 
8.77585 28.9743 21.3621 10.4844 28.9731 21.5394 12.0189 28.8581 21.6475 
24.4371 42.7835 8.27372 25.5168 42.6218 8.64949 26.4478 42.4612 9.12112 
27.0822 42.2259 9.71278 27.3876 41.7495 10.4108 27.506 40.9212 11.1488 
27.6137 39.852 11.8386 27.7661 38.7678 12.452 27.9262 37.7764 13.0346 
21.1796 39.5899 15.2072 20.2063 39.8645 15.0971 20.2637 39.4675 15.8401 
19.279 40.1466 14.9802 19.2956 39.7401 15.7517 19.2726 39.2185 16.4786 
18.3433 40.346 14.8176 18.3546 39.8507 15.4951 18.2956 39.2325 16.1791 
18.2332 38.5542 16.7336 17.2258 40.3526 14.5145 17.2763 39.8077 15.1059 
17.2571 39.0832 15.7027 17.1881 38.337 16.255 17.1699 37.7022 16.7485 
16.0532 40.2417 14.1137 16.0301 39.7217 14.7085 16.0728 39.0074 15.29 
16.0942 38.2898 15.9224 16.0801 37.6795 16.5097 16.1335 37.1588 17.0669 
15.1316 40.2574 13.8668 14.9289 39.7996 14.5197 14.9019 39.175 15.1282 
15.0094 38.5739 15.8733 15.0886 38.0794 16.6626 15.1226 37.5581 17.2853 
15.2251 36.938 17.7727 14.4681 40.4923 13.8872 14.1585 40.1503 14.6406 
13.9861 39.6295 15.2691 14.0464 39.0899 16.0117 14.2103 38.6701 16.9308 
14.3117 38.2106 17.7229 14.3742 37.5221 18.1966 14.4937 36.6809 18.4876 
22.2496 40.3205 14.3852 22.6034 40.8659 13.8232 21.3091 40.4502 14.0548 
22.9984 41.3808 13.0468 21.6394 40.9867 13.374 20.3067 40.6571 13.7712 
23.2414 41.7732 12.1692 21.9904 41.4722 12.4956 20.5619 41.145 12.9891 
19.2925 40.8935 13.6112 23.2262 42.1038 11.3958 22.1859 41.8103 11.5904 
20.8693 41.5542 12.0573 19.4407 41.2575 12.7485 18.209 40.9706 13.4065 
23.0466 42.4871 10.6852 22.1502 42.1124 10.8286 21.1086 41.8463 11.1642 
19.7274 41.567 11.7877 18.3016 41.217 12.4644 17.125 40.8666 12.9823 
22.8345 42.8848 9.85327 21.9447 42.5053 10.0911 21.1329 42.152 10.379 
20.004 41.8582 10.8916 18.5608 41.526 11.5157 17.2269 41.1451 12.0349 
16.2074 40.7998 12.5013 22.6262 43.1436 8.92228 21.6737 42.9127 9.22609 
20.906 42.5361 9.55296 20.0264 42.1785 10.0296 18.7756 41.8815 10.6424 
17.4013 41.5638 11.1842 16.2832 41.2006 11.6331 15.4527 40.8854 12.2092 
21.4476 43.0884 7.44061 20.4669 42.81 6.83598 20.4313 43.0648 7.66659 
19.6 42.2262 6.47107 19.456 42.7096 7.16154 19.5327 42.7352 8.09741 
18.8709 41.387 6.52018 18.6537 42.0305 7.02687 18.5206 42.3226 7.79035 
18.6053 42.3377 8.76621 18.0157 40.5013 6.85613 17.9266 41.1663 7.25266 
17.689 41.6635 7.82992 17.4881 42.0008 8.63171 17.4627 42.1138 9.55749 
16.8327 39.7423 7.17952 16.9195 40.3645 7.52199 16.8418 40.9394 8.00695 
16.5559 41.5036 8.64855 16.2951 41.916 9.43804 16.248 41.9664 10.221 
15.5813 39.0986 7.40774 15.6209 39.7322 7.64633 15.6909 40.3413 8.0489 
15.5824 40.9836 8.59928 15.3002 41.5524 9.29156 15.1288 41.8093 10.0446 
15.2202 41.6753 10.748 14.6477 38.471 7.65668 14.4749 39.1672 7.7672 
14.4272 39.8552 8.0208 14.4161 40.5493 8.45378 14.2774 41.1532 9.06744 
14.0965 41.4923 9.8198 14.1284 41.5056 10.6247 14.4032 41.2998 11.3989 
12.6186 41.059 12.6942 12.178 41.0538 11.5835 11.5476 40.9992 12.9744 
12.0241 41.0378 10.4879 11.2328 40.8326 11.7381 10.8769 40.5571 13.1108 
12.1252 40.8378 9.59848 11.2485 40.6288 10.6496 10.8132 40.1579 11.9599 
10.8399 39.4156 13.2902 12.3089 40.2506 8.98408 11.4531 40.1462 9.85557 
10.9649 39.6599 11.0221 10.9136 38.8221 12.3536 11.0676 37.8355 13.6733 
12.5791 39.3678 8.6432 11.7568 39.2797 9.37031 11.1877 38.8905 10.3461 
10.9872 38.1667 11.5465 11.003 37.2828 12.8855 10.9386 36.4973 14.1831 
[...]
POINT_DATA 1002
FIELD FieldData 4
_paraPhi 1 1002 double
6.2831853072 3.1415926536 6.2831853072 3.1415926536 4.7123889804 4.7123889804 1.5707963268 1.5707963268 3.6951670125 
5.7296109483 2.5880182947 0.5535743589 6.2831853072 6.2831853072 6.2831853072 6.2831853072 3.1415926536 3.1415926536 
3.1415926536 3.1415926536 3.1415926536 6.1053039672 5.898798347 5.6768734901 5.4599499503 5.2659633393 5.1032165617 
4.9713148346 4.8656852733 4.7809517865 0.17788134 0.38438696014 0.60631181711 0.82323535693 1.0172219679 1.1799687454 
1.3118704726 1.4175000338 1.5022335207 6.1892828907 6.1070320098 6.035312792 5.9728339911 5.9183214791 5.8706119594 
5.8286879411 5.7916808611 5.7588591896 0.093902416448 0.17615329733 0.2478725152 0.31035131605 0.36486382811 0.41257334776 
0.45449736604 0.4915044461 0.52432611754 3.3194739936 3.5259796137 3.7479044707 3.9648280105 4.1588146215 4.321561399 
4.4534631262 4.5590926874 4.6438261743 2.9637113136 2.7572056934 2.5352808365 2.3183572967 2.1243706857 1.9616239082 
1.829722181 1.7240926197 1.6393591329 3.23549507 3.3177459509 3.3894651688 3.4519439696 3.5064564817 3.5541660013 
3.5960900196 3.6330970997 3.6659187711 3.0476902371 2.9654393563 2.8937201384 2.8312413375 2.7767288255 2.7290193058 
2.6870952876 2.6500882075 2.617266536 6.2831853072 6.2831853072 6.2831853072 6.2831853072 3.1415926536 3.1415926536 
3.1415926536 3.1415926536 3.1415926536 6.1053039672 5.898798347 5.6768734901 5.4599499503 5.2659633393 5.1032165617 
4.9713148346 4.8656852733 4.7809517865 0.17788134 0.38438696014 0.60631181711 0.82323535693 1.0172219679 1.1799687454 
1.3118704726 1.4175000338 1.5022335207 6.1892828907 6.1070320098 6.035312792 5.9728339911 5.9183214791 5.8706119594 
5.8286879411 5.7916808611 5.7588591896 0.093902416448 0.17615329733 0.2478725152 0.31035131605 0.36486382811 0.41257334776 
0.45449736604 0.4915044461 0.52432611754 3.3194739936 3.5259796137 3.7479044707 3.9648280105 4.1588146215 4.321561399 
4.4534631262 4.5590926874 4.6438261743 2.9637113136 2.7572056934 2.5352808365 2.3183572967 2.1243706857 1.9616239082 
1.829722181 1.7240926197 1.6393591329 3.23549507 3.3177459509 3.3894651688 3.4519439696 3.5064564817 3.5541660013 
3.5960900196 3.6330970997 3.6659187711 3.0476902371 2.9654393563 2.8937201384 2.8312413375 2.7767288255 2.7290193058 
2.6870952876 2.6500882075 2.617266536 4.7123889804 4.7123889804 4.7123889804 4.7123889804 4.7123889804 4.7123889804 
4.7123889804 4.7123889804 4.7123889804 4.6087898617 4.4991390697 4.3857031936 4.2712800401 4.1588146215 4.0509635631 
3.94975894 3.8564636551 3.7716124825 4.8159880991 4.9256388911 5.0390747672 5.1534979207 5.2659633393 5.3738143976 
5.4750190208 5.5683143056 5.6531654782 4.6087898617 4.4991390697 4.3857031936 4.2712800401 4.1588146215 4.0509635631 
3.94975894 3.8564636551 3.7716124825 4.8159880991 4.9256388911 5.0390747672 5.1534979207 5.2659633393 5.3738143976 
5.4750190208 5.5683143056 5.6531654782 1.5707963268 1.5707963268 1.5707963268 1.5707963268 1.5707963268 1.5707963268 
1.5707963268 1.5707963268 1.5707963268 1.6743954455 1.7840462375 1.8974821136 2.0119052671 2.1243706857 2.232221744 
2.3334263672 2.426721652 2.5115728246 1.4671972081 1.3575464161 1.24411054 1.1296873865 1.0172219679 0.90937090954 
0.80816628637 0.71487100155 0.63001982895 1.6743954455 1.7840462375 1.8974821136 2.0119052671 2.1243706857 2.232221744 
2.3334263672 2.426721652 2.5115728246 1.4671972081 1.3575464161 1.24411054 1.1296873865 1.0172219679 0.90937090954 
0.80816628637 0.71487100155 0.63001982895 3.6007720849 3.4966939854 3.3839471039 3.2645756454 3.1415926536 3.0186096618 
2.8992382033 2.7864913217 2.6824132222 5.8240058758 5.9280839753 6.0408308569 6.1602023154 6.2831853072 0.12298299178 
0.2423544503 0.35510133185 0.45917943135 6.0560271438 5.7885595667 5.9702140275 5.5125918794 5.6029703303 5.7885595667 
5.2659633393 5.2659633393 5.2659633393 5.2659633393 5.0674903122 5.0120975802 4.9155579264 4.7123889804 4.1588146215 
4.9155579264 4.8353719722 4.7123889804 4.5092200343 4.1588146215 3.6362183941 4.8004512023 4.7123889804 4.5894059886 
4.4126803806 4.1588146215 3.8218076305 3.4545639333 4.7123889804 4.6243267584 4.5092200343 4.3572876485 4.1588146215 
3.9121860814 3.6362183941 3.368750817 6.0174235957 5.9434319871 5.8263323547 5.8809213739 5.7674481418 5.6279784266 
5.8278025282 5.718968232 5.5891129425 5.4372443565 5.7823484065 5.678536687 5.5575666702 5.4192596322 5.2659633393 
5.743164462 5.6444075337 5.5314983644 5.4046708639 5.2659633393 5.1195510325 5.7091357773 5.6152775188 5.5096229709 
5.3926039573 5.2659633393 5.1329233157 4.9978930058 5.6793730533 5.5901633916 5.4910209005 5.3824597928 5.2659633393 
5.1440684722 5.0201624502 4.8979782167 5.5683143056 5.4750190208 5.4750190208 5.3738143976 5.3738143976 5.3738143976 
5.2659633393 5.2659633393 5.2659633393 5.2659633393 5.1534979207 5.1534979207 5.1534979207 5.1534979207 5.1534979207 
5.0390747672 5.0390747672 5.0390747672 5.0390747672 5.0390747672 5.0390747672 4.9256388911 4.9256388911 4.9256388911 
4.9256388911 4.9256388911 4.9256388911 4.9256388911 4.8159880991 4.8159880991 4.8159880991 4.8159880991 4.8159880991 
4.8159880991 4.8159880991 4.8159880991 4.6087898617 4.6087898617 4.4991390697 4.6087898617 4.4991390697 4.3857031936 
4.6087898617 4.4991390697 4.3857031936 4.2712800401 4.6087898617 4.4991390697 4.3857031936 4.2712800401 4.1588146215 
4.6087898617 4.4991390697 4.3857031936 4.2712800401 4.1588146215 4.0509635631 4.6087898617 4.4991390697 4.3857031936 
4.2712800401 4.1588146215 4.0509635631 3.94975894 4.6087898617 4.4991390697 4.3857031936 4.2712800401 4.1588146215 
4.0509635631 3.94975894 3.8564636551 4.526799744 4.4046155105 4.426884955 4.2807094886 4.2918546451 4.3052269283 
4.1588146215 4.1588146215 4.1588146215 4.1588146215 4.042318168 4.0321740035 4.0201070968 4.0055183285 3.9875336042 
3.9337570603 3.9151549899 3.8932795963 3.8672112905 3.8356650183 3.7967995342 3.8346145692 3.809500442 3.7803704271 
3.7462412737 3.7058097288 3.657329819 3.5984456061 3.7454049075 3.7156421835 3.6816134988 3.6424295543 3.5969754326 
3.5438565869 3.4813459737 3.4073543651 3.5642842451 3.4524645613 3.5233842518 3.3320300872 3.403123212 3.4773852225 
3.20576226 3.2746326772 3.348015857 3.4255060145 3.0774230472 3.1415926536 3.2112816139 3.2864685043 3.3668817272 
2.95115522 3.00855263 3.0719036933 3.1415926536 3.2178377658 3.3005964304 2.8307207459 2.8800620952 2.9351694502 
2.9967168029 3.0653475414 3.1415926536 3.225752376 2.718901062 2.7598010554 2.8058000847 2.8576792927 2.91630358 
2.9825888767 3.0574329311 3.1415926536 3.5642842451 3.5233842518 3.4524645613 3.4773852225 3.403123212 3.3320300872 
3.4255060145 3.348015857 3.2746326772 3.20576226 3.3668817272 3.2864685043 3.2112816139 3.1415926536 3.0774230472 
3.3005964304 3.2178377658 3.1415926536 3.0719036933 3.00855263 2.95115522 3.225752376 3.1415926536 3.0653475414 
2.9967168029 2.9351694502 2.8800620952 2.8307207459 3.1415926536 3.0574329311 2.9825888767 2.91630358 2.8576792927 
2.8058000847 2.7598010554 2.718901062 4.526799744 4.426884955 4.4046155105 4.3052269283 4.2918546451 4.2807094886 
4.1588146215 4.1588146215 4.1588146215 4.1588146215 3.9875336042 4.0055183285 4.0201070968 4.0321740035 4.042318168 
3.7967995342 3.8356650183 3.8672112905 3.8932795963 3.9151549899 3.9337570603 3.5984456061 3.657329819 3.7058097288 
3.7462412737 3.7803704271 3.809500442 3.8346145692 3.4073543651 3.4813459737 3.5438565869 3.5969754326 3.6424295543 
3.6816134988 3.7156421835 3.7454049075 4.7123889804 4.8004512023 4.6243267584 4.9155579264 4.7123889804 4.5092200343 
5.0674903122 4.8353719722 4.5894059886 4.3572876485 5.2659633393 5.0120975802 4.7123889804 4.4126803806 4.1588146215 
5.5125918794 5.2659633393 4.9155579264 4.5092200343 4.1588146215 3.9121860814 5.7885595667 5.6029703303 5.2659633393 
4.7123889804 4.1588146215 3.8218076305 3.6362183941 6.0560271438 5.9702140275 5.7885595667 5.2659633393 4.1588146215 
3.6362183941 3.4545639333 3.368750817 0.22715816343 0.49462574053 0.3129712797 0.77059342779 0.68021497688 0.49462574053 
1.0172219679 1.0172219679 1.0172219679 1.0172219679 1.2156949949 1.271087727 1.3676273807 1.5707963268 2.1243706857 
1.3676273807 1.447813335 1.5707963268 1.7739652728 2.1243706857 2.6469669131 1.4827341049 1.5707963268 1.6937793186 
1.8705049266 2.1243706857 2.4613776767 2.8286213739 1.5707963268 1.6588585487 1.7739652728 1.9258976586 2.1243706857 
2.3709992258 2.6469669131 2.9144344902 1.7563855631 1.8785697967 1.8563003522 2.0024758186 1.9913306621 1.9779583789 
2.1243706857 2.1243706857 2.1243706857 2.1243706857 2.2408671392 2.2510113037 2.2630782103 2.2776669786 2.295651703 
2.3494282469 2.3680303173 2.3899057108 2.4159740166 2.4475202889 2.486385773 2.448570738 2.4736848652 2.5028148801 
2.5369440334 2.5773755784 2.6258554882 2.6847397011 2.5377803997 2.5675431237 2.6015718084 2.6407557529 2.6862098746 
2.7393287203 2.8018393335 2.8758309421 1.6743954455 1.6743954455 1.7840462375 1.6743954455 1.7840462375 1.8974821136 
1.6743954455 1.7840462375 1.8974821136 2.0119052671 1.6743954455 1.7840462375 1.8974821136 2.0119052671 2.1243706857 
1.6743954455 1.7840462375 1.8974821136 2.0119052671 2.1243706857 2.232221744 1.6743954455 1.7840462375 1.8974821136 
2.0119052671 2.1243706857 2.232221744 2.3334263672 1.6743954455 1.7840462375 1.8974821136 2.0119052671 2.1243706857 
2.232221744 2.3334263672 2.426721652 1.4671972081 1.3575464161 1.4671972081 1.24411054 1.3575464161 1.4671972081 
1.1296873865 1.24411054 1.3575464161 1.4671972081 1.0172219679 1.1296873865 1.24411054 1.3575464161 1.4671972081 
0.90937090954 1.0172219679 1.1296873865 1.24411054 1.3575464161 1.4671972081 0.80816628637 0.90937090954 1.0172219679 
1.1296873865 1.24411054 1.3575464161 1.4671972081 0.71487100155 0.80816628637 0.90937090954 1.0172219679 1.1296873865 
1.24411054 1.3575464161 1.4671972081 0.60381225391 0.57404952988 0.69302191562 0.54002084522 0.66790778838 0.79216440667 
0.50083690068 0.63877777351 0.77356233629 0.90072551443 0.45538277901 0.60464862014 0.75168694275 0.89058134991 1.0172219679 
0.40226393329 0.56421707518 0.72561863695 0.87851444325 1.0172219679 1.139116835 0.33975332011 0.51573716537 0.69407236469 
0.86392567495 1.0172219679 1.1502619915 1.2630228569 0.26576171152 0.45685295248 0.6552068806 0.84594095064 1.0172219679 
1.1636342747 1.2852923014 1.3852070904 0.22715816343 0.3129712797 0.49462574053 0.49462574053 0.68021497688 0.77059342779 
1.0172219679 1.0172219679 1.0172219679 1.0172219679 2.1243706857 1.5707963268 1.3676273807 1.271087727 1.2156949949 
2.6469669131 2.1243706857 1.7739652728 1.5707963268 1.447813335 1.3676273807 2.8286213739 2.4613776767 2.1243706857 
1.8705049266 1.6937793186 1.5707963268 1.4827341049 2.9144344902 2.6469669131 2.3709992258 2.1243706857 1.9258976586 
1.7739652728 1.6588585487 1.5707963268 1.7563855631 1.8563003522 1.8785697967 1.9779583789 1.9913306621 2.0024758186 
2.1243706857 2.1243706857 2.1243706857 2.1243706857 2.295651703 2.2776669786 2.2630782103 2.2510113037 2.2408671392 
2.486385773 2.4475202889 2.4159740166 2.3899057108 2.3680303173 2.3494282469 2.6847397011 2.6258554882 2.5773755784 
2.5369440334 2.5028148801 2.4736848652 2.448570738 2.8758309421 2.8018393335 2.7393287203 2.6862098746 2.6407557529 
2.6015718084 2.5675431237 2.5377803997 5.8604937156 5.901393709 5.9723133995 5.9473927383 6.0216547488 6.0927478736 
5.9992719463 6.0767621038 6.1501452836 6.2190157008 6.0578962336 6.1383094565 6.2134963469 0 0.064169606361 
6.1241815303 6.206940195 6.2831853072 0.069688960264 0.13304002361 0.19043743361 6.1990255847 0 0.07624511221 
0.14487585072 0.20642320337 0.26153055843 0.3108719077 0 0.084159722458 0.15900377685 0.22528907359 0.28391336087 
0.3357925689 0.38179159818 0.42269159155 5.8604937156 5.9723133995 5.901393709 6.0927478736 6.0216547488 5.9473927383 
6.2190157008 6.1501452836 6.0767621038 5.9992719463 0.064169606361 0 6.2134963469 6.1383094565 6.0578962336 
0.19043743361 0.13304002361 0.069688960264 6.2831853072 6.206940195 6.1241815303 0.3108719077 0.26153055843 0.20642320337 
0.14487585072 0.07624511221 6.2831853072 6.1990255847 0.42269159155 0.38179159818 0.3357925689 0.28391336087 0.22528907359 
0.15900377685 0.084159722458 0 5.6793730533 5.7091357773 5.5901633916 5.743164462 5.6152775188 5.4910209005 
5.7823484065 5.6444075337 5.5096229709 5.3824597928 5.8278025282 5.678536687 5.5314983644 5.3926039573 5.2659633393 
5.8809213739 5.718968232 5.5575666702 5.4046708639 5.2659633393 5.1440684722 5.9434319871 5.7674481418 5.5891129425 
5.4192596322 5.2659633393 5.1329233157 5.0201624502 6.0174235957 5.8263323547 5.6279784266 5.4372443565 5.2659633393 
5.1195510325 4.9978930058 4.8979782167 1.3852070904 1.2852923014 1.2630228569 1.1636342747 1.1502619915 1.139116835 
1.0172219679 1.0172219679 1.0172219679 1.0172219679 0.84594095064 0.86392567495 0.87851444325 0.89058134991 0.90072551443 
0.6552068806 0.69407236469 0.72561863695 0.75168694275 0.77356233629 0.79216440667 0.45685295248 0.51573716537 0.56421707518 
0.60464862014 0.63877777351 0.66790778838 0.69302191562 0.26576171152 0.33975332011 0.40226393329 0.45538277901 0.50083690068 
0.54002084522 0.57404952988 0.60381225391 
_paraPhiHalf 1 1002 double
0 3.1415926536 0 3.1415926536 1.5707963268 1.5707963268 1.5707963268 1.5707963268 2.5880182947 
0.5535743589 2.5880182947 0.5535743589 0 0 0 0 3.1415926536 3.1415926536 
3.1415926536 3.1415926536 3.1415926536 0.17788134 0.38438696014 0.60631181711 0.82323535693 1.0172219679 1.1799687454 
1.3118704726 1.4175000338 1.5022335207 0.17788134 0.38438696014 0.60631181711 0.82323535693 1.0172219679 1.1799687454 
1.3118704726 1.4175000338 1.5022335207 0.093902416448 0.17615329733 0.2478725152 0.31035131605 0.36486382811 0.41257334776 
0.45449736604 0.4915044461 0.52432611754 0.093902416448 0.17615329733 0.2478725152 0.31035131605 0.36486382811 0.41257334776 
0.45449736604 0.4915044461 0.52432611754 2.9637113136 2.7572056934 2.5352808365 2.3183572967 2.1243706857 1.9616239082 
1.829722181 1.7240926197 1.6393591329 2.9637113136 2.7572056934 2.5352808365 2.3183572967 2.1243706857 1.9616239082 
1.829722181 1.7240926197 1.6393591329 3.0476902371 2.9654393563 2.8937201384 2.8312413375 2.7767288255 2.7290193058 
2.6870952876 2.6500882075 2.617266536 3.0476902371 2.9654393563 2.8937201384 2.8312413375 2.7767288255 2.7290193058 
2.6870952876 2.6500882075 2.617266536 0 0 0 0 3.1415926536 3.1415926536 
3.1415926536 3.1415926536 3.1415926536 0.17788134 0.38438696014 0.60631181711 0.82323535693 1.0172219679 1.1799687454 
1.3118704726 1.4175000338 1.5022335207 0.17788134 0.38438696014 0.60631181711 0.82323535693 1.0172219679 1.1799687454 
1.3118704726 1.4175000338 1.5022335207 0.093902416448 0.17615329733 0.2478725152 0.31035131605 0.36486382811 0.41257334776 
0.45449736604 0.4915044461 0.52432611754 0.093902416448 0.17615329733 0.2478725152 0.31035131605 0.36486382811 0.41257334776 
0.45449736604 0.4915044461 0.52432611754 2.9637113136 2.7572056934 2.5352808365 2.3183572967 2.1243706857 1.9616239082 
1.829722181 1.7240926197 1.6393591329 2.9637113136 2.7572056934 2.5352808365 2.3183572967 2.1243706857 1.9616239082 
1.829722181 1.7240926197 1.6393591329 3.0476902371 2.9654393563 2.8937201384 2.8312413375 2.7767288255 2.7290193058 
2.6870952876 2.6500882075 2.617266536 3.0476902371 2.9654393563 2.8937201384 2.8312413375 2.7767288255 2.7290193058 
2.6870952876 2.6500882075 2.617266536 1.5707963268 1.5707963268 1.5707963268 1.5707963268 1.5707963268 1.5707963268 
1.5707963268 1.5707963268 1.5707963268 1.6743954455 1.7840462375 1.8974821136 2.0119052671 2.1243706857 2.232221744 
2.3334263672 2.426721652 2.5115728246 1.4671972081 1.3575464161 1.24411054 1.1296873865 1.0172219679 0.90937090954 
0.80816628637 0.71487100155 0.63001982895 1.6743954455 1.7840462375 1.8974821136 2.0119052671 2.1243706857 2.232221744 
2.3334263672 2.426721652 2.5115728246 1.4671972081 1.3575464161 1.24411054 1.1296873865 1.0172219679 0.90937090954 
0.80816628637 0.71487100155 0.63001982895 1.5707963268 1.5707963268 1.5707963268 1.5707963268 1.5707963268 1.5707963268 
1.5707963268 1.5707963268 1.5707963268 1.6743954455 1.7840462375 1.8974821136 2.0119052671 2.1243706857 2.232221744 
2.3334263672 2.426721652 2.5115728246 1.4671972081 1.3575464161 1.24411054 1.1296873865 1.0172219679 0.90937090954 
0.80816628637 0.71487100155 0.63001982895 1.6743954455 1.7840462375 1.8974821136 2.0119052671 2.1243706857 2.232221744 
2.3334263672 2.426721652 2.5115728246 1.4671972081 1.3575464161 1.24411054 1.1296873865 1.0172219679 0.90937090954 
0.80816628637 0.71487100155 0.63001982895 2.6824132222 2.7864913217 2.8992382033 3.0186096618 3.1415926536 3.0186096618 
2.8992382033 2.7864913217 2.6824132222 0.45917943135 0.35510133185 0.2423544503 0.12298299178 0 0.12298299178 
0.2423544503 0.35510133185 0.45917943135 0.22715816343 0.49462574053 0.3129712797 0.77059342779 0.68021497688 0.49462574053 
1.0172219679 1.0172219679 1.0172219679 1.0172219679 1.2156949949 1.271087727 1.3676273807 1.5707963268 2.1243706857 
1.3676273807 1.447813335 1.5707963268 1.7739652728 2.1243706857 2.6469669131 1.4827341049 1.5707963268 1.6937793186 
1.8705049266 2.1243706857 2.4613776767 2.8286213739 1.5707963268 1.6588585487 1.7739652728 1.9258976586 2.1243706857 
2.3709992258 2.6469669131 2.9144344902 0.26576171152 0.33975332011 0.45685295248 0.40226393329 0.51573716537 0.6552068806 
0.45538277901 0.56421707518 0.69407236469 0.84594095064 0.50083690068 0.60464862014 0.72561863695 0.86392567495 1.0172219679 
0.54002084522 0.63877777351 0.75168694275 0.87851444325 1.0172219679 1.1636342747 0.57404952988 0.66790778838 0.77356233629 
0.89058134991 1.0172219679 1.1502619915 1.2852923014 0.60381225391 0.69302191562 0.79216440667 0.90072551443 1.0172219679 
1.139116835 1.2630228569 1.3852070904 0.71487100155 0.80816628637 0.80816628637 0.90937090954 0.90937090954 0.90937090954 
1.0172219679 1.0172219679 1.0172219679 1.0172219679 1.1296873865 1.1296873865 1.1296873865 1.1296873865 1.1296873865 
1.24411054 1.24411054 1.24411054 1.24411054 1.24411054 1.24411054 1.3575464161 1.3575464161 1.3575464161 
1.3575464161 1.3575464161 1.3575464161 1.3575464161 1.4671972081 1.4671972081 1.4671972081 1.4671972081 1.4671972081 
1.4671972081 1.4671972081 1.4671972081 1.6743954455 1.6743954455 1.7840462375 1.6743954455 1.7840462375 1.8974821136 
1.6743954455 1.7840462375 1.8974821136 2.0119052671 1.6743954455 1.7840462375 1.8974821136 2.0119052671 2.1243706857 
1.6743954455 1.7840462375 1.8974821136 2.0119052671 2.1243706857 2.232221744 1.6743954455 1.7840462375 1.8974821136 
2.0119052671 2.1243706857 2.232221744 2.3334263672 1.6743954455 1.7840462375 1.8974821136 2.0119052671 2.1243706857 
2.232221744 2.3334263672 2.426721652 1.7563855631 1.8785697967 1.8563003522 2.0024758186 1.9913306621 1.9779583789 
2.1243706857 2.1243706857 2.1243706857 2.1243706857 2.2408671392 2.2510113037 2.2630782103 2.2776669786 2.295651703 
2.3494282469 2.3680303173 2.3899057108 2.4159740166 2.4475202889 2.486385773 2.448570738 2.4736848652 2.5028148801 
2.5369440334 2.5773755784 2.6258554882 2.6847397011 2.5377803997 2.5675431237 2.6015718084 2.6407557529 2.6862098746 
2.7393287203 2.8018393335 2.8758309421 2.718901062 2.8307207459 2.7598010554 2.95115522 2.8800620952 2.8058000847 
3.0774230472 3.00855263 2.9351694502 2.8576792927 3.0774230472 3.1415926536 3.0719036933 2.9967168029 2.91630358 
2.95115522 3.00855263 3.0719036933 3.1415926536 3.0653475414 2.9825888767 2.8307207459 2.8800620952 2.9351694502 
2.9967168029 3.0653475414 3.1415926536 3.0574329311 2.718901062 2.7598010554 2.8058000847 2.8576792927 2.91630358 
2.9825888767 3.0574329311 3.1415926536 2.718901062 2.7598010554 2.8307207459 2.8058000847 2.8800620952 2.95115522 
2.8576792927 2.9351694502 3.00855263 3.0774230472 2.91630358 2.9967168029 3.0719036933 3.1415926536 3.0774230472 
2.9825888767 3.0653475414 3.1415926536 3.0719036933 3.00855263 2.95115522 3.0574329311 3.1415926536 3.0653475414 