# vtk DataFile Version 5.1
vtk output
ASCII
DATASET POLYDATA
POINTS 100 float
24.6075 37.9874 12.7234 24.6122 37.9904 12.7207 24.6238 37.9952 12.7117 
24.6405 38.0009 12.6979 24.6595 38.0058 12.6815 24.677 38.0078 12.665 
24.6891 38.0042 12.6515 24.6921 37.9925 12.6437 24.6827 37.9701 12.644 
24.6584 37.9344 12.6542 24.6177 37.8838 12.6754 24.5602 37.8167 12.7075 
24.4863 37.7326 12.75 24.3977 37.6317 12.8014 24.2961 37.515 12.8595 
24.1838 37.3841 12.9222 24.0628 37.2414 12.987 23.9349 37.0896 13.0517 
23.8012 36.9316 13.1145 23.6623 36.7703 13.174 23.5182 36.6083 13.2296 
23.3683 36.4478 13.2812 23.2117 36.2904 13.3292 23.0476 36.1369 13.3745 
22.8755 35.9874 13.4184 22.6951 35.8413 13.462 22.507 35.6974 13.5067 
22.3123 35.5543 13.5536 22.113 35.4103 13.6036 21.9112 35.2638 13.6573 
21.7097 35.1135 13.7153 21.5108 34.9587 13.7776 21.317 34.7991 13.8445 
21.13 34.635 13.916 20.9507 34.4675 13.9921 20.7791 34.2978 14.0731 
20.6145 34.1277 14.1591 20.4554 33.9589 14.2504 20.2996 33.793 14.3471 
20.1446 33.6312 14.4493 19.9879 33.4743 14.5569 19.8273 33.3224 14.6697 
19.6609 33.1751 14.7871 19.4875 33.0314 14.9079 19.3064 32.8898 15.0312 
19.1178 32.7488 15.1556 18.9222 32.6068 15.2794 18.7203 32.4627 15.4015 
18.5132 32.3154 15.5204 18.3016 32.1647 15.6354 18.086 32.0112 15.746 
17.8666 31.8557 15.852 17.643 31.7 15.9539 17.4145 31.5459 16.0527 
17.18 31.3957 16.1493 16.9386 31.2513 16.2454 16.6892 31.1144 16.3422 
16.4312 30.9862 16.4411 16.1646 30.8671 16.5433 15.8899 30.757 16.6495 
15.6081 30.6549 16.7602 15.3211 30.5592 16.8752 15.0309 30.4679 16.9945 
14.7398 30.3788 17.1172 14.4502 30.2898 17.2428 14.164 30.1989 17.3704 
13.8829 30.1047 17.4992 13.6076 30.0061 17.6287 13.3385 29.903 17.7585 
13.0751 29.7954 17.8884 12.8165 29.6841 18.0184 12.5612 29.5701 18.1486 
12.3078 29.4544 18.2791 12.0549 29.3382 18.4101 11.8013 29.2224 18.5414 
11.5463 29.1073 18.6729 11.2897 28.993 18.8042 11.0318 28.8793 18.9345 
10.7733 28.7655 19.0632 10.5152 28.6508 19.1892 10.2585 28.5345 19.3119 
10.0044 28.4157 19.4303 9.75351 28.2943 19.5439 9.50635 28.1702 19.6525 
9.26301 28.0442 19.7558 9.02333 27.9172 19.854 8.78699 27.7909 19.9476 
8.55377 27.6672 20.0368 8.32373 27.548 20.1221 8.09747 27.4354 20.2037 
7.87633 27.3311 20.2817 7.66246 27.2368 20.3556 7.45888 27.1534 20.425 
7.26935 27.0816 20.4887 7.09817 27.0214 20.5456 6.94991 26.9728 20.5944 
6.82902 26.9353 20.6335 6.73945 26.9084 20.6618 6.68434 26.8916 20.6783 
6.66568 26.8846 20.6824 
LINES 2 100
OFFSETS vtktypeint64
0 100 
CONNECTIVITY vtktypeint64
0 1 2 3 4 5 6 7 8 
9 10 11 12 13 14 15 16 17 
18 19 20 21 22 23 24 25 26 
27 28 29 30 31 32 33 34 35 
36 37 38 39 40 41 42 43 44 
45 46 47 48 49 50 51 52 53 
54 55 56 57 58 59 60 61 62 
63 64 65 66 67 68 69 70 71 
72 73 74 75 76 77 78 79 80 
81 82 83 84 85 86 87 88 89 
90 91 92 93 94 95 96 97 98 
99 
POINT_DATA 100
FIELD FieldData 3
_theta 1 100 double
0 0.031733259127 0.063466518254 0.095199777382 0.12693303651 0.15866629564 0.19039955476 0.22213281389 0.25386607302 
0.28559933214 0.31733259127 0.3490658504 0.38079910953 0.41253236865 0.44426562778 0.47599888691 0.50773214603 0.53946540516 
0.57119866429 0.60293192342 0.63466518254 0.66639844167 0.6981317008 0.72986495992 0.76159821905 0.79333147818 0.82506473731 
0.85679799643 0.88853125556 0.92026451469 0.95199777382 0.98373103294 1.0154642921 1.0471975512 1.0789308103 1.1106640695 
1.1423973286 1.1741305877 1.2058638468 1.237597106 1.2693303651 1.3010636242 1.3327968833 1.3645301425 1.3962634016 
1.4279966607 1.4597299198 1.491463179 1.5231964381 1.5549296972 1.5866629564 1.6183962155 1.6501294746 1.6818627337 
1.7135959929 1.745329252 1.7770625111 1.8087957702 1.8405290294 1.8722622885 1.9039955476 1.9357288068 1.9674620659 
1.999195325 2.0309285841 2.0626618433 2.0943951024 2.1261283615 2.1578616206 2.1895948798 2.2213281389 2.253061398 
2.2847946572 2.3165279163 2.3482611754 2.3799944345 2.4117276937 2.4434609528 2.4751942119 2.506927471 2.5386607302 
2.5703939893 2.6021272484 2.6338605076 2.6655937667 2.6973270258 2.7290602849 2.7607935441 2.7925268032 2.8242600623 
2.8559933214 2.8877265806 2.9194598397 2.9511930988 2.982926358 3.0146596171 3.0463928762 3.0781261353 3.1098593945 
3.1415926536 
_radius 1 100 double
3.9760247158e-14 0.23877894096 0.47873748527 0.72090721659 0.96605363057 1.2144928925 1.4658971802 1.7191424417 1.9722575525 
2.2225153356 2.4666709275 2.7013142814 2.9232748628 3.1300066911 3.3198911112 3.4924162745 3.6482172481 3.7889820936 
3.9172441334 4.036089287 4.148812218 4.2585587744 4.3679956565 4.4790489727 4.5927473302 4.7091905592 4.8276445933 
4.946741645 5.0647477934 5.1798509701 5.2904225207 5.3952142015 5.4934670267 5.5849253042 5.6697650571 5.7484582325 
5.8216015595 5.8897420137 5.9532303678 6.0121298159 6.0661962991 6.1149306178 6.15768465 6.1937937023 6.2227082588 
6.2441056132 6.2579668674 6.2646063457 6.2646435832 6.2589163507 6.2483454157 6.2337736741 6.2158097369 6.1947066306 
6.1702997752 6.1420166957 6.108957335 6.070031995 6.0241361135 5.9703372266 5.9080481353 5.837160665 5.758117097 
5.6719023668 5.5799495223 5.4839628993 5.3856770936 5.286583887 5.1876710861 5.0892222888 4.9907208409 4.8908841218 
4.7878299115 4.6793519887 4.5632636164 4.4377580119 4.3017335363 4.1550360782 3.998580338 3.8343248137 3.6650920025 
3.4942451781 3.3252547437 3.1612076862 3.0043283657 2.8555826532 2.7144277202 2.5787487349 2.4449969231 2.3085163575 
2.1640226403 2.0061773282 1.8301900714 1.6323783376 1.4106220806 1.1646648949 0.89623055808 0.60894234577 0.30805147024 
7.4410346671e-14 
_area 1 100 double
0 0.17439433096 0.70057136674 1.586776689 2.8444126317 4.484911483 6.5160029509 8.9377054305 11.738210658 
14.889907016 18.346206437 22.040306324 25.887042882 29.788353149 33.641852581 37.35122257 40.836844234 44.045305293 
46.956652307 49.588259301 51.993990582 54.257390407 56.478589152 58.756836778 61.173251194 63.779327455 66.594377399 
69.610704904 72.802307874 76.132998304 79.561973394 83.047135037 86.547694373 90.026420228 93.448562439 96.807040592 
100.09068621 103.23148724 106.21521772 109.02406509 111.62968528 113.99105364 116.05695124 117.7721603 119.08279091 
119.94749912 120.35212869 120.33838884 120.05851468 119.62904632 119.07501056 118.37176038 117.54828283 116.63284594 
115.63642086 114.54878083 113.33989452 111.96564352 110.37744448 108.53388352 106.41080104 104.00673079 101.34293659 
98.459266808 95.407697658 92.245282921 89.027705621 85.803822587 82.610857287 79.469795333 76.381265571 73.32333912 
70.253342629 67.115071389 63.850779975 60.415263407 56.788478889 52.983660334 49.04904322 45.062579665 41.120360713 
37.320919496 33.748786408 30.460989537 27.479527837 24.791687777 22.357926352 20.123348263 18.027401725 16.010250671 
14.018457844 12.012608079 9.9767645442 7.9271909912 5.9169383329 4.0335986442 2.3891999975 1.1033045627 0.28239060498 
2.0245083833e-13 
