# vtk DataFile Version 5.1
vtk output
ASCII
DATASET POLYDATA
POINTS 100 float
6.80301 23.3214 15.0838 6.81372 23.3298 15.0822 6.8467 23.3536 15.0713 
6.90215 23.3926 15.0513 6.98031 23.4463 15.0229 7.08134 23.5141 14.9867 
7.20521 23.5952 14.9439 7.35153 23.6888 14.8956 7.51948 23.7935 14.8429 
7.7077 23.9081 14.7869 7.91435 24.0311 14.7286 8.13705 24.161 14.6687 
8.37307 24.2961 14.6074 8.61943 24.4348 14.5447 8.87307 24.5756 14.4801 
9.13106 24.7171 14.4126 9.39075 24.8583 14.3412 9.64992 24.9983 14.2642 
9.90689 25.1369 14.1803 10.1605 25.274 14.088 10.4103 25.4103 13.9865 
10.656 25.5465 13.8752 10.8981 25.6842 13.7545 11.137 25.8249 13.6251 
11.3735 25.9702 13.4888 11.6082 26.1221 13.3478 11.8416 26.2821 13.2051 
12.0742 26.4514 13.0637 12.3063 26.631 12.9266 12.5379 26.8212 12.7966 
12.7692 27.0216 12.6761 12.9999 27.2315 12.5665 13.2302 27.4494 12.4684 
13.4599 27.6736 12.3815 13.6892 27.9021 12.3046 13.9182 28.1327 12.2356 
14.1472 28.3636 12.1722 14.3763 28.593 12.1115 14.6055 28.82 12.051 
14.835 29.0437 11.9881 15.0646 29.2643 11.921 15.2939 29.4821 11.8487 
15.5225 29.6983 11.7707 15.7498 29.9138 11.6873 15.9755 30.13 11.5993 
16.1993 30.348 11.508 16.421 30.5685 11.4147 16.6412 30.7917 11.3209 
16.8605 31.0171 11.2274 17.0801 31.2436 11.135 17.3018 31.4696 11.0438 
17.5272 31.693 10.9534 17.7585 31.9113 10.8632 17.9973 32.1223 10.7725 
18.2452 32.3241 10.6806 18.503 32.515 10.5871 18.771 32.6946 10.4921 
19.0484 32.8631 10.3962 19.3338 33.0218 10.3008 19.6248 33.173 10.2077 
19.9186 33.3196 10.1193 20.212 33.4652 10.038 20.5017 33.6136 9.9661 
20.7847 33.7685 9.90555 21.0584 33.933 9.85755 21.3211 34.1097 9.82242 
21.572 34.3 9.79951 21.8115 34.5043 9.78719 22.0405 34.7216 9.783 
22.2611 34.9501 9.78392 22.4758 35.1868 9.78669 22.6872 35.4281 9.78815 
22.898 35.6701 9.78561 23.1105 35.9089 9.77719 23.3262 36.1407 9.76196 
23.5459 36.3624 9.74007 23.7696 36.5716 9.71268 23.9962 36.7668 9.68177 
24.224 36.9476 9.64989 24.4509 37.1141 9.61973 24.6744 37.2674 9.59377 
24.8919 37.409 9.57395 25.1013 37.5407 9.56134 25.3009 37.6644 9.55599 
25.4893 37.7819 9.55692 25.6662 37.8946 9.56221 25.8314 38.0035 9.56927 
25.9853 38.1091 9.57518 26.1287 38.2113 9.57706 26.2623 38.3098 9.57251 
26.3865 38.4037 9.55993 26.5016 38.4919 9.53879 26.6073 38.5733 9.50971 
26.7029 38.6465 9.47445 26.7873 38.7104 9.43571 26.8592 38.764 9.39683 
26.9169 38.8062 9.36138 26.959 38.8365 9.33273 26.9843 38.8544 9.31363 
26.992 38.8595 9.30589 
LINES 2 100
OFFSETS vtktypeint64
0 100 
CONNECTIVITY vtktypeint64
0 1 2 3 4 5 6 7 8 
9 10 11 12 13 14 15 16 17 
18 19 20 21 22 23 24 25 26 
27 28 29 30 31 32 33 34 35 
36 37 38 39 40 41 42 43 44 
45 46 47 48 49 50 51 52 53 
54 55 56 57 58 59 60 61 62 
63 64 65 66 67 68 69 70 71 
72 73 74 75 76 77 78 79 80 
81 82 83 84 85 86 87 88 89 
90 91 92 93 94 95 96 97 98 
99 
POINT_DATA 100
FIELD FieldData 3
_theta 1 100 double
0 0.031733259127 0.063466518254 0.095199777382 0.12693303651 0.15866629564 0.19039955476 0.22213281389 0.25386607302 
0.28559933214 0.31733259127 0.3490658504 0.38079910953 0.41253236865 0.44426562778 0.47599888691 0.50773214603 0.53946540516 
0.57119866429 0.60293192342 0.63466518254 0.66639844167 0.6981317008 0.72986495992 0.76159821905 0.79333147818 0.82506473731 
0.85679799643 0.88853125556 0.92026451469 0.95199777382 0.98373103294 1.0154642921 1.0471975512 1.0789308103 1.1106640695 
1.1423973286 1.1741305877 1.2058638468 1.237597106 1.2693303651 1.3010636242 1.3327968833 1.3645301425 1.3962634016 
1.4279966607 1.4597299198 1.491463179 1.5231964381 1.5549296972 1.5866629564 1.6183962155 1.6501294746 1.6818627337 
1.7135959929 1.745329252 1.7770625111 1.8087957702 1.8405290294 1.8722622885 1.9039955476 1.9357288068 1.9674620659 
1.999195325 2.0309285841 2.0626618433 2.0943951024 2.1261283615 2.1578616206 2.1895948798 2.2213281389 2.253061398 
2.2847946572 2.3165279163 2.3482611754 2.3799944345 2.4117276937 2.4434609528 2.4751942119 2.506927471 2.5386607302 
2.5703939893 2.6021272484 2.6338605076 2.6655937667 2.6973270258 2.7290602849 2.7607935441 2.7925268032 2.8242600623 
2.8559933214 2.8877265806 2.9194598397 2.9511930988 2.982926358 3.0146596171 3.0463928762 3.0781261353 3.1098593945 
3.1415926536 
_radius 1 100 double
9.0576781872e-15 0.32060510597 0.63795157999 0.94909494524 1.251535022 1.5432882613 1.8228478152 2.089083088 2.3411544724 
2.5785000725 2.8009038253 3.0086096943 3.2024247516 3.3837565488 3.5545494373 3.7171121221 3.8738580019 4.0270047416 
4.1782943142 4.328795184 4.4788327735 4.6280645823 4.7756786553 4.9206604448 5.062057107 5.1991770026 5.3316906044 
5.4596330324 5.5833333418 5.7033036711 5.8201143663 5.9342687036 6.0460830765 6.1555793886 6.2624017257 6.3657719088 
6.464494576 6.5570143147 6.641520176 6.7160895268 6.7788621257 6.8282328867 6.8630461039 6.8827669082 6.887601804 
6.878542955 6.8573211166 6.8262672041 6.7880979713 6.7456527078 6.7016127126 6.658234194 6.617121304 6.5790622777 
6.5439483062 6.5107891247 6.4778290019 6.4427531713 6.402962074 6.3558826644 6.2992828626 6.2315552921 6.1519384704 
6.0606478766 5.9588968043 5.848798157 5.7331528795 5.6151468164 5.4979925524 5.3845627414 5.2770638282 5.1767931113 
5.0840090218 4.9979268556 4.9168332116 4.8382953987 4.7594299779 4.6771895443 4.5886299953 4.491131091 4.3825573078 
4.261358045 4.1266116841 3.9780166208 3.8158281666 3.6407382965 3.4536990693 3.2557009884 3.0475329802 2.8295670186 
2.6016212058 2.3629525546 2.1124093128 1.8487341417 1.5709651036 1.2788478614 0.97316283795 0.65588809552 0.33015524229 
8.5332807352e-14 
_area 1 100 double
0 0.29132946473 1.1565580805 2.5719148854 4.504175157 6.9149080408 9.7603719343 12.987941873 16.532767568 
20.318059156 24.260158593 28.277099918 32.297683565 36.267950718 40.153528947 43.938811724 47.625923593 51.236143288 
54.812402247 58.415412829 62.10559946 65.915889879 69.836227618 73.823720182 77.827954537 81.812015893 85.759421566 
89.668333711 93.539973268 97.368660155 101.1380289 104.82386882 108.40096236 111.85069404 115.1675406 118.3630607 
121.46278345 124.48702205 127.41697756 130.17598377 132.64681498 134.7032853 136.23650575 137.17562235 137.50360259 
137.26423082 136.55605028 135.51217887 134.26988133 132.93852215 131.57665579 130.18662059 128.72839272 127.14664611 
125.39984986 123.47956631 121.41104512 119.23336271 116.97000397 114.60862541 112.09850571 109.3614372 106.31383722 
102.89798226 99.110426682 95.014654387 90.734952054 86.436036169 82.295132423 78.47290296 75.088193264 72.200032096 
69.799837678 67.816602237 66.134921901 64.619907128 63.139851594 61.580648233 59.851496984 57.884799544 55.633703549 
53.0698673 50.182658271 46.979641133 43.4871771 39.749691756 35.826893557 31.789389396 27.713837377 23.678660773 
19.760811729 16.033630508 12.565630615 9.4198957179 6.6536401006 4.3175202163 2.4545908448 1.0991734301 0.27602678949 
3.7647996724e-13 
