# vtk DataFile Version 5.1
vtk output
ASCII
DATASET POLYDATA
POINTS 100 float
23.4043 44.7022 10.7123 23.3993 44.6985 10.7131 23.3838 44.6848 10.7121 
23.3582 44.6602 10.7094 23.3236 44.6241 10.7054 23.2809 44.5753 10.7001 
23.231 44.5127 10.6938 23.1747 44.4353 10.6867 23.1122 44.3425 10.6786 
23.0433 44.2337 10.6694 22.967 44.109 10.6586 22.8822 43.9687 10.646 
22.787 43.8136 10.6311 22.6795 43.645 10.6138 22.5577 43.4642 10.5941 
22.4203 43.2729 10.5723 22.266 43.0727 10.5492 22.0948 42.8653 10.5261 
21.9073 42.6521 10.5043 21.705 42.4346 10.4857 21.4904 42.2138 10.4721 
21.2667 41.9906 10.4655 21.0372 41.7656 10.4674 20.8058 41.5394 10.4792 
20.5759 41.3123 10.5016 20.3504 41.0846 10.5349 20.1317 40.8567 10.5786 
19.921 40.629 10.6318 19.7188 40.4019 10.6933 19.5242 40.1758 10.7615 
19.3359 39.9514 10.8348 19.1516 39.7291 10.9118 18.9687 39.5097 10.9911 
18.7846 39.2936 11.0722 18.5967 39.0816 11.1546 18.4029 38.874 11.2386 
18.2016 38.6713 11.3247 17.9921 38.4739 11.4135 17.7743 38.282 11.5058 
17.5487 38.0957 11.6023 17.3166 37.9151 11.7032 17.0795 37.74 11.8082 
16.8394 37.5701 11.9167 16.5981 37.4048 12.0272 16.3575 37.2433 12.1379 
16.119 37.0845 12.2468 15.8841 36.9273 12.3516 15.6538 36.77 12.4501 
15.4287 36.6108 12.5407 15.2093 36.4481 12.6222 14.996 36.28 12.6941 
14.789 36.1048 12.7567 14.5885 35.9212 12.8113 14.3946 35.7282 12.8595 
14.2075 35.5253 12.9038 14.0272 35.3128 12.9466 13.8536 35.0913 12.9905 
13.6864 34.8623 13.0377 13.5252 34.6276 13.09 13.3689 34.3894 13.1484 
13.2164 34.1503 13.2134 13.0662 33.9125 13.2844 12.9165 33.6783 13.3604 
12.7655 33.4495 13.4399 12.6112 33.2272 13.5211 12.4522 33.0121 13.6022 
12.287 32.8041 13.6816 12.1149 32.6026 13.7581 11.9358 32.4066 13.8312 
11.7501 32.2145 13.901 11.5591 32.0251 13.968 11.3644 31.8371 14.0336 
11.1681 31.6496 14.0993 10.9726 31.4624 14.1669 10.7802 31.2755 14.2382 
10.593 31.09 14.3146 10.4127 30.9073 14.3973 10.2405 30.7292 14.4868 
10.0767 30.5577 14.5831 9.92085 30.395 14.6857 9.77204 30.2428 14.7934 
9.62858 30.1024 14.9048 9.48844 29.9746 15.0181 9.34939 29.8594 15.1314 
9.20925 29.7561 15.243 9.06618 29.6636 15.3512 8.91888 29.5802 15.4546 
8.76676 29.5039 15.5522 8.61012 29.433 15.6431 8.45013 29.3657 15.7269 
8.28892 29.301 15.803 8.12936 29.2384 15.8715 7.97504 29.1779 15.932 
7.82993 29.1204 15.9846 7.69824 29.0673 16.029 7.58408 29.0202 16.0652 
7.49126 28.981 16.093 7.42298 28.9515 16.1122 7.38167 28.9332 16.1227 
7.36883 28.9271 16.1244 
LINES 2 100
OFFSETS vtktypeint64
0 100 
CONNECTIVITY vtktypeint64
0 1 2 3 4 5 6 7 8 
9 10 11 12 13 14 15 16 17 
18 19 20 21 22 23 24 25 26 
27 28 29 30 31 32 33 34 35 
36 37 38 39 40 41 42 43 44 
45 46 47 48 49 50 51 52 53 
54 55 56 57 58 59 60 61 62 
63 64 65 66 67 68 69 70 71 
72 73 74 75 76 77 78 79 80 
81 82 83 84 85 86 87 88 89 
90 91 92 93 94 95 96 97 98 
99 
POINT_DATA 100
FIELD FieldData 3
_theta 1 100 double
0 0.031733259127 0.063466518254 0.095199777382 0.12693303651 0.15866629564 0.19039955476 0.22213281389 0.25386607302 
0.28559933214 0.31733259127 0.3490658504 0.38079910953 0.41253236865 0.44426562778 0.47599888691 0.50773214603 0.53946540516 
0.57119866429 0.60293192342 0.63466518254 0.66639844167 0.6981317008 0.72986495992 0.76159821905 0.79333147818 0.82506473731 
0.85679799643 0.88853125556 0.92026451469 0.95199777382 0.98373103294 1.0154642921 1.0471975512 1.0789308103 1.1106640695 
1.1423973286 1.1741305877 1.2058638468 1.237597106 1.2693303651 1.3010636242 1.3327968833 1.3645301425 1.3962634016 
1.4279966607 1.4597299198 1.491463179 1.5231964381 1.5549296972 1.5866629564 1.6183962155 1.6501294746 1.6818627337 
1.7135959929 1.745329252 1.7770625111 1.8087957702 1.8405290294 1.8722622885 1.9039955476 1.9357288068 1.9674620659 
1.999195325 2.0309285841 2.0626618433 2.0943951024 2.1261283615 2.1578616206 2.1895948798 2.2213281389 2.253061398 
2.2847946572 2.3165279163 2.3482611754 2.3799944345 2.4117276937 2.4434609528 2.4751942119 2.506927471 2.5386607302 
2.5703939893 2.6021272484 2.6338605076 2.6655937667 2.6973270258 2.7290602849 2.7607935441 2.7925268032 2.8242600623 
2.8559933214 2.8877265806 2.9194598397 2.9511930988 2.982926358 3.0146596171 3.0463928762 3.0781261353 3.1098593945 
3.1415926536 
_radius 1 100 double
1.4648213755e-14 0.24604811823 0.49093651677 0.73366853108 0.9735384089 1.2100115616 1.4424233413 1.6696108646 1.8896354974 
2.0997282753 2.2965128664 2.4764696181 2.6365344716 2.7746935899 2.8904384831 2.9849808029 3.0611820712 3.1232201426 
3.176076071 3.2249630913 3.2748148346 3.329898011 3.3935414435 3.4679288973 3.5539215456 3.6509375907 3.7569647771 
3.8687750508 3.9823530779 4.0934777439 4.1983462385 4.2941205757 4.3792993798 4.4538584829 4.5191513636 4.5776062418 
4.632290962 4.6864315944 4.7429647176 4.8041818497 4.8714951512 4.9453252407 5.0250945245 5.1093079817 5.1957118443 
5.28152532 5.3637320137 5.4393992266 5.5059777616 5.5615342912 5.6048848624 5.63562325 5.6540598502 5.6610982046 
5.6580765942 5.6465957387 5.6283464074 5.6049472271 5.5778040314 5.5480042225 5.516257671 5.4828874512 5.4478624876 
5.4108561391 5.3713137766 5.3285174662 5.2816427952 5.2298080408 5.1721180186 5.1077049688 5.0357684682 4.9556163563 
4.8667077369 4.7686955802 4.6614612452 4.5451305604 4.4200650289 4.2868321028 4.1461700622 3.9989686469 3.8462811657 
3.6893664467 3.5297328586 3.3691288694 3.2094075009 3.0522048394 2.89843786 2.7477450815 2.598102019 2.4458295516 
2.2860457999 2.1134196564 1.9230074437 1.7109931699 1.4752281083 1.2155281838 0.9337303947 0.63353626761 0.32018455325 
4.4027767243e-14 
_area 1 100 double
0 0.17184204838 0.68596642994 1.5389417946 2.7268979933 4.2460853354 6.0904052977 8.2450253169 10.677219907 
13.327569964 16.105622275 18.89354539 21.559091561 23.975909607 26.046433133 27.721337258 29.010054161 29.978921279 
30.737098768 31.414518103 32.138646468 33.01626893 34.124248925 35.509960412 37.196694904 39.187943115 41.468807513 
44.005070911 46.740680088 49.59611338 52.471155865 55.252256361 57.82510996 60.10048661 62.045490532 63.696373857 
65.146468895 66.520365302 67.947312904 69.540437775 71.382994343 73.520349496 75.954814864 78.641998774 81.492816052 
84.385989658 87.188080801 89.773426783 92.038313218 93.905823038 95.32129001 96.247546222 96.673298643 96.634547768 
96.234194251 95.614725727 94.858421375 93.998437233 93.071262794 92.112650477 91.149180532 90.19484738 89.24966706 
88.299732119 87.319429558 86.275616226 85.132094571 83.852700693 82.402816845 80.750434257 78.867594107 76.731930073 
74.327896701 71.648051183 68.695083948 65.48453072 62.046799646 58.426553506 54.678592354 50.861709122 47.033606457 
43.249219267 39.561944946 36.024405243 32.684719755 29.576740592 26.707368139 24.048370398 21.540062469 19.107691865 
16.683483872 14.225785597 11.731114879 9.2386850745 6.8277354409 4.6079938546 2.7045502367 1.2398063601 0.31582878998 
2.842170943e-14 
