# vtk DataFile Version 5.1
vtk output
ASCII
DATASET POLYDATA
POINTS 100 float
23.0721 41.8237 11.5072 23.0697 41.8145 11.5102 23.0609 41.7848 11.5164 
23.0455 41.7366 11.5258 23.0234 41.6726 11.5382 22.9946 41.5967 11.5533 
22.9589 41.5125 11.5708 22.9162 41.4241 11.5901 22.8663 41.3347 11.6106 
22.8092 41.2469 11.6316 22.7449 41.1623 11.6522 22.6732 41.0812 11.6717 
22.5941 41.0028 11.6892 22.5077 40.9255 11.7042 22.4141 40.8469 11.7162 
22.3133 40.7643 11.7251 22.2055 40.675 11.731 22.0906 40.5765 11.7343 
21.9689 40.4673 11.7359 21.8404 40.3462 11.7367 21.7053 40.2134 11.738 
21.5636 40.0698 11.7412 21.4153 39.9169 11.7476 21.2606 39.7571 11.7586 
21.0995 39.5928 11.7751 20.9322 39.4266 11.7982 20.7589 39.2607 11.8284 
20.5797 39.0969 11.8659 20.3951 38.9362 11.911 20.2054 38.7792 11.9632 
20.0112 38.6256 12.0221 19.8132 38.4745 12.0872 19.6119 38.3247 12.1579 
19.408 38.1748 12.2332 19.2024 38.0234 12.3127 18.9956 37.8692 12.3957 
18.7883 37.7111 12.4814 18.5809 37.5487 12.5695 18.3739 37.3817 12.6592 
18.1676 37.2103 12.7501 17.962 37.0351 12.8416 17.7572 36.8566 12.9332 
17.5531 36.6756 13.0244 17.3498 36.4927 13.1147 17.147 36.3082 13.2036 
16.9446 36.1224 13.2908 16.7427 35.9355 13.3761 16.5411 35.7471 13.4596 
16.3399 35.5572 13.5413 16.1391 35.3654 13.6216 15.9387 35.1717 13.7007 
15.7385 34.9761 13.7793 15.5382 34.7789 13.8578 15.3376 34.5806 13.9365 
15.136 34.382 14.0156 14.9325 34.1841 14.0951 14.7261 33.9877 14.1747 
14.5157 33.794 14.2539 14.2999 33.6037 14.3319 14.0776 33.4175 14.408 
13.8477 33.2356 14.4813 13.6091 33.0582 14.5511 13.3615 32.885 14.6168 
13.1046 32.7156 14.6783 12.8387 32.5494 14.7359 12.5647 32.3859 14.7905 
12.2839 32.2247 14.8432 11.9978 32.0656 14.8957 11.7085 31.9085 14.9498 
11.418 31.7539 15.0074 11.1284 31.6022 15.0704 10.8416 31.4543 15.1403 
10.5594 31.3109 15.2181 10.2832 31.1729 15.3042 10.0137 31.0408 15.3982 
9.75145 30.915 15.4993 9.49655 30.7954 15.6057 9.24867 30.6815 15.7153 
9.00731 30.5726 15.8256 8.77186 30.4672 15.9339 8.54175 30.3639 16.0379 
8.31656 30.2612 16.1353 8.09615 30.1572 16.2244 7.88072 30.0508 16.3043 
7.67083 29.9406 16.3743 7.46739 29.8263 16.4348 7.2716 29.7076 16.4865 
7.08488 29.5851 16.5305 6.90872 29.4599 16.5682 6.74463 29.3337 16.6009 
6.59396 29.2085 16.6298 6.45786 29.0866 16.6558 6.33723 28.9708 16.6797 
6.23264 28.8637 16.7015 6.14439 28.7678 16.721 6.07255 28.6855 16.7378 
6.01702 28.619 16.7512 5.9776 28.5699 16.7606 5.95408 28.5395 16.7655 
5.94632 28.5287 16.7653 
LINES 2 100
OFFSETS vtktypeint64
0 100 
CONNECTIVITY vtktypeint64
0 1 2 3 4 5 6 7 8 
9 10 11 12 13 14 15 16 17 
18 19 20 21 22 23 24 25 26 
27 28 29 30 31 32 33 34 35 
36 37 38 39 40 41 42 43 44 
45 46 47 48 49 50 51 52 53 
54 55 56 57 58 59 60 61 62 
63 64 65 66 67 68 69 70 71 
72 73 74 75 76 77 78 79 80 
81 82 83 84 85 86 87 88 89 
90 91 92 93 94 95 96 97 98 
99 
POINT_DATA 100
FIELD FieldData 3
_theta 1 100 double
0 0.031733259127 0.063466518254 0.095199777382 0.12693303651 0.15866629564 0.19039955476 0.22213281389 0.25386607302 
0.28559933214 0.31733259127 0.3490658504 0.38079910953 0.41253236865 0.44426562778 0.47599888691 0.50773214603 0.53946540516 
0.57119866429 0.60293192342 0.63466518254 0.66639844167 0.6981317008 0.72986495992 0.76159821905 0.79333147818 0.82506473731 
0.85679799643 0.88853125556 0.92026451469 0.95199777382 0.98373103294 1.0154642921 1.0471975512 1.0789308103 1.1106640695 
1.1423973286 1.1741305877 1.2058638468 1.237597106 1.2693303651 1.3010636242 1.3327968833 1.3645301425 1.3962634016 
1.4279966607 1.4597299198 1.491463179 1.5231964381 1.5549296972 1.5866629564 1.6183962155 1.6501294746 1.6818627337 
1.7135959929 1.745329252 1.7770625111 1.8087957702 1.8405290294 1.8722622885 1.9039955476 1.9357288068 1.9674620659 
1.999195325 2.0309285841 2.0626618433 2.0943951024 2.1261283615 2.1578616206 2.1895948798 2.2213281389 2.253061398 
2.2847946572 2.3165279163 2.3482611754 2.3799944345 2.4117276937 2.4434609528 2.4751942119 2.506927471 2.5386607302 
2.5703939893 2.6021272484 2.6338605076 2.6655937667 2.6973270258 2.7290602849 2.7607935441 2.7925268032 2.8242600623 
2.8559933214 2.8877265806 2.9194598397 2.9511930988 2.982926358 3.0146596171 3.0463928762 3.0781261353 3.1098593945 
3.1415926536 
_radius 1 100 double
8.1092197565e-14 0.26360859872 0.52635438674 0.78728888754 1.0455668031 1.3004894358 1.5515223309 1.79827216 2.0404128006 
2.2775645602 2.5091508854 2.7342748362 2.9516617594 3.1596995521 3.3565796274 3.5405133584 3.7099808475 3.8639638243 
4.0021191822 4.1248604903 4.2333302348 4.3292653725 4.4147812922 4.4921191418 4.5634108044 4.6305088529 4.6949064243 
4.75774214 4.8198596309 4.8818799084 4.9442513437 5.0072616082 5.0710181883 5.1354189699 5.2001372314 5.2646377061 
5.3282273822 5.3901320885 5.4495817551 5.5058853475 5.5584806825 5.6069527049 5.6510230217 5.6905200189 5.7253407674 
5.7554138186 5.7806683276 5.8010119449 5.816318281 5.8264238277 5.8311333278 5.8302318388 5.8235018409 5.8107447817 
5.7918073163 5.7666119819 5.7351901991 5.69771321 5.6545144404 5.606095368 5.5531073975 5.4963054506 5.4364747275 
5.3743390021 5.310464939 5.2451801769 5.1785214176 5.1102220682 5.0397393474 4.9663124271 4.8890396453 4.8069646591 
4.7191659344 4.6248471609 4.5234251952 4.4146072064 4.2984429217 4.1753354657 4.0459986599 3.9113606169 3.7724297489 
3.6301525096 3.4852941082 3.3383610054 3.1895630788 3.0387956231 2.885616508 2.7292042738 2.5683042657 2.4011931507 
2.2257056618 2.0393618045 1.8396093383 1.6241672285 1.3914301974 1.1408708451 0.87335508467 0.59128430906 0.29850755433 
1.9526397628e-14 
_area 1 100 double
0 0.20388661703 0.81007017135 1.8031381947 3.1606741153 4.8576399798 6.8712222739 9.1847079226 11.789006708 
14.681041469 17.858862746 21.313480813 25.01773942 28.915307345 32.916696173 36.906885357 40.76144978 44.364635669 
47.624611361 50.483408903 52.920711486 54.952227935 56.624564485 58.008617577 59.192646225 60.274808574 61.353526239 
62.51449275 63.81860171 65.299610469 66.972281414 68.842221062 70.910918373 73.174056833 75.614518397 78.19649083 
80.866710105 83.560773199 86.208981896 88.740704922 91.089385603 93.198006599 95.024678286 96.549596737 97.781295554 
98.756135228 99.521936338 100.11134028 100.53482612 100.79098546 100.87215112 100.76536584 100.45351475 99.918356613 
99.145888155 98.133043968 96.89353853 95.461046517 93.882214093 92.176761463 90.352313049 88.460417805 86.628861871 
84.892639288 83.206358289 81.549561401 79.897835786 78.221299151 76.485307497 74.650468377 72.67334999 70.509821459 
68.121756978 65.485873177 62.601893958 59.496943349 56.224143174 52.855139972 49.467932578 46.132626083 42.898628481 
39.787125528 36.791709023 33.887144723 31.042394759 28.232256825 25.44399801 22.678706549 19.948951082 17.274544992 
14.677963337 12.181092914 9.8051195302 7.5742672552 5.5219360365 3.6961530169 2.1607189052 0.98921485506 0.25196992729 
0 
