# vtk DataFile Version 5.1
vtk output
ASCII
DATASET POLYDATA
POINTS 1002 float
23.2872 40.0146 16.607 13.3487 34.5457 20.2487 23.3267 36.1403 10.9411 
14.9122 28.3003 11.924 14.4168 40.3011 13.7638 15.7446 37.7326 9.14913 
22.1998 32.9798 20.6857 24.5849 27.9966 15.6703 8.20853 32.4735 15.1281 
23.6923 44.1211 10.492 12.0578 26.9534 21.2199 30.1736 38.7877 15.667 
22.3697 39.2788 16.5796 21.3632 38.568 16.7079 20.28 37.9646 17.0714 
19.0754 37.4466 17.5719 17.6908 37.0103 18.1741 16.2631 36.6962 18.9507 
15.1288 36.4052 19.7373 14.4301 35.9416 20.2013 13.935 35.272 20.2915 
22.6116 40.1976 16.3119 21.8757 40.3077 15.9729 21.1106 40.2968 15.5879 
20.2139 40.298 15.2369 19.0753 40.4692 15.0451 17.819 40.703 14.9929 
16.713 40.7587 14.8797 15.8487 40.6155 14.5745 15.1157 40.4321 14.1551 
23.3315 39.3523 16.8591 23.2778 38.6853 17.1917 23.1207 38.192 17.8026 
22.874 37.9342 18.7808 22.571 37.6422 19.8665 22.3013 36.9351 20.6353 
22.1694 35.8249 20.9422 22.1786 34.6805 20.9524 22.2237 33.7436 20.8419 
23.7753 40.8118 16.402 24.272 41.5271 16.0006 24.7691 42.1734 15.4898 
25.1795 42.7842 15.0599 25.3258 43.2876 14.6603 25.1131 43.6314 14.0181 
24.6664 43.8998 13.0891 24.2119 44.1302 12.1063 23.8856 44.227 11.2358 
24.2257 40.3626 16.8135 25.1551 40.7372 16.984 26.0797 41.0755 17.0997 
27.1449 41.3168 17.2269 28.4165 41.3907 17.3742 29.6261 41.1744 17.3961 
30.3929 40.6141 17.1664 30.6224 39.8814 16.7284 30.4879 39.2368 16.2006 
13.1883 35.0912 19.9005 12.9279 35.7281 19.5466 12.6814 36.4771 19.1682 
12.6082 37.1904 18.5713 12.7456 37.7029 17.6185 13.0099 38.1134 16.5366 
13.3424 38.6448 15.6753 13.7202 39.2889 15.0498 14.0929 39.8675 14.4415 
13.8562 34.4298 20.5759 14.4068 34.269 20.8007 15.1983 34.0817 20.8437 
16.3229 33.8812 20.7837 17.5441 33.66 20.7723 18.5729 33.4542 20.7955 
19.4694 33.3273 20.7369 20.4286 33.255 20.6327 21.4019 33.1486 20.6119 
12.4648 34.175 20.0491 11.3799 33.8534 19.8975 10.3619 33.6101 19.6928 
9.61749 33.4044 19.3278 9.04738 33.1818 18.8333 8.49321 32.9571 18.2599 
8.05679 32.785 17.5454 7.90203 32.6707 16.679 7.99561 32.5738 15.8164 
12.8725 33.7367 20.4682 12.1924 32.8309 20.7938 11.5313 31.8867 21.2046 
11.1385 30.974 21.6033 10.9785 30.0391 21.9496 10.8465 28.9786 22.2867 
10.7722 27.9289 22.5411 10.9618 27.2071 22.4844 11.4459 26.9348 21.9991 
22.8038 35.3822 10.9298 22.17 34.6245 11.0125 21.4405 33.8347 11.1463 
20.6393 32.9479 11.2573 19.7316 32.0206 11.3807 18.696 31.1863 11.5728 
17.6173 30.44 11.7478 16.6067 29.6835 11.813 15.707 28.9317 11.831 
22.9121 36.1835 10.4222 22.4213 36.2315 9.92601 21.7781 36.3817 9.52002 
20.9764 36.6605 9.15972 20.0635 36.9527 8.77712 19.0868 37.152 8.45115 
18.1217 37.2999 8.35542 17.2521 37.4668 8.5343 16.48 37.629 8.8529 
23.4607 35.5357 11.3991 23.6465 34.7482 11.7746 23.8545 33.8284 12.0694 
24.023 32.9206 12.4657 24.1075 32.0997 13.0922 24.1503 31.2667 13.7665 
24.2532 30.3165 14.2507 24.4351 29.3339 14.61 24.5853 28.5207 15.0613 
23.568 36.9583 10.6774 23.861 37.8342 10.419 24.2114 38.7544 10.1979 
24.535 39.715 10.0441 24.7084 40.7198 9.94075 24.7123 41.7464 9.83742 
24.6119 42.7116 9.7535 24.415 43.4799 9.79987 24.0943 43.9473 10.057 
23.9188 36.5817 11.2924 24.6622 37.0232 11.6144 25.6182 37.4249 11.8397 
26.7348 37.8014 12.0089 27.8162 38.1694 12.2425 28.6737 38.4694 12.6298 
29.2843 38.6283 13.212 29.7256 38.6731 13.9872 30.0304 38.7041 14.8577 
14.7161 29.0855 11.7921 14.6287 29.9204 11.6297 14.6494 30.7866 11.3952 
14.7207 31.8321 11.1334 14.8288 33.0772 10.9051 15.0182 34.2411 10.6634 
15.2553 35.1435 10.3093 15.4422 35.9497 9.85565 15.5762 36.8308 9.43276 
15.6842 28.0127 12.0702 16.5715 27.9625 12.4388 17.5004 28.0835 12.9714 
18.4637 28.1684 13.5166 19.5724 28.0653 13.9466 20.8968 27.8227 14.2355 
22.2719 27.6059 14.4526 23.4065 27.5459 14.7195 24.1554 27.6851 15.128 
13.9995 28.3216 12.1199 13.0763 28.5639 12.5836 12.191 28.8901 13.1922 
11.3423 29.1697 13.7097 10.4768 29.4899 14.0104 9.62715 29.9998 14.184 
8.96431 30.6364 14.371 8.58483 31.2547 14.6061 8.38211 31.8487 14.8614 
14.5874 27.5469 12.1552 14.2222 26.9997 12.5823 13.7694 26.85 13.4122 
13.2142 26.9899 14.7013 12.6511 27.0798 16.1067 12.2528 27.0285 17.2156 
12.0824 27.026 18.0996 12.036 27.0908 19.0938 12.0202 27.0675 20.2226 
14.1848 40.4382 13.078 14.0264 40.5084 12.3737 14.0247 40.4852 11.7131 
14.1952 40.3232 11.0469 14.4485 40.0208 10.3535 14.6781 39.6603 9.77843 
14.8791 39.2907 9.44856 15.1173 38.8555 9.29666 15.4176 38.3166 9.20526 
13.4483 39.9847 13.9042 12.3719 39.622 14.1218 11.4202 39.0095 14.2912 
10.7151 38.0781 14.361 10.0647 37.0597 14.4239 9.28775 36.1868 14.5501 
8.57437 35.3808 14.6992 8.2016 34.4674 14.8402 8.15084 33.4579 14.9861 
15.1279 40.7993 13.3075 15.8452 41.4323 12.9318 16.6776 42.1288 12.6197 
17.6923 42.6942 12.2525 18.8001 42.9704 11.7981 19.8843 43.041 11.3902 
20.9259 43.173 11.107 21.9226 43.5009 10.8772 22.8465 43.8889 10.6547 
14.8075 37.2074 9.50598 13.7413 36.6443 9.84222 12.6716 36.1614 10.2588 
11.7754 35.7111 10.87 11.0714 35.1008 11.6774 10.3955 34.3348 12.5489 
9.66594 33.6742 13.3264 8.9936 33.2452 13.9553 8.50314 32.8997 14.5177 
16.4782 38.5454 8.7952 17.304 39.3064 8.45535 18.0579 40.1341 8.09789 
18.6475 41.183 7.68041 19.2875 42.2063 7.32166 20.2493 42.7651 7.35858 
21.3971 42.9596 7.9772 22.3674 43.2527 8.92064 23.0702 43.7304 9.80199 
22.5002 32.3405 20.6872 22.6852 31.558 20.7004 22.8908 30.7662 20.5152 
23.2678 30.1494 20.0464 23.7793 29.7154 19.4846 24.2322 29.2876 18.9812 
24.511 28.7928 18.3854 24.6414 28.3509 17.5371 24.6666 28.0801 16.5516 
21.6022 32.3607 20.3511 20.727 31.6078 19.9275 19.6344 30.6862 19.7737 
18.5902 29.7671 20.1253 17.7496 28.9611 20.7647 16.8718 28.168 21.3082 
15.6596 27.423 21.6376 14.2361 26.9697 21.7665 12.9738 26.8754 21.6337 
22.8829 33.3151 20.7545 23.5604 33.9052 20.5169 24.3511 34.7587 20.0431 
25.2409 35.6515 19.4894 26.0708 36.3781 18.8805 26.8411 37.0102 18.1912 
27.7506 37.6623 17.514 28.796 38.2281 16.9142 29.6827 38.5821 16.3194 
24.1388 27.4991 16.0296 23.3362 27.2375 16.5178 22.2351 27.1323 17.0891 
20.9419 27.0676 17.6464 19.4447 27.0046 18.1733 17.746 26.9695 18.7469 
16.0397 26.9717 19.387 14.5231 26.985 20.0366 13.213 26.9798 20.6565 
24.8964 28.7628 15.8645 25.1704 29.8151 16.0193 25.5582 31.0485 16.0417 
26.0397 32.3652 15.9724 26.4436 33.7767 15.9171 26.8262 35.2672 15.8601 
27.4869 36.631 15.7378 28.4707 37.6404 15.6142 29.4619 38.2961 15.5911 
8.10301 31.4736 15.6679 7.89993 30.3141 16.329 7.49787 29.2186 17.0762 
7.02453 28.3656 17.872 6.8936 27.7299 18.7415 7.43375 27.2496 19.6514 
8.51285 26.9817 20.4234 9.74558 26.932 20.9164 10.9222 26.9626 21.1531 
24.7471 44.1991 10.8538 26.1835 43.9431 11.3657 27.8437 43.5487 11.9482 
29.1954 43.2838 12.4084 29.8158 43.0151 12.7852 29.9255 42.3202 13.3312 
30.0636 41.1792 14.0686 30.3511 40.0518 14.7619 30.4699 39.2722 15.2785 
21.6374 39.4816 16.362 20.8585 39.6128 16.1495 20.5639 38.7837 16.6165 
19.9796 39.6802 15.9207 19.6815 38.9386 16.5548 19.3689 38.1549 17.0605 
18.88 39.8243 15.6991 18.6177 39.0825 16.4385 18.3384 38.3269 17.063 
18.0244 37.6283 17.581 17.6268 40.0403 15.5217 17.376 39.2729 16.2242 
17.1503 38.5334 16.9799 16.9047 37.8758 17.6143 16.5813 37.2664 18.2303 
16.4917 40.1225 15.3467 16.1973 39.3775 15.9363 15.9437 38.7023 16.7526 
15.7449 38.1515 17.5952 15.5204 37.5998 18.3104 15.2806 36.9938 19.0148 
15.6032 40.0208 15.0945 15.2644 39.3151 15.6229 14.9276 38.6992 16.4018 
14.6708 38.2738 17.4114 14.4883 37.846 18.3252 14.3797 37.2459 19.0209 
14.3657 36.5665 19.639 14.8424 39.903 14.769 14.4848 39.245 15.3211 
14.1018 38.622 16.0153 13.771 38.2016 17.0215 13.5387 37.8525 18.1074 
13.4613 37.3101 18.9131 13.565 36.5868 19.4407 13.7633 35.8815 19.8865 
23.0457 40.9842 16.0383 23.5012 41.7036 15.6455 22.2604 41.0043 15.5812 
23.9619 42.3531 15.2083 22.6487 41.6482 15.1468 21.4326 40.8747 15.0524 
24.2717 42.9081 14.7388 22.9789 42.2548 14.6789 21.6796 41.4416 14.5354 
20.4164 40.8348 14.6397 24.2146 43.3305 14.0995 23.0778 42.8117 14.0923 
21.7749 42.0562 13.999 20.4588 41.399 14.0931 19.1291 41.0342 14.506 
23.8035 43.6564 13.2596 22.8436 43.2727 13.374 21.6677 42.6853 13.401 
20.3527 42.0458 13.5329 19.026 41.598 13.9483 17.7884 41.255 14.4817 
23.3141 43.9003 12.3696 22.4322 43.5629 12.6255 21.4164 43.1498 12.7925 
20.203 42.6679 12.9627 18.8918 42.1946 13.3153 17.6775 41.756 13.812 
16.6798 41.2441 14.2568 22.9851 43.9876 11.5067 22.0921 43.6205 11.8239 
21.142 43.2879 12.0912 20.0597 43.0225 12.3281 18.8421 42.7107 12.6437 
17.6359 42.2601 13.043 16.6305 41.6783 13.4368 15.8365 41.039 13.7983 
22.1204 43.4127 9.7932 21.1627 43.0493 8.58328 20.9732 43.0634 9.79809 
19.9328 43.0006 7.40259 19.7358 42.9182 8.36216 19.7602 42.9227 9.95735 
18.8052 42.8633 6.93437 18.4482 42.9965 7.28819 18.439 42.9515 8.70936 
18.6471 42.9874 10.4797 18.1518 42.1171 7.35015 17.6276 42.666 7.28048 
17.3846 42.8779 8.14915 17.4762 42.9599 9.75541 17.6354 42.9232 11.2476 
17.7571 40.9867 8.09215 17.3144 41.6876 8.0587 16.9001 42.1857 8.50857 
16.6987 42.5143 9.62586 16.6684 42.6171 10.8901 16.666 42.4506 11.8606 
17.1586 39.9924 8.64282 16.9305 40.5796 8.79158 16.6011 41.0781 9.1158 
16.2484 41.5391 9.84315 15.9729 41.858 10.7669 15.8133 41.8882 11.5471 
15.773 41.6888 12.2144 16.2949 39.167 8.96076 16.1247 39.6837 9.14317 
15.9249 40.0896 9.40491 15.6483 40.4843 9.90888 15.3165 40.8698 10.623 
15.037 41.0946 11.3078 14.9145 41.0934 11.9079 14.9658 40.9627 12.5673 
13.1726 40.0909 13.2233 13.0216 40.0754 12.4594 12.1097 39.666 13.4189 
13.0472 39.9424 11.6508 12.0111 39.5804 12.55 11.2203 38.9864 13.5115 
13.191 39.6864 10.8257 12.0489 39.3795 11.5934 11.162 38.8743 12.5471 
10.5325 38.0318 13.4921 13.3477 39.3138 10.1098 12.1254 39.0246 10.7097 
11.1801 38.6058 11.5765 10.4632 37.878 12.5292 9.85613 36.9689 13.521 
13.5257 38.8627 9.66917 12.2386 38.4974 10.095 11.2487 38.0994 10.8253 
10.5071 37.4706 11.7233 9.83913 36.6472 12.6851 9.17508 35.9078 13.7005 
[...]
POINT_DATA 1002
FIELD FieldData 4
_paraPhi 1 1002 double
6.2831853072 3.1415926536 6.2831853072 3.1415926536 4.7123889804 4.7123889804 1.5707963268 1.5707963268 3.6951670125 
5.7296109483 2.5880182947 0.5535743589 6.2831853072 6.2831853072 6.2831853072 6.2831853072 3.1415926536 3.1415926536 
3.1415926536 3.1415926536 3.1415926536 6.1053039672 5.898798347 5.6768734901 5.4599499503 5.2659633393 5.1032165617 
4.9713148346 4.8656852733 4.7809517865 0.17788134 0.38438696014 0.60631181711 0.82323535693 1.0172219679 1.1799687454 
1.3118704726 1.4175000338 1.5022335207 6.1892828907 6.1070320098 6.035312792 5.9728339911 5.9183214791 5.8706119594 
5.8286879411 5.7916808611 5.7588591896 0.093902416448 0.17615329733 0.2478725152 0.31035131605 0.36486382811 0.41257334776 
0.45449736604 0.4915044461 0.52432611754 3.3194739936 3.5259796137 3.7479044707 3.9648280105 4.1588146215 4.321561399 
4.4534631262 4.5590926874 4.6438261743 2.9637113136 2.7572056934 2.5352808365 2.3183572967 2.1243706857 1.9616239082 
1.829722181 1.7240926197 1.6393591329 3.23549507 3.3177459509 3.3894651688 3.4519439696 3.5064564817 3.5541660013 
3.5960900196 3.6330970997 3.6659187711 3.0476902371 2.9654393563 2.8937201384 2.8312413375 2.7767288255 2.7290193058 
2.6870952876 2.6500882075 2.617266536 6.2831853072 6.2831853072 6.2831853072 6.2831853072 3.1415926536 3.1415926536 
3.1415926536 3.1415926536 3.1415926536 6.1053039672 5.898798347 5.6768734901 5.4599499503 5.2659633393 5.1032165617 
4.9713148346 4.8656852733 4.7809517865 0.17788134 0.38438696014 0.60631181711 0.82323535693 1.0172219679 1.1799687454 
1.3118704726 1.4175000338 1.5022335207 6.1892828907 6.1070320098 6.035312792 5.9728339911 5.9183214791 5.8706119594 
5.8286879411 5.7916808611 5.7588591896 0.093902416448 0.17615329733 0.2478725152 0.31035131605 0.36486382811 0.41257334776 
0.45449736604 0.4915044461 0.52432611754 3.3194739936 3.5259796137 3.7479044707 3.9648280105 4.1588146215 4.321561399 
4.4534631262 4.5590926874 4.6438261743 2.9637113136 2.7572056934 2.5352808365 2.3183572967 2.1243706857 1.9616239082 
1.829722181 1.7240926197 1.6393591329 3.23549507 3.3177459509 3.3894651688 3.4519439696 3.5064564817 3.5541660013 
3.5960900196 3.6330970997 3.6659187711 3.0476902371 2.9654393563 2.8937201384 2.8312413375 2.7767288255 2.7290193058 
2.6870952876 2.6500882075 2.617266536 4.7123889804 4.7123889804 4.7123889804 4.7123889804 4.7123889804 4.7123889804 
4.7123889804 4.7123889804 4.7123889804 4.6087898617 4.4991390697 4.3857031936 4.2712800401 4.1588146215 4.0509635631 
3.94975894 3.8564636551 3.7716124825 4.8159880991 4.9256388911 5.0390747672 5.1534979207 5.2659633393 5.3738143976 
5.4750190208 5.5683143056 5.6531654782 4.6087898617 4.4991390697 4.3857031936 4.2712800401 4.1588146215 4.0509635631 
3.94975894 3.8564636551 3.7716124825 4.8159880991 4.9256388911 5.0390747672 5.1534979207 5.2659633393 5.3738143976 
5.4750190208 5.5683143056 5.6531654782 1.5707963268 1.5707963268 1.5707963268 1.5707963268 1.5707963268 1.5707963268 
1.5707963268 1.5707963268 1.5707963268 1.6743954455 1.7840462375 1.8974821136 2.0119052671 2.1243706857 2.232221744 
2.3334263672 2.426721652 2.5115728246 1.4671972081 1.3575464161 1.24411054 1.1296873865 1.0172219679 0.90937090954 
0.80816628637 0.71487100155 0.63001982895 1.6743954455 1.7840462375 1.8974821136 2.0119052671 2.1243706857 2.232221744 
2.3334263672 2.426721652 2.5115728246 1.4671972081 1.3575464161 1.24411054 1.1296873865 1.0172219679 0.90937090954 
0.80816628637 0.71487100155 0.63001982895 3.6007720849 3.4966939854 3.3839471039 3.2645756454 3.1415926536 3.0186096618 
2.8992382033 2.7864913217 2.6824132222 5.8240058758 5.9280839753 6.0408308569 6.1602023154 6.2831853072 0.12298299178 
0.2423544503 0.35510133185 0.45917943135 6.0560271438 5.7885595667 5.9702140275 5.5125918794 5.6029703303 5.7885595667 
5.2659633393 5.2659633393 5.2659633393 5.2659633393 5.0674903122 5.0120975802 4.9155579264 4.7123889804 4.1588146215 
4.9155579264 4.8353719722 4.7123889804 4.5092200343 4.1588146215 3.6362183941 4.8004512023 4.7123889804 4.5894059886 
4.4126803806 4.1588146215 3.8218076305 3.4545639333 4.7123889804 4.6243267584 4.5092200343 4.3572876485 4.1588146215 
3.9121860814 3.6362183941 3.368750817 6.0174235957 5.9434319871 5.8263323547 5.8809213739 5.7674481418 5.6279784266 
5.8278025282 5.718968232 5.5891129425 5.4372443565 5.7823484065 5.678536687 5.5575666702 5.4192596322 5.2659633393 
5.743164462 5.6444075337 5.5314983644 5.4046708639 5.2659633393 5.1195510325 5.7091357773 5.6152775188 5.5096229709 
5.3926039573 5.2659633393 5.1329233157 4.9978930058 5.6793730533 5.5901633916 5.4910209005 5.3824597928 5.2659633393 
5.1440684722 5.0201624502 4.8979782167 5.5683143056 5.4750190208 5.4750190208 5.3738143976 5.3738143976 5.3738143976 
5.2659633393 5.2659633393 5.2659633393 5.2659633393 5.1534979207 5.1534979207 5.1534979207 5.1534979207 5.1534979207 
5.0390747672 5.0390747672 5.0390747672 5.0390747672 5.0390747672 5.0390747672 4.9256388911 4.9256388911 4.9256388911 
4.9256388911 4.9256388911 4.9256388911 4.9256388911 4.8159880991 4.8159880991 4.8159880991 4.8159880991 4.8159880991 
4.8159880991 4.8159880991 4.8159880991 4.6087898617 4.6087898617 4.4991390697 4.6087898617 4.4991390697 4.3857031936 
4.6087898617 4.4991390697 4.3857031936 4.2712800401 4.6087898617 4.4991390697 4.3857031936 4.2712800401 4.1588146215 
4.6087898617 4.4991390697 4.3857031936 4.2712800401 4.1588146215 4.0509635631 4.6087898617 4.4991390697 4.3857031936 
4.2712800401 4.1588146215 4.0509635631 3.94975894 4.6087898617 4.4991390697 4.3857031936 4.2712800401 4.1588146215 
4.0509635631 3.94975894 3.8564636551 4.526799744 4.4046155105 4.426884955 4.2807094886 4.2918546451 4.3052269283 
4.1588146215 4.1588146215 4.1588146215 4.1588146215 4.042318168 4.0321740035 4.0201070968 4.0055183285 3.9875336042 
3.9337570603 3.9151549899 3.8932795963 3.8672112905 3.8356650183 3.7967995342 3.8346145692 3.809500442 3.7803704271 
3.7462412737 3.7058097288 3.657329819 3.5984456061 3.7454049075 3.7156421835 3.6816134988 3.6424295543 3.5969754326 
3.5438565869 3.4813459737 3.4073543651 3.5642842451 3.4524645613 3.5233842518 3.3320300872 3.403123212 3.4773852225 
3.20576226 3.2746326772 3.348015857 3.4255060145 3.0774230472 3.1415926536 3.2112816139 3.2864685043 3.3668817272 
2.95115522 3.00855263 3.0719036933 3.1415926536 3.2178377658 3.3005964304 2.8307207459 2.8800620952 2.9351694502 
2.9967168029 3.0653475414 3.1415926536 3.225752376 2.718901062 2.7598010554 2.8058000847 2.8576792927 2.91630358 
2.9825888767 3.0574329311 3.1415926536 3.5642842451 3.5233842518 3.4524645613 3.4773852225 3.403123212 3.3320300872 
3.4255060145 3.348015857 3.2746326772 3.20576226 3.3668817272 3.2864685043 3.2112816139 3.1415926536 3.0774230472 
3.3005964304 3.2178377658 3.1415926536 3.0719036933 3.00855263 2.95115522 3.225752376 3.1415926536 3.0653475414 
2.9967168029 2.9351694502 2.8800620952 2.8307207459 3.1415926536 3.0574329311 2.9825888767 2.91630358 2.8576792927 
2.8058000847 2.7598010554 2.718901062 4.526799744 4.426884955 4.4046155105 4.3052269283 4.2918546451 4.2807094886 
4.1588146215 4.1588146215 4.1588146215 4.1588146215 3.9875336042 4.0055183285 4.0201070968 4.0321740035 4.042318168 
3.7967995342 3.8356650183 3.8672112905 3.8932795963 3.9151549899 3.9337570603 3.5984456061 3.657329819 3.7058097288 
3.7462412737 3.7803704271 3.809500442 3.8346145692 3.4073543651 3.4813459737 3.5438565869 3.5969754326 3.6424295543 
3.6816134988 3.7156421835 3.7454049075 4.7123889804 4.8004512023 4.6243267584 4.9155579264 4.7123889804 4.5092200343 
5.0674903122 4.8353719722 4.5894059886 4.3572876485 5.2659633393 5.0120975802 4.7123889804 4.4126803806 4.1588146215 
5.5125918794 5.2659633393 4.9155579264 4.5092200343 4.1588146215 3.9121860814 5.7885595667 5.6029703303 5.2659633393 
4.7123889804 4.1588146215 3.8218076305 3.6362183941 6.0560271438 5.9702140275 5.7885595667 5.2659633393 4.1588146215 
3.6362183941 3.4545639333 3.368750817 0.22715816343 0.49462574053 0.3129712797 0.77059342779 0.68021497688 0.49462574053 
1.0172219679 1.0172219679 1.0172219679 1.0172219679 1.2156949949 1.271087727 1.3676273807 1.5707963268 2.1243706857 
1.3676273807 1.447813335 1.5707963268 1.7739652728 2.1243706857 2.6469669131 1.4827341049 1.5707963268 1.6937793186 
1.8705049266 2.1243706857 2.4613776767 2.8286213739 1.5707963268 1.6588585487 1.7739652728 1.9258976586 2.1243706857 
2.3709992258 2.6469669131 2.9144344902 1.7563855631 1.8785697967 1.8563003522 2.0024758186 1.9913306621 1.9779583789 
2.1243706857 2.1243706857 2.1243706857 2.1243706857 2.2408671392 2.2510113037 2.2630782103 2.2776669786 2.295651703 
2.3494282469 2.3680303173 2.3899057108 2.4159740166 2.4475202889 2.486385773 2.448570738 2.4736848652 2.5028148801 
2.5369440334 2.5773755784 2.6258554882 2.6847397011 2.5377803997 2.5675431237 2.6015718084 2.6407557529 2.6862098746 
2.7393287203 2.8018393335 2.8758309421 1.6743954455 1.6743954455 1.7840462375 1.6743954455 1.7840462375 1.8974821136 
1.6743954455 1.7840462375 1.8974821136 2.0119052671 1.6743954455 1.7840462375 1.8974821136 2.0119052671 2.1243706857 
1.6743954455 1.7840462375 1.8974821136 2.0119052671 2.1243706857 2.232221744 1.6743954455 1.7840462375 1.8974821136 
2.0119052671 2.1243706857 2.232221744 2.3334263672 1.6743954455 1.7840462375 1.8974821136 2.0119052671 2.1243706857 
2.232221744 2.3334263672 2.426721652 1.4671972081 1.3575464161 1.4671972081 1.24411054 1.3575464161 1.4671972081 
1.1296873865 1.24411054 1.3575464161 1.4671972081 1.0172219679 1.1296873865 1.24411054 1.3575464161 1.4671972081 
0.90937090954 1.0172219679 1.1296873865 1.24411054 1.3575464161 1.4671972081 0.80816628637 0.90937090954 1.0172219679 
1.1296873865 1.24411054 1.3575464161 1.4671972081 0.71487100155 0.80816628637 0.90937090954 1.0172219679 1.1296873865 
1.24411054 1.3575464161 1.4671972081 0.60381225391 0.57404952988 0.69302191562 0.54002084522 0.66790778838 0.79216440667 
0.50083690068 0.63877777351 0.77356233629 0.90072551443 0.45538277901 0.60464862014 0.75168694275 0.89058134991 1.0172219679 
0.40226393329 0.56421707518 0.72561863695 0.87851444325 1.0172219679 1.139116835 0.33975332011 0.51573716537 0.69407236469 
0.86392567495 1.0172219679 1.1502619915 1.2630228569 0.26576171152 0.45685295248 0.6552068806 0.84594095064 1.0172219679 
1.1636342747 1.2852923014 1.3852070904 0.22715816343 0.3129712797 0.49462574053 0.49462574053 0.68021497688 0.77059342779 
1.0172219679 1.0172219679 1.0172219679 1.0172219679 2.1243706857 1.5707963268 1.3676273807 1.271087727 1.2156949949 
2.6469669131 2.1243706857 1.7739652728 1.5707963268 1.447813335 1.3676273807 2.8286213739 2.4613776767 2.1243706857 
1.8705049266 1.6937793186 1.5707963268 1.4827341049 2.9144344902 2.6469669131 2.3709992258 2.1243706857 1.9258976586 
1.7739652728 1.6588585487 1.5707963268 1.7563855631 1.8563003522 1.8785697967 1.9779583789 1.9913306621 2.0024758186 
2.1243706857 2.1243706857 2.1243706857 2.1243706857 2.295651703 2.2776669786 2.2630782103 2.2510113037 2.2408671392 
2.486385773 2.4475202889 2.4159740166 2.3899057108 2.3680303173 2.3494282469 2.6847397011 2.6258554882 2.5773755784 
2.5369440334 2.5028148801 2.4736848652 2.448570738 2.8758309421 2.8018393335 2.7393287203 2.6862098746 2.6407557529 
2.6015718084 2.5675431237 2.5377803997 5.8604937156 5.901393709 5.9723133995 5.9473927383 6.0216547488 6.0927478736 
5.9992719463 6.0767621038 6.1501452836 6.2190157008 6.0578962336 6.1383094565 6.2134963469 0 0.064169606361 
6.1241815303 6.206940195 6.2831853072 0.069688960264 0.13304002361 0.19043743361 6.1990255847 0 0.07624511221 
0.14487585072 0.20642320337 0.26153055843 0.3108719077 0 0.084159722458 0.15900377685 0.22528907359 0.28391336087 
0.3357925689 0.38179159818 0.42269159155 5.8604937156 5.9723133995 5.901393709 6.0927478736 6.0216547488 5.9473927383 
6.2190157008 6.1501452836 6.0767621038 5.9992719463 0.064169606361 0 6.2134963469 6.1383094565 6.0578962336 
0.19043743361 0.13304002361 0.069688960264 6.2831853072 6.206940195 6.1241815303 0.3108719077 0.26153055843 0.20642320337 
0.14487585072 0.07624511221 6.2831853072 6.1990255847 0.42269159155 0.38179159818 0.3357925689 0.28391336087 0.22528907359 
0.15900377685 0.084159722458 0 5.6793730533 5.7091357773 5.5901633916 5.743164462 5.6152775188 5.4910209005 
5.7823484065 5.6444075337 5.5096229709 5.3824597928 5.8278025282 5.678536687 5.5314983644 5.3926039573 5.2659633393 
5.8809213739 5.718968232 5.5575666702 5.4046708639 5.2659633393 5.1440684722 5.9434319871 5.7674481418 5.5891129425 
5.4192596322 5.2659633393 5.1329233157 5.0201624502 6.0174235957 5.8263323547 5.6279784266 5.4372443565 5.2659633393 
5.1195510325 4.9978930058 4.8979782167 1.3852070904 1.2852923014 1.2630228569 1.1636342747 1.1502619915 1.139116835 
1.0172219679 1.0172219679 1.0172219679 1.0172219679 0.84594095064 0.86392567495 0.87851444325 0.89058134991 0.90072551443 
0.6552068806 0.69407236469 0.72561863695 0.75168694275 0.77356233629 0.79216440667 0.45685295248 0.51573716537 0.56421707518 
0.60464862014 0.63877777351 0.66790778838 0.69302191562 0.26576171152 0.33975332011 0.40226393329 0.45538277901 0.50083690068 
0.54002084522 0.57404952988 0.60381225391 
_paraPhiHalf 1 1002 double
0 3.1415926536 0 3.1415926536 1.5707963268 1.5707963268 1.5707963268 1.5707963268 2.5880182947 
0.5535743589 2.5880182947 0.5535743589 0 0 0 0 3.1415926536 3.1415926536 
3.1415926536 3.1415926536 3.1415926536 0.17788134 0.38438696014 0.60631181711 0.82323535693 1.0172219679 1.1799687454 
1.3118704726 1.4175000338 1.5022335207 0.17788134 0.38438696014 0.60631181711 0.82323535693 1.0172219679 1.1799687454 
1.3118704726 1.4175000338 1.5022335207 0.093902416448 0.17615329733 0.2478725152 0.31035131605 0.36486382811 0.41257334776 
0.45449736604 0.4915044461 0.52432611754 0.093902416448 0.17615329733 0.2478725152 0.31035131605 0.36486382811 0.41257334776 
0.45449736604 0.4915044461 0.52432611754 2.9637113136 2.7572056934 2.5352808365 2.3183572967 2.1243706857 1.9616239082 
1.829722181 1.7240926197 1.6393591329 2.9637113136 2.7572056934 2.5352808365 2.3183572967 2.1243706857 1.9616239082 
1.829722181 1.7240926197 1.6393591329 3.0476902371 2.9654393563 2.8937201384 2.8312413375 2.7767288255 2.7290193058 
2.6870952876 2.6500882075 2.617266536 3.0476902371 2.9654393563 2.8937201384 2.8312413375 2.7767288255 2.7290193058 
2.6870952876 2.6500882075 2.617266536 0 0 0 0 3.1415926536 3.1415926536 
3.1415926536 3.1415926536 3.1415926536 0.17788134 0.38438696014 0.60631181711 0.82323535693 1.0172219679 1.1799687454 
1.3118704726 1.4175000338 1.5022335207 0.17788134 0.38438696014 0.60631181711 0.82323535693 1.0172219679 1.1799687454 
1.3118704726 1.4175000338 1.5022335207 0.093902416448 0.17615329733 0.2478725152 0.31035131605 0.36486382811 0.41257334776 
0.45449736604 0.4915044461 0.52432611754 0.093902416448 0.17615329733 0.2478725152 0.31035131605 0.36486382811 0.41257334776 
0.45449736604 0.4915044461 0.52432611754 2.9637113136 2.7572056934 2.5352808365 2.3183572967 2.1243706857 1.9616239082 
1.829722181 1.7240926197 1.6393591329 2.9637113136 2.7572056934 2.5352808365 2.3183572967 2.1243706857 1.9616239082 
1.829722181 1.7240926197 1.6393591329 3.0476902371 2.9654393563 2.8937201384 2.8312413375 2.7767288255 2.7290193058 
2.6870952876 2.6500882075 2.617266536 3.0476902371 2.9654393563 2.8937201384 2.8312413375 2.7767288255 2.7290193058 
2.6870952876 2.6500882075 2.617266536 1.5707963268 1.5707963268 1.5707963268 1.5707963268 1.5707963268 1.5707963268 
1.5707963268 1.5707963268 1.5707963268 1.6743954455 1.7840462375 1.8974821136 2.0119052671 2.1243706857 2.232221744 
2.3334263672 2.426721652 2.5115728246 1.4671972081 1.3575464161 1.24411054 1.1296873865 1.0172219679 0.90937090954 
0.80816628637 0.71487100155 0.63001982895 1.6743954455 1.7840462375 1.8974821136 2.0119052671 2.1243706857 2.232221744 
2.3334263672 2.426721652 2.5115728246 1.4671972081 1.3575464161 1.24411054 1.1296873865 1.0172219679 0.90937090954 
0.80816628637 0.71487100155 0.63001982895 1.5707963268 1.5707963268 1.5707963268 1.5707963268 1.5707963268 1.5707963268 
1.5707963268 1.5707963268 1.5707963268 1.6743954455 1.7840462375 1.8974821136 2.0119052671 2.1243706857 2.232221744 
2.3334263672 2.426721652 2.5115728246 1.4671972081 1.3575464161 1.24411054 1.1296873865 1.0172219679 0.90937090954 
0.80816628637 0.71487100155 0.63001982895 1.6743954455 1.7840462375 1.8974821136 2.0119052671 2.1243706857 2.232221744 
2.3334263672 2.426721652 2.5115728246 1.4671972081 1.3575464161 1.24411054 1.1296873865 1.0172219679 0.90937090954 
0.80816628637 0.71487100155 0.63001982895 2.6824132222 2.7864913217 2.8992382033 3.0186096618 3.1415926536 3.0186096618 
2.8992382033 2.7864913217 2.6824132222 0.45917943135 0.35510133185 0.2423544503 0.12298299178 0 0.12298299178 
0.2423544503 0.35510133185 0.45917943135 0.22715816343 0.49462574053 0.3129712797 0.77059342779 0.68021497688 0.49462574053 
1.0172219679 1.0172219679 1.0172219679 1.0172219679 1.2156949949 1.271087727 1.3676273807 1.5707963268 2.1243706857 
1.3676273807 1.447813335 1.5707963268 1.7739652728 2.1243706857 2.6469669131 1.4827341049 1.5707963268 1.6937793186 
1.8705049266 2.1243706857 2.4613776767 2.8286213739 1.5707963268 1.6588585487 1.7739652728 1.9258976586 2.1243706857 
2.3709992258 2.6469669131 2.9144344902 0.26576171152 0.33975332011 0.45685295248 0.40226393329 0.51573716537 0.6552068806 
0.45538277901 0.56421707518 0.69407236469 0.84594095064 0.50083690068 0.60464862014 0.72561863695 0.86392567495 1.0172219679 
0.54002084522 0.63877777351 0.75168694275 0.87851444325 1.0172219679 1.1636342747 0.57404952988 0.66790778838 0.77356233629 
0.89058134991 1.0172219679 1.1502619915 1.2852923014 0.60381225391 0.69302191562 0.79216440667 0.90072551443 1.0172219679 
1.139116835 1.2630228569 1.3852070904 0.71487100155 0.80816628637 0.80816628637 0.90937090954 0.90937090954 0.90937090954 
1.0172219679 1.0172219679 1.0172219679 1.0172219679 1.1296873865 1.1296873865 1.1296873865 1.1296873865 1.1296873865 
1.24411054 1.24411054 1.24411054 1.24411054 1.24411054 1.24411054 1.3575464161 1.3575464161 1.3575464161 
1.3575464161 1.3575464161 1.3575464161 1.3575464161 1.4671972081 1.4671972081 1.4671972081 1.4671972081 1.4671972081 
1.4671972081 1.4671972081 1.4671972081 1.6743954455 1.6743954455 1.7840462375 1.6743954455 1.7840462375 1.8974821136 
1.6743954455 1.7840462375 1.8974821136 2.0119052671 1.6743954455 1.7840462375 1.8974821136 2.0119052671 2.1243706857 
1.6743954455 1.7840462375 1.8974821136 2.0119052671 2.1243706857 2.232221744 1.6743954455 1.7840462375 1.8974821136 
2.0119052671 2.1243706857 2.232221744 2.3334263672 1.6743954455 1.7840462375 1.8974821136 2.0119052671 2.1243706857 
2.232221744 2.3334263672 2.426721652 1.7563855631 1.8785697967 1.8563003522 2.0024758186 1.9913306621 1.9779583789 
2.1243706857 2.1243706857 2.1243706857 2.1243706857 2.2408671392 2.2510113037 2.2630782103 2.2776669786 2.295651703 
2.3494282469 2.3680303173 2.3899057108 2.4159740166 2.4475202889 2.486385773 2.448570738 2.4736848652 2.5028148801 
2.5369440334 2.5773755784 2.6258554882 2.6847397011 2.5377803997 2.5675431237 2.6015718084 2.6407557529 2.6862098746 
2.7393287203 2.8018393335 2.8758309421 2.718901062 2.8307207459 2.7598010554 2.95115522 2.8800620952 2.8058000847 
3.0774230472 3.00855263 2.9351694502 2.8576792927 3.0774230472 3.1415926536 3.0719036933 2.9967168029 2.91630358 
2.95115522 3.00855263 3.0719036933 3.1415926536 3.0653475414 2.9825888767 2.8307207459 2.8800620952 2.9351694502 
2.9967168029 3.0653475414 3.1415926536 3.0574329311 2.718901062 2.7598010554 2.8058000847 2.8576792927 2.91630358 
2.9825888767 3.0574329311 3.1415926536 2.718901062 2.7598010554 2.8307207459 2.8058000847 2.8800620952 2.95115522 
2.8576792927 2.9351694502 3.00855263 3.0774230472 2.91630358 2.9967168029 3.0719036933 3.1415926536 3.0774230472 
2.9825888767 3.0653475414 3.1415926536 3.0719036933 3.00855263 2.95115522 3.0574329311 3.1415926536 3.0653475414 