# vtk DataFile Version 5.1
vtk output
ASCII
DATASET POLYDATA
POINTS 1002 float
-5.58078 -0.183901 -5.05705 5.17923 0.326415 -4.05277 -4.95642 0.495539 4.30813 
5.04327 -0.697229 2.65531 0.659641 6.32202 -2.74401 -0.146019 6.61886 3.44254 
-0.117327 -6.80336 -2.79339 0.16594 -7.11267 3.75742 9.80397 5.26923 0.461981 
-9.67145 4.37689 0.0716686 9.24034 -4.18041 0.0665335 -8.96448 -4.01053 0.306306 
-4.58363 -0.30638 -5.09204 -3.55311 -0.410823 -5.19351 -2.48474 -0.50508 -5.30766 
-1.31115 -0.556451 -5.34494 -0.060907 -0.493105 -5.25391 1.12558 -0.305298 -5.03961 
2.20946 -0.0806758 -4.75627 3.26389 0.10003 -4.48143 4.28301 0.227908 -4.25317 
-5.4245 0.50735 -5.03846 -5.10227 1.1659 -4.95007 -4.60306 1.76023 -4.75969 
-3.9959 2.39613 -4.52768 -3.35959 3.1929 -4.35073 -2.68445 4.04624 -4.20786 
-1.90839 4.74572 -3.96937 -1.03492 5.27959 -3.58526 -0.149363 5.78534 -3.14276 
-5.03437 -1.00174 -5.08467 -4.43154 -1.89101 -5.1806 -3.82182 -2.83004 -5.32903 
-3.22037 -3.83112 -5.42423 -2.62025 -4.78634 -5.32118 -2.05363 -5.47455 -4.93483 
-1.56605 -5.87063 -4.3283 -1.12389 -6.17845 -3.68721 -0.647298 -6.51002 -3.16758 
-6.53218 0.394709 -5.06514 -7.53247 0.996762 -5.0258 -8.47073 1.55236 -4.76117 
-9.23506 1.99143 -4.1626 -9.79877 2.36717 -3.35026 -10.1876 2.83416 -2.55379 
-10.3622 3.39987 -1.86435 -10.2738 3.88873 -1.22599 -9.9966 4.19622 -0.581351 
-6.22422 -0.530402 -5.05757 -6.80658 -0.888264 -5.01193 -7.30353 -1.26064 -4.77934 
-7.75546 -1.64699 -4.20417 -8.16006 -2.00468 -3.31941 -8.4382 -2.29065 -2.38527 
-8.59473 -2.57131 -1.6019 -8.73858 -2.97217 -0.932884 -8.89408 -3.49736 -0.289013 
4.90008 0.931859 -4.14734 4.5706 1.59619 -4.27498 4.20251 2.32652 -4.46679 
3.72944 3.12119 -4.60721 3.09738 3.92798 -4.55034 2.41739 4.65904 -4.31787 
1.86549 5.2559 -4.00763 1.45597 5.71442 -3.63127 1.07551 6.06009 -3.18927 
4.87895 -0.334787 -4.05305 4.48902 -1.04485 -3.99024 3.98985 -1.76679 -3.84166 
3.3808 -2.4792 -3.64719 2.70341 -3.21859 -3.49431 2.01984 -4.02778 -3.42727 
1.37319 -4.86627 -3.38136 0.791071 -5.63651 -3.25854 0.294737 -6.27985 -3.04382 
5.84879 0.798894 -3.91101 6.52287 1.33585 -3.72947 7.21629 1.94597 -3.4525 
7.94697 2.61453 -3.02972 8.70332 3.28853 -2.48815 9.43528 3.90295 -1.92073 
10.0224 4.42361 -1.3677 10.297 4.8377 -0.784671 10.1901 5.12467 -0.152869 
5.81129 0.00766726 -3.81072 6.37614 -0.355403 -3.42879 6.90354 -0.768054 -2.9398 
7.4664 -1.19658 -2.4484 8.02908 -1.60187 -1.97271 8.47398 -2.03664 -1.44205 
8.79298 -2.58044 -0.905945 9.05049 -3.18499 -0.504637 9.22292 -3.73168 -0.231247 
-4.02508 0.491061 4.35586 -3.14218 0.5296 4.338 -2.22539 0.566546 4.19035 
-1.20286 0.49817 3.93419 -0.124533 0.308325 3.67475 0.943709 0.117159 3.47149 
2.02364 -0.0175988 3.29293 3.11858 -0.18457 3.09708 4.15021 -0.436495 2.87704 
-4.68742 1.18122 4.66946 -4.4147 1.93766 5.05286 -4.06396 2.67932 5.30045 
-3.55107 3.39488 5.37599 -2.89839 4.16549 5.43817 -2.24523 4.98143 5.51151 
-1.6963 5.65789 5.33593 -1.21641 6.07044 4.77549 -0.711182 6.32759 4.04863 
-4.65536 -0.13424 3.99706 -4.37062 -0.75438 3.6114 -3.99422 -1.48134 3.17583 
-3.41042 -2.46518 2.79783 -2.66756 -3.63611 2.56661 -1.93714 -4.69203 2.49024 
-1.31052 -5.46128 2.62454 -0.767105 -6.05786 3.01766 -0.277421 -6.61624 3.49413 
-5.84511 0.945401 4.40307 -6.87035 1.43437 4.37044 -7.83465 1.88189 4.14447 
-8.55721 2.27877 3.7404 -9.07489 2.68998 3.2937 -9.52791 3.1187 2.87942 
-9.88312 3.50218 2.36952 -10.0056 3.83428 1.64689 -9.89582 4.13752 0.815262 
-5.7955 0.114097 4.11943 -6.72553 -0.27064 4.02394 -7.6157 -0.643245 3.91233 
-8.41057 -1.02937 3.59156 -9.15496 -1.52429 3.04617 -9.78409 -2.18181 2.48699 
-10.0754 -2.88511 2.02652 -9.93029 -3.44757 1.54696 -9.49317 -3.80221 0.951504 
4.60135 0.101806 2.63065 4.22743 0.954407 2.77301 3.81495 1.85387 3.0436 
3.19811 2.74913 3.21762 2.45222 3.5783 3.16793 1.8401 4.3465 3.10882 
1.40174 5.06236 3.27129 0.946241 5.68149 3.52994 0.397048 6.1888 3.61324 
4.97622 -1.36189 2.82911 4.78372 -2.09607 2.86476 4.41207 -2.84304 2.80558 
3.91603 -3.46614 2.87503 3.36557 -3.91304 3.17425 2.72847 -4.36622 3.49513 
1.98403 -5.01882 3.63622 1.24763 -5.80213 3.66201 0.642765 -6.52506 3.70364 
5.55764 -0.396679 2.36085 6.11166 0.0217493 2.09375 6.79073 0.525825 1.97999 
7.54317 1.04497 1.98227 8.20838 1.60012 1.94046 8.72793 2.31789 1.80273 
9.15818 3.21265 1.63207 9.50371 4.09835 1.40474 9.71925 4.79335 1.01974 
5.87838 -1.31345 2.62636 6.70669 -1.84434 2.68865 7.43046 -2.25891 2.81617 
8.14087 -2.70673 3.00652 8.96397 -3.27772 3.18092 9.72375 -3.77378 3.07631 
10.0866 -4.00113 2.48183 9.99263 -4.05888 1.55287 9.64837 -4.11534 0.668958 
0.829999 6.82146 -2.2645 0.927518 7.29157 -1.77422 0.960103 7.60117 -1.18892 
0.951896 7.75207 -0.465224 0.897304 7.89371 0.299914 0.756946 8.04205 0.999767 
0.510558 7.99279 1.65187 0.212425 7.63955 2.29907 -0.0296696 7.12102 2.91392 
1.71503 6.72826 -2.64064 2.79643 7.09197 -2.54621 3.87368 7.36356 -2.45305 
5.00927 7.59401 -2.31038 6.22915 7.79528 -2.09107 7.36418 7.77443 -1.78736 
8.22385 7.3657 -1.3373 8.839 6.69209 -0.717489 9.34981 5.97029 -0.0600978 
-0.288893 6.19025 -2.5192 -1.29218 6.03599 -2.24712 -2.33474 5.88941 -1.95313 
-3.5021 5.73507 -1.66739 -4.80506 5.5607 -1.38447 -6.06082 5.4093 -1.08792 
-7.12259 5.29121 -0.805116 -8.04197 5.11572 -0.557055 -8.89835 4.80146 -0.288445 
0.800263 6.81785 3.21801 1.78741 7.14402 3.17126 2.77181 7.28475 3.04955 
3.85069 6.96066 2.59123 5.09699 6.3805 1.93309 6.31936 6.03528 1.45777 
7.3041 6.01762 1.24518 8.14179 5.9936 1.06545 8.99562 5.72843 0.785056 
-1.03707 6.84919 3.48475 -1.92768 7.09117 3.51176 -2.79933 7.09864 3.41354 
-3.74931 6.70648 3.07789 -4.84627 6.14769 2.56144 -5.9969 5.78471 2.02229 
-7.06676 5.59128 1.50856 -8.02022 5.29896 0.993068 -8.88213 4.84539 0.50029 
-0.0168046 -7.22396 -2.41049 0.0243779 -7.54363 -1.88214 -0.034536 -7.77606 -1.0953 
-0.130532 -8.05246 -0.104238 -0.1659 -8.42475 0.863645 -0.119544 -8.70806 1.69657 
-0.0292782 -8.67204 2.48532 0.0672796 -8.29378 3.2116 0.137608 -7.7225 3.67126 
0.751904 -6.73137 -2.63817 1.77384 -6.65066 -2.52194 2.80286 -6.62691 -2.45262 
3.72005 -6.5913 -2.32191 4.63927 -6.34621 -1.94761 5.72144 -5.87552 -1.36292 
6.83998 -5.40211 -0.843891 7.76859 -5.02716 -0.52216 8.51981 -4.64197 -0.263546 
-0.835556 -7.13833 -2.74087 -1.59076 -7.52059 -2.68518 -2.44128 -7.92177 -2.57491 
-3.36914 -8.14543 -2.31262 -4.27029 -7.9298 -1.86441 -5.13726 -7.25861 -1.34127 
-6.07061 -6.39353 -0.886797 -7.07594 -5.55028 -0.514677 -8.05909 -4.76037 -0.136204 
0.945134 -7.12795 3.70733 1.96209 -6.99268 3.41226 3.1709 -6.89678 3.02739 
4.30688 -7.02662 2.74565 5.18404 -7.23778 2.47562 5.96238 -7.14006 1.96271 
6.85826 -6.58064 1.24157 7.80835 -5.76446 0.611913 8.62609 -4.93332 0.242748 
-0.576856 -7.31356 3.71047 -1.52875 -7.42665 3.56594 -2.74682 -7.52008 3.26307 
-3.95361 -7.51313 2.80871 -4.80376 -7.21281 2.27176 -5.42393 -6.66577 1.72715 
-6.23386 -6.11169 1.24325 -7.28855 -5.5684 0.862517 -8.2727 -4.87371 0.56603 
10.4671 4.44558 0.5068 10.8969 3.47974 0.507605 10.9832 2.37951 0.460023 
10.9685 1.18885 0.351955 11.2147 0.0439174 0.228055 11.5923 -0.932039 0.186285 
11.5714 -1.76904 0.238293 10.9664 -2.57865 0.273668 10.0821 -3.39939 0.207418 
-10.6119 3.84969 0.127724 -11.6096 3.4212 0.272737 -12.5946 3.04443 0.46424 
-13.3275 2.45031 0.653038 -13.4415 1.47345 0.82849 -12.8142 0.316798 0.95121 
-11.7793 -0.777169 0.927105 -10.7484 -1.83737 0.738063 -9.83492 -2.94158 0.492184 
-4.35893 0.445664 -5.07351 -3.99027 1.17106 -4.98277 -3.28159 0.400672 -5.17851 
-3.46434 1.84478 -4.80401 -2.86923 1.20318 -5.07786 -2.12645 0.33769 -5.29369 
-2.83983 2.58512 -4.62148 -2.29137 1.96623 -4.88423 -1.61915 1.18511 -5.1727 
-0.819581 0.286867 -5.32276 -2.18051 3.45896 -4.51005 -1.61622 2.78214 -4.69028 
-0.964929 2.00707 -4.92995 -0.210701 1.14233 -5.16929 0.522971 0.342498 -5.19619 
-1.46597 4.30332 -4.38188 -0.916423 3.66683 -4.55448 -0.25895 2.87609 -4.67551 
0.477615 2.00885 -4.8863 1.17548 1.19544 -5.01167 1.74044 0.516754 -4.92485 
-0.649143 4.96832 -4.0924 -0.17323 4.47743 -4.37793 0.43548 3.77935 -4.49166 
1.16052 2.93934 -4.62957 1.86175 2.094 -4.76988 2.41524 1.35376 -4.75016 
2.85444 0.709744 -4.61027 0.231912 5.51822 -3.65133 0.637137 5.13936 -4.05522 
1.14081 4.59064 -4.29953 1.80073 3.86657 -4.4773 2.51406 3.0422 -4.62332 
3.1041 2.23425 -4.62772 3.54389 1.50747 -4.49022 3.92468 0.846472 -4.34896 
-6.35326 1.0759 -5.00317 -7.29438 1.66141 -4.85356 -5.92599 1.69332 -4.80687 
-8.08865 2.19872 -4.41634 -6.72644 2.28643 -4.49525 -5.29438 2.28973 -4.49531 
-8.63247 2.60086 -3.67596 -7.34302 2.84642 -3.92223 -5.95439 2.9348 -4.06438 
-4.58887 2.99994 -4.18426 -8.99784 2.94381 -2.84074 -7.74637 3.23034 -3.17663 
-6.45375 3.48121 -3.46905 -5.13458 3.63695 -3.68484 -3.85958 3.81849 -3.93108 
-9.25736 3.41157 -2.10588 -8.05991 3.56147 -2.43122 -6.81616 3.80625 -2.80446 
-5.53284 4.05903 -3.08478 -4.25491 4.30772 -3.32959 -3.04158 4.5504 -3.65345 
-9.32823 3.98711 -1.48259 -8.26996 4.05945 -1.75667 -7.10476 4.16549 -2.11856 
-5.82187 4.35525 -2.44375 -4.50153 4.61898 -2.67298 -3.2608 4.89112 -2.9392 
-2.11453 5.11565 -3.28566 -9.1686 4.4812 -0.893502 -8.24974 4.651 -1.14067 
-7.22397 4.72761 -1.43348 -6.01778 4.82263 -1.75945 -4.67314 5.00844 -2.02784 
-3.38079 5.23992 -2.2661 -2.23248 5.45224 -2.55979 -1.16463 5.63432 -2.88153 
-8.00656 5.30432 0.144712 -7.04744 5.70085 0.612897 -7.06278 5.62547 -0.154868 
-6.03708 5.94887 1.08722 -6.02403 6.0061 0.241989 -6.05678 5.84994 -0.439862 
-4.95477 6.24543 1.60391 -4.97377 6.2993 0.655896 -4.9383 6.30289 -0.0931373 
-4.88878 6.06674 -0.740543 -3.82781 6.75343 2.15371 -3.88812 6.67538 1.16115 
-3.84482 6.63656 0.305974 -3.71104 6.58081 -0.40917 -3.5787 6.26699 -1.06857 
-2.77101 7.24044 2.55723 -2.76845 7.13632 1.64804 -2.73632 6.94277 0.789279 
-2.60114 6.86421 -0.0122981 -2.42826 6.76162 -0.768538 -2.33007 6.40298 -1.4159 
-1.82638 7.39381 2.71258 -1.6902 7.46918 1.91658 -1.58354 7.29144 1.17452 
[...]
POINT_DATA 1002
FIELD FieldData 4
_paraPhi 1 1002 double
6.2831853072 3.1415926536 6.2831853072 3.1415926536 4.7123889804 4.7123889804 1.5707963268 1.5707963268 3.6951670125 
5.7296109483 2.5880182947 0.5535743589 6.2831853072 6.2831853072 6.2831853072 6.2831853072 3.1415926536 3.1415926536 
3.1415926536 3.1415926536 3.1415926536 6.1053039672 5.898798347 5.6768734901 5.4599499503 5.2659633393 5.1032165617 
4.9713148346 4.8656852733 4.7809517865 0.17788134 0.38438696014 0.60631181711 0.82323535693 1.0172219679 1.1799687454 
1.3118704726 1.4175000338 1.5022335207 6.1892828907 6.1070320098 6.035312792 5.9728339911 5.9183214791 5.8706119594 
5.8286879411 5.7916808611 5.7588591896 0.093902416448 0.17615329733 0.2478725152 0.31035131605 0.36486382811 0.41257334776 
0.45449736604 0.4915044461 0.52432611754 3.3194739936 3.5259796137 3.7479044707 3.9648280105 4.1588146215 4.321561399 
4.4534631262 4.5590926874 4.6438261743 2.9637113136 2.7572056934 2.5352808365 2.3183572967 2.1243706857 1.9616239082 
1.829722181 1.7240926197 1.6393591329 3.23549507 3.3177459509 3.3894651688 3.4519439696 3.5064564817 3.5541660013 
3.5960900196 3.6330970997 3.6659187711 3.0476902371 2.9654393563 2.8937201384 2.8312413375 2.7767288255 2.7290193058 
2.6870952876 2.6500882075 2.617266536 6.2831853072 6.2831853072 6.2831853072 6.2831853072 3.1415926536 3.1415926536 
3.1415926536 3.1415926536 3.1415926536 6.1053039672 5.898798347 5.6768734901 5.4599499503 5.2659633393 5.1032165617 
4.9713148346 4.8656852733 4.7809517865 0.17788134 0.38438696014 0.60631181711 0.82323535693 1.0172219679 1.1799687454 
1.3118704726 1.4175000338 1.5022335207 6.1892828907 6.1070320098 6.035312792 5.9728339911 5.9183214791 5.8706119594 
5.8286879411 5.7916808611 5.7588591896 0.093902416448 0.17615329733 0.2478725152 0.31035131605 0.36486382811 0.41257334776 
0.45449736604 0.4915044461 0.52432611754 3.3194739936 3.5259796137 3.7479044707 3.9648280105 4.1588146215 4.321561399 
4.4534631262 4.5590926874 4.6438261743 2.9637113136 2.7572056934 2.5352808365 2.3183572967 2.1243706857 1.9616239082 
1.829722181 1.7240926197 1.6393591329 3.23549507 3.3177459509 3.3894651688 3.4519439696 3.5064564817 3.5541660013 
3.5960900196 3.6330970997 3.6659187711 3.0476902371 2.9654393563 2.8937201384 2.8312413375 2.7767288255 2.7290193058 
2.6870952876 2.6500882075 2.617266536 4.7123889804 4.7123889804 4.7123889804 4.7123889804 4.7123889804 4.7123889804 
4.7123889804 4.7123889804 4.7123889804 4.6087898617 4.4991390697 4.3857031936 4.2712800401 4.1588146215 4.0509635631 
3.94975894 3.8564636551 3.7716124825 4.8159880991 4.9256388911 5.0390747672 5.1534979207 5.2659633393 5.3738143976 
5.4750190208 5.5683143056 5.6531654782 4.6087898617 4.4991390697 4.3857031936 4.2712800401 4.1588146215 4.0509635631 
3.94975894 3.8564636551 3.7716124825 4.8159880991 4.9256388911 5.0390747672 5.1534979207 5.2659633393 5.3738143976 
5.4750190208 5.5683143056 5.6531654782 1.5707963268 1.5707963268 1.5707963268 1.5707963268 1.5707963268 1.5707963268 
1.5707963268 1.5707963268 1.5707963268 1.6743954455 1.7840462375 1.8974821136 2.0119052671 2.1243706857 2.232221744 
2.3334263672 2.426721652 2.5115728246 1.4671972081 1.3575464161 1.24411054 1.1296873865 1.0172219679 0.90937090954 
0.80816628637 0.71487100155 0.63001982895 1.6743954455 1.7840462375 1.8974821136 2.0119052671 2.1243706857 2.232221744 
2.3334263672 2.426721652 2.5115728246 1.4671972081 1.3575464161 1.24411054 1.1296873865 1.0172219679 0.90937090954 
0.80816628637 0.71487100155 0.63001982895 3.6007720849 3.4966939854 3.3839471039 3.2645756454 3.1415926536 3.0186096618 
2.8992382033 2.7864913217 2.6824132222 5.8240058758 5.9280839753 6.0408308569 6.1602023154 6.2831853072 0.12298299178 
0.2423544503 0.35510133185 0.45917943135 6.0560271438 5.7885595667 5.9702140275 5.5125918794 5.6029703303 5.7885595667 
5.2659633393 5.2659633393 5.2659633393 5.2659633393 5.0674903122 5.0120975802 4.9155579264 4.7123889804 4.1588146215 
4.9155579264 4.8353719722 4.7123889804 4.5092200343 4.1588146215 3.6362183941 4.8004512023 4.7123889804 4.5894059886 
4.4126803806 4.1588146215 3.8218076305 3.4545639333 4.7123889804 4.6243267584 4.5092200343 4.3572876485 4.1588146215 
3.9121860814 3.6362183941 3.368750817 6.0174235957 5.9434319871 5.8263323547 5.8809213739 5.7674481418 5.6279784266 
5.8278025282 5.718968232 5.5891129425 5.4372443565 5.7823484065 5.678536687 5.5575666702 5.4192596322 5.2659633393 
5.743164462 5.6444075337 5.5314983644 5.4046708639 5.2659633393 5.1195510325 5.7091357773 5.6152775188 5.5096229709 
5.3926039573 5.2659633393 5.1329233157 4.9978930058 5.6793730533 5.5901633916 5.4910209005 5.3824597928 5.2659633393 
5.1440684722 5.0201624502 4.8979782167 5.5683143056 5.4750190208 5.4750190208 5.3738143976 5.3738143976 5.3738143976 
5.2659633393 5.2659633393 5.2659633393 5.2659633393 5.1534979207 5.1534979207 5.1534979207 5.1534979207 5.1534979207 
5.0390747672 5.0390747672 5.0390747672 5.0390747672 5.0390747672 5.0390747672 4.9256388911 4.9256388911 4.9256388911 
4.9256388911 4.9256388911 4.9256388911 4.9256388911 4.8159880991 4.8159880991 4.8159880991 4.8159880991 4.8159880991 
4.8159880991 4.8159880991 4.8159880991 4.6087898617 4.6087898617 4.4991390697 4.6087898617 4.4991390697 4.3857031936 
4.6087898617 4.4991390697 4.3857031936 4.2712800401 4.6087898617 4.4991390697 4.3857031936 4.2712800401 4.1588146215 
4.6087898617 4.4991390697 4.3857031936 4.2712800401 4.1588146215 4.0509635631 4.6087898617 4.4991390697 4.3857031936 
4.2712800401 4.1588146215 4.0509635631 3.94975894 4.6087898617 4.4991390697 4.3857031936 4.2712800401 4.1588146215 
4.0509635631 3.94975894 3.8564636551 4.526799744 4.4046155105 4.426884955 4.2807094886 4.2918546451 4.3052269283 
4.1588146215 4.1588146215 4.1588146215 4.1588146215 4.042318168 4.0321740035 4.0201070968 4.0055183285 3.9875336042 
3.9337570603 3.9151549899 3.8932795963 3.8672112905 3.8356650183 3.7967995342 3.8346145692 3.809500442 3.7803704271 
3.7462412737 3.7058097288 3.657329819 3.5984456061 3.7454049075 3.7156421835 3.6816134988 3.6424295543 3.5969754326 
3.5438565869 3.4813459737 3.4073543651 3.5642842451 3.4524645613 3.5233842518 3.3320300872 3.403123212 3.4773852225 
3.20576226 3.2746326772 3.348015857 3.4255060145 3.0774230472 3.1415926536 3.2112816139 3.2864685043 3.3668817272 
2.95115522 3.00855263 3.0719036933 3.1415926536 3.2178377658 3.3005964304 2.8307207459 2.8800620952 2.9351694502 
2.9967168029 3.0653475414 3.1415926536 3.225752376 2.718901062 2.7598010554 2.8058000847 2.8576792927 2.91630358 
2.9825888767 3.0574329311 3.1415926536 3.5642842451 3.5233842518 3.4524645613 3.4773852225 3.403123212 3.3320300872 
3.4255060145 3.348015857 3.2746326772 3.20576226 3.3668817272 3.2864685043 3.2112816139 3.1415926536 3.0774230472 
3.3005964304 3.2178377658 3.1415926536 3.0719036933 3.00855263 2.95115522 3.225752376 3.1415926536 3.0653475414 
2.9967168029 2.9351694502 2.8800620952 2.8307207459 3.1415926536 3.0574329311 2.9825888767 2.91630358 2.8576792927 
2.8058000847 2.7598010554 2.718901062 4.526799744 4.426884955 4.4046155105 4.3052269283 4.2918546451 4.2807094886 
4.1588146215 4.1588146215 4.1588146215 4.1588146215 3.9875336042 4.0055183285 4.0201070968 4.0321740035 4.042318168 
3.7967995342 3.8356650183 3.8672112905 3.8932795963 3.9151549899 3.9337570603 3.5984456061 3.657329819 3.7058097288 
3.7462412737 3.7803704271 3.809500442 3.8346145692 3.4073543651 3.4813459737 3.5438565869 3.5969754326 3.6424295543 
3.6816134988 3.7156421835 3.7454049075 4.7123889804 4.8004512023 4.6243267584 4.9155579264 4.7123889804 4.5092200343 
5.0674903122 4.8353719722 4.5894059886 4.3572876485 5.2659633393 5.0120975802 4.7123889804 4.4126803806 4.1588146215 
5.5125918794 5.2659633393 4.9155579264 4.5092200343 4.1588146215 3.9121860814 5.7885595667 5.6029703303 5.2659633393 
4.7123889804 4.1588146215 3.8218076305 3.6362183941 6.0560271438 5.9702140275 5.7885595667 5.2659633393 4.1588146215 
3.6362183941 3.4545639333 3.368750817 0.22715816343 0.49462574053 0.3129712797 0.77059342779 0.68021497688 0.49462574053 
1.0172219679 1.0172219679 1.0172219679 1.0172219679 1.2156949949 1.271087727 1.3676273807 1.5707963268 2.1243706857 
1.3676273807 1.447813335 1.5707963268 1.7739652728 2.1243706857 2.6469669131 1.4827341049 1.5707963268 1.6937793186 
1.8705049266 2.1243706857 2.4613776767 2.8286213739 1.5707963268 1.6588585487 1.7739652728 1.9258976586 2.1243706857 
2.3709992258 2.6469669131 2.9144344902 1.7563855631 1.8785697967 1.8563003522 2.0024758186 1.9913306621 1.9779583789 
2.1243706857 2.1243706857 2.1243706857 2.1243706857 2.2408671392 2.2510113037 2.2630782103 2.2776669786 2.295651703 
2.3494282469 2.3680303173 2.3899057108 2.4159740166 2.4475202889 2.486385773 2.448570738 2.4736848652 2.5028148801 
2.5369440334 2.5773755784 2.6258554882 2.6847397011 2.5377803997 2.5675431237 2.6015718084 2.6407557529 2.6862098746 
2.7393287203 2.8018393335 2.8758309421 1.6743954455 1.6743954455 1.7840462375 1.6743954455 1.7840462375 1.8974821136 
1.6743954455 1.7840462375 1.8974821136 2.0119052671 1.6743954455 1.7840462375 1.8974821136 2.0119052671 2.1243706857 
1.6743954455 1.7840462375 1.8974821136 2.0119052671 2.1243706857 2.232221744 1.6743954455 1.7840462375 1.8974821136 
2.0119052671 2.1243706857 2.232221744 2.3334263672 1.6743954455 1.7840462375 1.8974821136 2.0119052671 2.1243706857 
2.232221744 2.3334263672 2.426721652 1.4671972081 1.3575464161 1.4671972081 1.24411054 1.3575464161 1.4671972081 
1.1296873865 1.24411054 1.3575464161 1.4671972081 1.0172219679 1.1296873865 1.24411054 1.3575464161 1.4671972081 
0.90937090954 1.0172219679 1.1296873865 1.24411054 1.3575464161 1.4671972081 0.80816628637 0.90937090954 1.0172219679 
1.1296873865 1.24411054 1.3575464161 1.4671972081 0.71487100155 0.80816628637 0.90937090954 1.0172219679 1.1296873865 
1.24411054 1.3575464161 1.4671972081 0.60381225391 0.57404952988 0.69302191562 0.54002084522 0.66790778838 0.79216440667 
0.50083690068 0.63877777351 0.77356233629 0.90072551443 0.45538277901 0.60464862014 0.75168694275 0.89058134991 1.0172219679 
0.40226393329 0.56421707518 0.72561863695 0.87851444325 1.0172219679 1.139116835 0.33975332011 0.51573716537 0.69407236469 
0.86392567495 1.0172219679 1.1502619915 1.2630228569 0.26576171152 0.45685295248 0.6552068806 0.84594095064 1.0172219679 
1.1636342747 1.2852923014 1.3852070904 0.22715816343 0.3129712797 0.49462574053 0.49462574053 0.68021497688 0.77059342779 
1.0172219679 1.0172219679 1.0172219679 1.0172219679 2.1243706857 1.5707963268 1.3676273807 1.271087727 1.2156949949 
2.6469669131 2.1243706857 1.7739652728 1.5707963268 1.447813335 1.3676273807 2.8286213739 2.4613776767 2.1243706857 
1.8705049266 1.6937793186 1.5707963268 1.4827341049 2.9144344902 2.6469669131 2.3709992258 2.1243706857 1.9258976586 
1.7739652728 1.6588585487 1.5707963268 1.7563855631 1.8563003522 1.8785697967 1.9779583789 1.9913306621 2.0024758186 
2.1243706857 2.1243706857 2.1243706857 2.1243706857 2.295651703 2.2776669786 2.2630782103 2.2510113037 2.2408671392 
2.486385773 2.4475202889 2.4159740166 2.3899057108 2.3680303173 2.3494282469 2.6847397011 2.6258554882 2.5773755784 
2.5369440334 2.5028148801 2.4736848652 2.448570738 2.8758309421 2.8018393335 2.7393287203 2.6862098746 2.6407557529 
2.6015718084 2.5675431237 2.5377803997 5.8604937156 5.901393709 5.9723133995 5.9473927383 6.0216547488 6.0927478736 
5.9992719463 6.0767621038 6.1501452836 6.2190157008 6.0578962336 6.1383094565 6.2134963469 0 0.064169606361 
6.1241815303 6.206940195 6.2831853072 0.069688960264 0.13304002361 0.19043743361 6.1990255847 0 0.07624511221 
0.14487585072 0.20642320337 0.26153055843 0.3108719077 0 0.084159722458 0.15900377685 0.22528907359 0.28391336087 
0.3357925689 0.38179159818 0.42269159155 5.8604937156 5.9723133995 5.901393709 6.0927478736 6.0216547488 5.9473927383 
6.2190157008 6.1501452836 6.0767621038 5.9992719463 0.064169606361 0 6.2134963469 6.1383094565 6.0578962336 
0.19043743361 0.13304002361 0.069688960264 6.2831853072 6.206940195 6.1241815303 0.3108719077 0.26153055843 0.20642320337 
0.14487585072 0.07624511221 6.2831853072 6.1990255847 0.42269159155 0.38179159818 0.3357925689 0.28391336087 0.22528907359 
0.15900377685 0.084159722458 0 5.6793730533 5.7091357773 5.5901633916 5.743164462 5.6152775188 5.4910209005 
5.7823484065 5.6444075337 5.5096229709 5.3824597928 5.8278025282 5.678536687 5.5314983644 5.3926039573 5.2659633393 
5.8809213739 5.718968232 5.5575666702 5.4046708639 5.2659633393 5.1440684722 5.9434319871 5.7674481418 5.5891129425 
5.4192596322 5.2659633393 5.1329233157 5.0201624502 6.0174235957 5.8263323547 5.6279784266 5.4372443565 5.2659633393 
5.1195510325 4.9978930058 4.8979782167 1.3852070904 1.2852923014 1.2630228569 1.1636342747 1.1502619915 1.139116835 
1.0172219679 1.0172219679 1.0172219679 1.0172219679 0.84594095064 0.86392567495 0.87851444325 0.89058134991 0.90072551443 
0.6552068806 0.69407236469 0.72561863695 0.75168694275 0.77356233629 0.79216440667 0.45685295248 0.51573716537 0.56421707518 
0.60464862014 0.63877777351 0.66790778838 0.69302191562 0.26576171152 0.33975332011 0.40226393329 0.45538277901 0.50083690068 
0.54002084522 0.57404952988 0.60381225391 
_paraPhiHalf 1 1002 double
0 3.1415926536 0 3.1415926536 1.5707963268 1.5707963268 1.5707963268 1.5707963268 2.5880182947 
0.5535743589 2.5880182947 0.5535743589 0 0 0 0 3.1415926536 3.1415926536 
3.1415926536 3.1415926536 3.1415926536 0.17788134 0.38438696014 0.60631181711 0.82323535693 1.0172219679 1.1799687454 
1.3118704726 1.4175000338 1.5022335207 0.17788134 0.38438696014 0.60631181711 0.82323535693 1.0172219679 1.1799687454 
1.3118704726 1.4175000338 1.5022335207 0.093902416448 0.17615329733 0.2478725152 0.31035131605 0.36486382811 0.41257334776 
0.45449736604 0.4915044461 0.52432611754 0.093902416448 0.17615329733 0.2478725152 0.31035131605 0.36486382811 0.41257334776 
0.45449736604 0.4915044461 0.52432611754 2.9637113136 2.7572056934 2.5352808365 2.3183572967 2.1243706857 1.9616239082 
1.829722181 1.7240926197 1.6393591329 2.9637113136 2.7572056934 2.5352808365 2.3183572967 2.1243706857 1.9616239082 
1.829722181 1.7240926197 1.6393591329 3.0476902371 2.9654393563 2.8937201384 2.8312413375 2.7767288255 2.7290193058 
2.6870952876 2.6500882075 2.617266536 3.0476902371 2.9654393563 2.8937201384 2.8312413375 2.7767288255 2.7290193058 
2.6870952876 2.6500882075 2.617266536 0 0 0 0 3.1415926536 3.1415926536 
3.1415926536 3.1415926536 3.1415926536 0.17788134 0.38438696014 0.60631181711 0.82323535693 1.0172219679 1.1799687454 
1.3118704726 1.4175000338 1.5022335207 0.17788134 0.38438696014 0.60631181711 0.82323535693 1.0172219679 1.1799687454 
1.3118704726 1.4175000338 1.5022335207 0.093902416448 0.17615329733 0.2478725152 0.31035131605 0.36486382811 0.41257334776 
0.45449736604 0.4915044461 0.52432611754 0.093902416448 0.17615329733 0.2478725152 0.31035131605 0.36486382811 0.41257334776 
0.45449736604 0.4915044461 0.52432611754 2.9637113136 2.7572056934 2.5352808365 2.3183572967 2.1243706857 1.9616239082 
1.829722181 1.7240926197 1.6393591329 2.9637113136 2.7572056934 2.5352808365 2.3183572967 2.1243706857 1.9616239082 
1.829722181 1.7240926197 1.6393591329 3.0476902371 2.9654393563 2.8937201384 2.8312413375 2.7767288255 2.7290193058 
2.6870952876 2.6500882075 2.617266536 3.0476902371 2.9654393563 2.8937201384 2.8312413375 2.7767288255 2.7290193058 
2.6870952876 2.6500882075 2.617266536 1.5707963268 1.5707963268 1.5707963268 1.5707963268 1.5707963268 1.5707963268 
1.5707963268 1.5707963268 1.5707963268 1.6743954455 1.7840462375 1.8974821136 2.0119052671 2.1243706857 2.232221744 
2.3334263672 2.426721652 2.5115728246 1.4671972081 1.3575464161 1.24411054 1.1296873865 1.0172219679 0.90937090954 
0.80816628637 0.71487100155 0.63001982895 1.6743954455 1.7840462375 1.8974821136 2.0119052671 2.1243706857 2.232221744 
2.3334263672 2.426721652 2.5115728246 1.4671972081 1.3575464161 1.24411054 1.1296873865 1.0172219679 0.90937090954 
0.80816628637 0.71487100155 0.63001982895 1.5707963268 1.5707963268 1.5707963268 1.5707963268 1.5707963268 1.5707963268 
1.5707963268 1.5707963268 1.5707963268 1.6743954455 1.7840462375 1.8974821136 2.0119052671 2.1243706857 2.232221744 
2.3334263672 2.426721652 2.5115728246 1.4671972081 1.3575464161 1.24411054 1.1296873865 1.0172219679 0.90937090954 
0.80816628637 0.71487100155 0.63001982895 1.6743954455 1.7840462375 1.8974821136 2.0119052671 2.1243706857 2.232221744 
2.3334263672 2.426721652 2.5115728246 1.4671972081 1.3575464161 1.24411054 1.1296873865 1.0172219679 0.90937090954 
0.80816628637 0.71487100155 0.63001982895 2.6824132222 2.7864913217 2.8992382033 3.0186096618 3.1415926536 3.0186096618 
2.8992382033 2.7864913217 2.6824132222 0.45917943135 0.35510133185 0.2423544503 0.12298299178 0 0.12298299178 
0.2423544503 0.35510133185 0.45917943135 0.22715816343 0.49462574053 0.3129712797 0.77059342779 0.68021497688 0.49462574053 
1.0172219679 1.0172219679 1.0172219679 1.0172219679 1.2156949949 1.271087727 1.3676273807 1.5707963268 2.1243706857 
1.3676273807 1.447813335 1.5707963268 1.7739652728 2.1243706857 2.6469669131 1.4827341049 1.5707963268 1.6937793186 
1.8705049266 2.1243706857 2.4613776767 2.8286213739 1.5707963268 1.6588585487 1.7739652728 1.9258976586 2.1243706857 
2.3709992258 2.6469669131 2.9144344902 0.26576171152 0.33975332011 0.45685295248 0.40226393329 0.51573716537 0.6552068806 
0.45538277901 0.56421707518 0.69407236469 0.84594095064 0.50083690068 0.60464862014 0.72561863695 0.86392567495 1.0172219679 
0.54002084522 0.63877777351 0.75168694275 0.87851444325 1.0172219679 1.1636342747 0.57404952988 0.66790778838 0.77356233629 
0.89058134991 1.0172219679 1.1502619915 1.2852923014 0.60381225391 0.69302191562 0.79216440667 0.90072551443 1.0172219679 
1.139116835 1.2630228569 1.3852070904 0.71487100155 0.80816628637 0.80816628637 0.90937090954 0.90937090954 0.90937090954 
1.0172219679 1.0172219679 1.0172219679 1.0172219679 1.1296873865 1.1296873865 1.1296873865 1.1296873865 1.1296873865 
1.24411054 1.24411054 1.24411054 1.24411054 1.24411054 1.24411054 1.3575464161 1.3575464161 1.3575464161 
1.3575464161 1.3575464161 1.3575464161 1.3575464161 1.4671972081 1.4671972081 1.4671972081 1.4671972081 1.4671972081 
1.4671972081 1.4671972081 1.4671972081 1.6743954455 1.6743954455 1.7840462375 1.6743954455 1.7840462375 1.8974821136 
1.6743954455 1.7840462375 1.8974821136 2.0119052671 1.6743954455 1.7840462375 1.8974821136 2.0119052671 2.1243706857 
1.6743954455 1.7840462375 1.8974821136 2.0119052671 2.1243706857 2.232221744 1.6743954455 1.7840462375 1.8974821136 
2.0119052671 2.1243706857 2.232221744 2.3334263672 1.6743954455 1.7840462375 1.8974821136 2.0119052671 2.1243706857 
2.232221744 2.3334263672 2.426721652 1.7563855631 1.8785697967 1.8563003522 2.0024758186 1.9913306621 1.9779583789 
2.1243706857 2.1243706857 2.1243706857 2.1243706857 2.2408671392 2.2510113037 2.2630782103 2.2776669786 2.295651703 
2.3494282469 2.3680303173 2.3899057108 2.4159740166 2.4475202889 2.486385773 2.448570738 2.4736848652 2.5028148801 
2.5369440334 2.5773755784 2.6258554882 2.6847397011 2.5377803997 2.5675431237 2.6015718084 2.6407557529 2.6862098746 
2.7393287203 2.8018393335 2.8758309421 2.718901062 2.8307207459 2.7598010554 2.95115522 2.8800620952 2.8058000847 
3.0774230472 3.00855263 2.9351694502 2.8576792927 3.0774230472 3.1415926536 3.0719036933 2.9967168029 2.91630358 
2.95115522 3.00855263 3.0719036933 3.1415926536 3.0653475414 2.9825888767 2.8307207459 2.8800620952 2.9351694502 
2.9967168029 3.0653475414 3.1415926536 3.0574329311 2.718901062 2.7598010554 2.8058000847 2.8576792927 2.91630358 
2.9825888767 3.0574329311 3.1415926536 2.718901062 2.7598010554 2.8307207459 2.8058000847 2.8800620952 2.95115522 
2.8576792927 2.9351694502 3.00855263 3.0774230472 2.91630358 2.9967168029 3.0719036933 3.1415926536 3.0774230472 
2.9825888767 3.0653475414 3.1415926536 3.0719036933 3.00855263 2.95115522 3.0574329311 3.1415926536 3.0653475414 