# vtk DataFile Version 5.1
vtk output
ASCII
DATASET POLYDATA
POINTS 1002 float
-5.80909 -0.259909 -3.44771 5.58425 -0.0510709 -4.68367 -4.80065 -0.0904738 3.97164 
5.04781 0.543624 5.49271 0.466747 6.47871 -2.95821 -0.501981 6.03851 2.40758 
-0.562674 -5.66299 -2.03529 -1.03144 -6.97189 3.42459 8.29425 4.60421 0.0505409 
-8.94196 4.17555 -0.858627 10.975 -5.27314 -1.62274 -8.91565 -3.83957 -0.602848 
-4.83641 -0.224284 -3.41849 -3.66649 -0.177969 -3.50144 -2.35256 -0.127824 -3.74968 
-0.984373 -0.0669665 -4.01957 0.342789 0.000948145 -4.12018 1.56648 0.0375282 -4.13335 
2.6914 0.0210737 -4.28721 3.75157 -0.0158592 -4.56368 4.73379 -0.0386333 -4.7382 
-5.25053 0.275239 -3.32799 -4.5913 0.804901 -3.248 -3.94829 1.38699 -3.27988 
-3.38075 2.0567 -3.41063 -2.78284 2.77009 -3.55127 -2.0215 3.5114 -3.61502 
-1.1678 4.32707 -3.5636 -0.427221 5.17768 -3.41072 0.100646 5.92478 -3.19816 
-5.68499 -0.819996 -3.47357 -5.3481 -1.39024 -3.3058 -4.75449 -1.88253 -2.94653 
-4.02655 -2.3304 -2.60656 -3.3388 -2.86722 -2.45961 -2.71835 -3.50822 -2.40275 
-2.12172 -4.14308 -2.28641 -1.57584 -4.72319 -2.16272 -1.08357 -5.24681 -2.10357 
-6.37504 0.0705618 -3.40229 -6.953 0.437613 -3.3202 -7.53323 0.860835 -3.27787 
-8.03421 1.41542 -3.36387 -8.40275 2.1282 -3.4829 -8.67654 2.85775 -3.34862 
-8.89005 3.41189 -2.83542 -9.02089 3.75729 -2.13251 -9.04101 3.98952 -1.45796 
-6.61991 -0.651317 -3.55623 -7.35465 -1.10927 -3.70751 -8.06122 -1.60096 -3.90942 
-8.84467 -2.12028 -4.00871 -9.64768 -2.69034 -3.7482 -10.1729 -3.24727 -3.12788 
-10.1917 -3.62721 -2.43436 -9.8153 -3.76845 -1.82686 -9.33108 -3.79228 -1.23364 
5.21832 0.548394 -4.5996 4.76581 1.21879 -4.38348 4.23894 1.92403 -4.13694 
3.68507 2.66062 -4.00006 3.14993 3.43643 -4.02328 2.63851 4.18772 -4.10318 
2.13565 4.83751 -4.07801 1.62174 5.4116 -3.85845 1.06767 5.96639 -3.45976 
5.39723 -0.605981 -4.71618 5.07975 -1.17769 -4.52786 4.55872 -1.77085 -4.11829 
3.87286 -2.37877 -3.65785 3.15019 -2.97914 -3.31764 2.42551 -3.56067 -3.08379 
1.63855 -4.12625 -2.84757 0.815339 -4.6724 -2.57221 0.0636018 -5.1884 -2.28968 
6.15143 0.299846 -4.44429 6.6996 0.691812 -4.13438 7.21912 1.13181 -3.87542 
7.71788 1.62636 -3.66071 8.1502 2.15039 -3.32304 8.4018 2.68987 -2.74567 
8.44284 3.27233 -2.0105 8.38471 3.86377 -1.2689 8.33102 4.33673 -0.585034 
6.26373 -0.422551 -4.48312 6.96559 -0.839355 -4.1357 7.733 -1.32219 -3.80183 
8.52108 -1.88993 -3.52394 9.18259 -2.51273 -3.14017 9.70817 -3.13357 -2.61749 
10.2605 -3.75189 -2.1994 10.8206 -4.37834 -2.0127 11.1184 -4.92782 -1.88386 
-4.12406 -0.145558 4.19131 -3.31651 -0.232787 4.40035 -2.33827 -0.309473 4.58685 
-1.20331 -0.294902 4.67192 0.00695285 -0.161292 4.60726 1.16592 0.0164833 4.56931 
2.19294 0.158775 4.79569 3.13365 0.273513 5.2151 4.08198 0.402736 5.51337 
-4.53848 0.481178 4.08366 -4.18395 1.11041 4.13102 -3.79142 1.79173 4.11856 
-3.3766 2.51939 4.10141 -2.88992 3.28022 4.09821 -2.34086 4.03847 4.01055 
-1.82002 4.73758 3.72205 -1.36021 5.31982 3.2668 -0.924538 5.75103 2.7948 
-4.58047 -0.678633 4.01673 -4.27011 -1.33128 4.13769 -3.88201 -2.08147 4.26656 
-3.46824 -2.90385 4.33361 -3.09837 -3.71705 4.40639 -2.80869 -4.5046 4.57069 
-2.53862 -5.30235 4.68062 -2.16758 -6.0469 4.49623 -1.64541 -6.61292 4.00985 
-5.33542 0.313406 3.84739 -5.93925 0.788086 3.70434 -6.56246 1.29565 3.4101 
-7.12527 1.74825 2.90691 -7.63645 2.15133 2.30549 -8.16301 2.63146 1.70512 
-8.65531 3.2021 1.06101 -8.97075 3.69471 0.356745 -9.04918 3.99969 -0.308814 
-5.32719 -0.433675 3.69811 -5.90275 -0.825456 3.37757 -6.55172 -1.20637 3.10827 
-7.21959 -1.55689 2.86703 -7.8332 -1.97882 2.50121 -8.36334 -2.52957 1.96074 
-8.74703 -3.05237 1.35321 -8.91164 -3.38907 0.733902 -8.91816 -3.60255 0.0736089 
4.86212 1.05344 5.5012 4.59859 1.55807 5.03782 4.25528 2.08832 4.31591 
3.76868 2.64524 3.75074 3.0666 3.20995 3.54346 2.21984 3.80647 3.51652 
1.39319 4.4437 3.4066 0.665171 5.04791 3.12655 0.0322828 5.5659 2.75221 
4.59903 -0.112088 5.2311 4.16715 -0.841809 4.7807 3.7129 -1.58906 4.40735 
3.13328 -2.34618 4.26977 2.4226 -3.14222 4.20843 1.68525 -3.95999 4.0258 
0.964972 -4.76166 3.79863 0.238891 -5.55215 3.66603 -0.454548 -6.31576 3.58051 
5.97084 1.00425 5.32122 6.87057 1.42702 4.86002 7.53497 1.77965 4.17776 
7.97756 2.12089 3.49012 8.41394 2.5167 2.99113 8.86455 2.94261 2.62172 
9.07818 3.36008 2.15171 8.93866 3.78921 1.49026 8.6119 4.22764 0.745832 
5.73869 0.257328 5.01928 6.44027 -0.166983 4.2009 7.1622 -0.759256 3.29851 
7.89411 -1.4478 2.49651 8.54222 -2.11246 1.76074 9.07108 -2.76326 1.02473 
9.61588 -3.50916 0.300814 10.242 -4.30676 -0.405563 10.7684 -4.94388 -1.07374 
0.25258 7.00756 -2.43556 0.03594 7.41216 -1.81079 -0.0950209 7.7317 -1.07504 
-0.140033 8.08685 -0.293611 -0.201269 8.41554 0.396751 -0.335527 8.40349 0.920109 
-0.474477 7.90486 1.31988 -0.541303 7.17514 1.67223 -0.538418 6.52763 2.02731 
1.19104 6.62001 -2.98934 1.97493 6.72865 -2.90273 2.75866 6.74503 -2.62867 
3.50636 6.58061 -2.1549 4.34731 6.33728 -1.64191 5.3776 6.21168 -1.28833 
6.4084 6.13357 -1.06856 7.20746 5.84636 -0.795881 7.79023 5.28503 -0.394619 
-0.424537 6.63203 -2.51251 -1.48432 6.62355 -1.94362 -2.63664 6.38609 -1.38316 
-3.72646 6.06719 -1.01397 -4.70375 5.88184 -0.898281 -5.68361 5.78608 -0.946744 
-6.71266 5.54886 -1.04743 -7.66279 5.11157 -1.10437 -8.40999 4.61594 -1.04096 
0.274189 5.93075 2.28247 1.25836 5.82451 2.22721 2.50897 5.8851 2.20892 
3.8938 6.13494 2.14464 5.11324 6.34562 1.95296 6.01836 6.29597 1.61669 
6.73082 6.01441 1.1997 7.36608 5.62419 0.785794 7.8968 5.1567 0.407401 
-1.25108 6.36757 2.36844 -2.08642 6.61939 2.43023 -3.07225 6.71251 2.52602 
-4.16304 6.64663 2.49791 -5.20568 6.45314 2.20075 -6.10955 6.11709 1.62544 
-6.92974 5.64005 0.908813 -7.71883 5.10777 0.21523 -8.41732 4.6127 -0.374303 
-0.535507 -6.13369 -1.76757 -0.468866 -6.5368 -1.36326 -0.433937 -6.91504 -0.798655 
-0.489014 -7.39225 -0.113129 -0.593719 -7.93691 0.573786 -0.666525 -8.28029 1.16669 
-0.714052 -8.24058 1.71079 -0.799785 -7.91639 2.29321 -0.925238 -7.47269 2.89276 
0.515075 -5.67317 -2.0034 1.90015 -5.60679 -1.80442 3.39992 -5.54935 -1.49038 
4.70448 -5.60578 -1.26135 5.7306 -5.81318 -1.30887 6.77698 -6.06831 -1.62352 
8.08507 -6.18507 -1.97756 9.43875 -6.05979 -2.11919 10.4457 -5.72867 -1.97045 
-1.44793 -5.88506 -1.87043 -2.24577 -6.00831 -1.71707 -3.01401 -5.95671 -1.59263 
-3.96381 -5.77379 -1.51954 -5.2418 -5.60027 -1.53705 -6.61996 -5.46699 -1.62743 
-7.66853 -5.24682 -1.64537 -8.25718 -4.86069 -1.44522 -8.60234 -4.36393 -1.04949 
0.00764076 -6.83975 2.98701 1.2067 -6.63477 2.57556 2.52588 -6.43207 2.10121 
3.95164 -6.31674 1.43117 5.39003 -6.34269 0.664971 6.7084 -6.44485 0.0226772 
7.92969 -6.44196 -0.499519 9.13367 -6.20947 -1.00246 10.2163 -5.78428 -1.41643 
-1.87789 -7.3044 3.51478 -2.59222 -7.4163 3.4369 -3.22697 -7.25213 3.08252 
-3.94095 -6.84681 2.44591 -4.79443 -6.25399 1.72111 -5.71709 -5.57086 1.13556 
-6.65052 -4.97441 0.694629 -7.53816 -4.55333 0.263766 -8.29789 -4.21336 -0.191106 
8.83724 3.76831 0.0575157 9.46486 2.87194 -0.0284443 10.1974 1.96873 -0.149398 
10.9452 1.03586 -0.211871 11.5059 -0.0447027 -0.232442 11.7478 -1.32723 -0.335472 
11.7468 -2.64153 -0.598812 11.634 -3.74862 -0.978541 11.4048 -4.59277 -1.35651 
-9.43793 3.63443 -0.9755 -9.875 2.98016 -1.07337 -10.3485 2.1457 -1.13172 
-10.9028 1.15954 -1.07842 -11.3393 0.185987 -0.909791 -11.3465 -0.655844 -0.732348 
-10.8747 -1.45206 -0.623494 -10.1771 -2.3118 -0.57637 -9.50089 -3.15868 -0.574141 
-4.17783 0.320131 -3.34138 -3.47275 0.878983 -3.34825 -2.95831 0.389488 -3.55956 
-2.83784 1.50689 -3.53702 -2.25613 0.999396 -3.74949 -1.62912 0.492121 -3.97529 
-2.23912 2.22511 -3.8333 -1.62269 1.67473 -4.0545 -0.942538 1.16273 -4.26149 
-0.259274 0.611218 -4.29171 -1.52609 2.99318 -4.05362 -0.966484 2.4165 -4.281 
-0.301927 1.86395 -4.42636 0.396252 1.30952 -4.46068 1.03434 0.687432 -4.30902 
-0.694837 3.78336 -4.09122 -0.21813 3.19438 -4.32134 0.35999 2.59964 -4.365 
1.00568 2.00541 -4.36387 1.62273 1.36562 -4.31209 2.18437 0.681339 -4.25123 
0.0750911 4.58276 -3.96278 0.523337 3.97447 -4.23736 1.02431 3.3629 -4.24296 
1.60002 2.72584 -4.15965 2.17109 2.04686 -4.1281 2.71188 1.33433 -4.1946 
3.24661 0.629109 -4.3655 0.65708 5.3346 -3.73449 1.14301 4.72713 -4.08386 
1.62273 4.12157 -4.17831 2.14779 3.46676 -4.0964 2.69034 2.74637 -4.0091 
3.22256 2.00466 -4.05865 3.75534 1.27568 -4.27396 4.27471 0.583078 -4.55196 
-5.81679 0.628092 -3.30908 -6.40463 1.05023 -3.35911 -5.16005 1.20959 -3.30148 
-6.95491 1.61349 -3.5043 -5.74166 1.73646 -3.45794 -4.52717 1.87293 -3.30748 
-7.40447 2.3741 -3.6938 -6.2724 2.43884 -3.63416 -5.11689 2.45499 -3.33111 
-3.96478 2.56678 -3.22334 -7.78353 3.22163 -3.68772 -6.744 3.29031 -3.67657 
-5.67981 3.13331 -3.25394 -4.57807 3.06707 -2.88667 -3.33074 3.2434 -3.06245 
-8.12147 3.89919 -3.25025 -7.17095 4.10277 -3.36603 -6.17482 3.89963 -3.00133 
-5.15704 3.62705 -2.46364 -3.93006 3.69505 -2.38866 -2.50404 4.0345 -2.91071 
-8.35902 4.2788 -2.48635 -7.48441 4.65811 -2.663 -6.51078 4.63835 -2.48544 
-5.54797 4.35115 -2.0298 -4.44478 4.29038 -1.77452 -3.063 4.61987 -2.09805 
-1.62454 5.00561 -2.79138 -8.44969 4.46924 -1.70173 -7.63254 4.94457 -1.82749 
-6.65384 5.19369 -1.76584 -5.67112 5.13766 -1.52963 -4.68543 5.08143 -1.32356 
-3.5179 5.32898 -1.46093 -2.17776 5.72656 -2.00097 -0.915856 5.94694 -2.66912 
-7.7912 5.13695 -0.47145 -7.07533 5.75898 0.218935 -6.93838 5.71229 -0.413685 
-6.35077 6.41473 1.00413 -6.20212 6.44671 0.339853 -5.88273 6.22271 -0.317332 
-5.54241 6.96628 1.74742 -5.47386 7.19685 1.10178 -5.08385 7.03091 0.35542 
-4.77011 6.5544 -0.34851 -4.49105 7.33775 2.24144 -4.54742 7.81309 1.74624 
-4.25808 7.79724 0.979678 -3.89595 7.37406 0.135121 -3.74267 6.76572 -0.547535 
-3.26701 7.50641 2.37259 -3.33445 8.20993 2.0926 -3.21255 8.39951 1.49452 
-2.99191 8.0415 0.623745 -2.84055 7.50821 -0.242359 -2.76506 6.98141 -0.895145 
-2.14954 7.40713 2.23781 -2.1304 8.25755 2.06509 -2.0496 8.72502 1.70761 
[...]
POINT_DATA 1002
FIELD FieldData 4
_paraPhi 1 1002 double
6.2831853072 3.1415926536 6.2831853072 3.1415926536 4.7123889804 4.7123889804 1.5707963268 1.5707963268 3.6951670125 
5.7296109483 2.5880182947 0.5535743589 6.2831853072 6.2831853072 6.2831853072 6.2831853072 3.1415926536 3.1415926536 
3.1415926536 3.1415926536 3.1415926536 6.1053039672 5.898798347 5.6768734901 5.4599499503 5.2659633393 5.1032165617 
4.9713148346 4.8656852733 4.7809517865 0.17788134 0.38438696014 0.60631181711 0.82323535693 1.0172219679 1.1799687454 
1.3118704726 1.4175000338 1.5022335207 6.1892828907 6.1070320098 6.035312792 5.9728339911 5.9183214791 5.8706119594 
5.8286879411 5.7916808611 5.7588591896 0.093902416448 0.17615329733 0.2478725152 0.31035131605 0.36486382811 0.41257334776 
0.45449736604 0.4915044461 0.52432611754 3.3194739936 3.5259796137 3.7479044707 3.9648280105 4.1588146215 4.321561399 
4.4534631262 4.5590926874 4.6438261743 2.9637113136 2.7572056934 2.5352808365 2.3183572967 2.1243706857 1.9616239082 
1.829722181 1.7240926197 1.6393591329 3.23549507 3.3177459509 3.3894651688 3.4519439696 3.5064564817 3.5541660013 
3.5960900196 3.6330970997 3.6659187711 3.0476902371 2.9654393563 2.8937201384 2.8312413375 2.7767288255 2.7290193058 
2.6870952876 2.6500882075 2.617266536 6.2831853072 6.2831853072 6.2831853072 6.2831853072 3.1415926536 3.1415926536 
3.1415926536 3.1415926536 3.1415926536 6.1053039672 5.898798347 5.6768734901 5.4599499503 5.2659633393 5.1032165617 
4.9713148346 4.8656852733 4.7809517865 0.17788134 0.38438696014 0.60631181711 0.82323535693 1.0172219679 1.1799687454 
1.3118704726 1.4175000338 1.5022335207 6.1892828907 6.1070320098 6.035312792 5.9728339911 5.9183214791 5.8706119594 
5.8286879411 5.7916808611 5.7588591896 0.093902416448 0.17615329733 0.2478725152 0.31035131605 0.36486382811 0.41257334776 
0.45449736604 0.4915044461 0.52432611754 3.3194739936 3.5259796137 3.7479044707 3.9648280105 4.1588146215 4.321561399 
4.4534631262 4.5590926874 4.6438261743 2.9637113136 2.7572056934 2.5352808365 2.3183572967 2.1243706857 1.9616239082 
1.829722181 1.7240926197 1.6393591329 3.23549507 3.3177459509 3.3894651688 3.4519439696 3.5064564817 3.5541660013 
3.5960900196 3.6330970997 3.6659187711 3.0476902371 2.9654393563 2.8937201384 2.8312413375 2.7767288255 2.7290193058 
2.6870952876 2.6500882075 2.617266536 4.7123889804 4.7123889804 4.7123889804 4.7123889804 4.7123889804 4.7123889804 
4.7123889804 4.7123889804 4.7123889804 4.6087898617 4.4991390697 4.3857031936 4.2712800401 4.1588146215 4.0509635631 
3.94975894 3.8564636551 3.7716124825 4.8159880991 4.9256388911 5.0390747672 5.1534979207 5.2659633393 5.3738143976 
5.4750190208 5.5683143056 5.6531654782 4.6087898617 4.4991390697 4.3857031936 4.2712800401 4.1588146215 4.0509635631 
3.94975894 3.8564636551 3.7716124825 4.8159880991 4.9256388911 5.0390747672 5.1534979207 5.2659633393 5.3738143976 
5.4750190208 5.5683143056 5.6531654782 1.5707963268 1.5707963268 1.5707963268 1.5707963268 1.5707963268 1.5707963268 
1.5707963268 1.5707963268 1.5707963268 1.6743954455 1.7840462375 1.8974821136 2.0119052671 2.1243706857 2.232221744 
2.3334263672 2.426721652 2.5115728246 1.4671972081 1.3575464161 1.24411054 1.1296873865 1.0172219679 0.90937090954 
0.80816628637 0.71487100155 0.63001982895 1.6743954455 1.7840462375 1.8974821136 2.0119052671 2.1243706857 2.232221744 
2.3334263672 2.426721652 2.5115728246 1.4671972081 1.3575464161 1.24411054 1.1296873865 1.0172219679 0.90937090954 
0.80816628637 0.71487100155 0.63001982895 3.6007720849 3.4966939854 3.3839471039 3.2645756454 3.1415926536 3.0186096618 
2.8992382033 2.7864913217 2.6824132222 5.8240058758 5.9280839753 6.0408308569 6.1602023154 6.2831853072 0.12298299178 
0.2423544503 0.35510133185 0.45917943135 6.0560271438 5.7885595667 5.9702140275 5.5125918794 5.6029703303 5.7885595667 
5.2659633393 5.2659633393 5.2659633393 5.2659633393 5.0674903122 5.0120975802 4.9155579264 4.7123889804 4.1588146215 
4.9155579264 4.8353719722 4.7123889804 4.5092200343 4.1588146215 3.6362183941 4.8004512023 4.7123889804 4.5894059886 
4.4126803806 4.1588146215 3.8218076305 3.4545639333 4.7123889804 4.6243267584 4.5092200343 4.3572876485 4.1588146215 
3.9121860814 3.6362183941 3.368750817 6.0174235957 5.9434319871 5.8263323547 5.8809213739 5.7674481418 5.6279784266 
5.8278025282 5.718968232 5.5891129425 5.4372443565 5.7823484065 5.678536687 5.5575666702 5.4192596322 5.2659633393 
5.743164462 5.6444075337 5.5314983644 5.4046708639 5.2659633393 5.1195510325 5.7091357773 5.6152775188 5.5096229709 
5.3926039573 5.2659633393 5.1329233157 4.9978930058 5.6793730533 5.5901633916 5.4910209005 5.3824597928 5.2659633393 
5.1440684722 5.0201624502 4.8979782167 5.5683143056 5.4750190208 5.4750190208 5.3738143976 5.3738143976 5.3738143976 
5.2659633393 5.2659633393 5.2659633393 5.2659633393 5.1534979207 5.1534979207 5.1534979207 5.1534979207 5.1534979207 
5.0390747672 5.0390747672 5.0390747672 5.0390747672 5.0390747672 5.0390747672 4.9256388911 4.9256388911 4.9256388911 
4.9256388911 4.9256388911 4.9256388911 4.9256388911 4.8159880991 4.8159880991 4.8159880991 4.8159880991 4.8159880991 
4.8159880991 4.8159880991 4.8159880991 4.6087898617 4.6087898617 4.4991390697 4.6087898617 4.4991390697 4.3857031936 
4.6087898617 4.4991390697 4.3857031936 4.2712800401 4.6087898617 4.4991390697 4.3857031936 4.2712800401 4.1588146215 
4.6087898617 4.4991390697 4.3857031936 4.2712800401 4.1588146215 4.0509635631 4.6087898617 4.4991390697 4.3857031936 
4.2712800401 4.1588146215 4.0509635631 3.94975894 4.6087898617 4.4991390697 4.3857031936 4.2712800401 4.1588146215 
4.0509635631 3.94975894 3.8564636551 4.526799744 4.4046155105 4.426884955 4.2807094886 4.2918546451 4.3052269283 
4.1588146215 4.1588146215 4.1588146215 4.1588146215 4.042318168 4.0321740035 4.0201070968 4.0055183285 3.9875336042 
3.9337570603 3.9151549899 3.8932795963 3.8672112905 3.8356650183 3.7967995342 3.8346145692 3.809500442 3.7803704271 
3.7462412737 3.7058097288 3.657329819 3.5984456061 3.7454049075 3.7156421835 3.6816134988 3.6424295543 3.5969754326 
3.5438565869 3.4813459737 3.4073543651 3.5642842451 3.4524645613 3.5233842518 3.3320300872 3.403123212 3.4773852225 
3.20576226 3.2746326772 3.348015857 3.4255060145 3.0774230472 3.1415926536 3.2112816139 3.2864685043 3.3668817272 
2.95115522 3.00855263 3.0719036933 3.1415926536 3.2178377658 3.3005964304 2.8307207459 2.8800620952 2.9351694502 
2.9967168029 3.0653475414 3.1415926536 3.225752376 2.718901062 2.7598010554 2.8058000847 2.8576792927 2.91630358 
2.9825888767 3.0574329311 3.1415926536 3.5642842451 3.5233842518 3.4524645613 3.4773852225 3.403123212 3.3320300872 
3.4255060145 3.348015857 3.2746326772 3.20576226 3.3668817272 3.2864685043 3.2112816139 3.1415926536 3.0774230472 
3.3005964304 3.2178377658 3.1415926536 3.0719036933 3.00855263 2.95115522 3.225752376 3.1415926536 3.0653475414 
2.9967168029 2.9351694502 2.8800620952 2.8307207459 3.1415926536 3.0574329311 2.9825888767 2.91630358 2.8576792927 
2.8058000847 2.7598010554 2.718901062 4.526799744 4.426884955 4.4046155105 4.3052269283 4.2918546451 4.2807094886 
4.1588146215 4.1588146215 4.1588146215 4.1588146215 3.9875336042 4.0055183285 4.0201070968 4.0321740035 4.042318168 
3.7967995342 3.8356650183 3.8672112905 3.8932795963 3.9151549899 3.9337570603 3.5984456061 3.657329819 3.7058097288 
3.7462412737 3.7803704271 3.809500442 3.8346145692 3.4073543651 3.4813459737 3.5438565869 3.5969754326 3.6424295543 
3.6816134988 3.7156421835 3.7454049075 4.7123889804 4.8004512023 4.6243267584 4.9155579264 4.7123889804 4.5092200343 
5.0674903122 4.8353719722 4.5894059886 4.3572876485 5.2659633393 5.0120975802 4.7123889804 4.4126803806 4.1588146215 
5.5125918794 5.2659633393 4.9155579264 4.5092200343 4.1588146215 3.9121860814 5.7885595667 5.6029703303 5.2659633393 
4.7123889804 4.1588146215 3.8218076305 3.6362183941 6.0560271438 5.9702140275 5.7885595667 5.2659633393 4.1588146215 
3.6362183941 3.4545639333 3.368750817 0.22715816343 0.49462574053 0.3129712797 0.77059342779 0.68021497688 0.49462574053 
1.0172219679 1.0172219679 1.0172219679 1.0172219679 1.2156949949 1.271087727 1.3676273807 1.5707963268 2.1243706857 
1.3676273807 1.447813335 1.5707963268 1.7739652728 2.1243706857 2.6469669131 1.4827341049 1.5707963268 1.6937793186 
1.8705049266 2.1243706857 2.4613776767 2.8286213739 1.5707963268 1.6588585487 1.7739652728 1.9258976586 2.1243706857 
2.3709992258 2.6469669131 2.9144344902 1.7563855631 1.8785697967 1.8563003522 2.0024758186 1.9913306621 1.9779583789 
2.1243706857 2.1243706857 2.1243706857 2.1243706857 2.2408671392 2.2510113037 2.2630782103 2.2776669786 2.295651703 
2.3494282469 2.3680303173 2.3899057108 2.4159740166 2.4475202889 2.486385773 2.448570738 2.4736848652 2.5028148801 
2.5369440334 2.5773755784 2.6258554882 2.6847397011 2.5377803997 2.5675431237 2.6015718084 2.6407557529 2.6862098746 
2.7393287203 2.8018393335 2.8758309421 1.6743954455 1.6743954455 1.7840462375 1.6743954455 1.7840462375 1.8974821136 
1.6743954455 1.7840462375 1.8974821136 2.0119052671 1.6743954455 1.7840462375 1.8974821136 2.0119052671 2.1243706857 
1.6743954455 1.7840462375 1.8974821136 2.0119052671 2.1243706857 2.232221744 1.6743954455 1.7840462375 1.8974821136 
2.0119052671 2.1243706857 2.232221744 2.3334263672 1.6743954455 1.7840462375 1.8974821136 2.0119052671 2.1243706857 
2.232221744 2.3334263672 2.426721652 1.4671972081 1.3575464161 1.4671972081 1.24411054 1.3575464161 1.4671972081 
1.1296873865 1.24411054 1.3575464161 1.4671972081 1.0172219679 1.1296873865 1.24411054 1.3575464161 1.4671972081 
0.90937090954 1.0172219679 1.1296873865 1.24411054 1.3575464161 1.4671972081 0.80816628637 0.90937090954 1.0172219679 
1.1296873865 1.24411054 1.3575464161 1.4671972081 0.71487100155 0.80816628637 0.90937090954 1.0172219679 1.1296873865 
1.24411054 1.3575464161 1.4671972081 0.60381225391 0.57404952988 0.69302191562 0.54002084522 0.66790778838 0.79216440667 
0.50083690068 0.63877777351 0.77356233629 0.90072551443 0.45538277901 0.60464862014 0.75168694275 0.89058134991 1.0172219679 
0.40226393329 0.56421707518 0.72561863695 0.87851444325 1.0172219679 1.139116835 0.33975332011 0.51573716537 0.69407236469 
0.86392567495 1.0172219679 1.1502619915 1.2630228569 0.26576171152 0.45685295248 0.6552068806 0.84594095064 1.0172219679 
1.1636342747 1.2852923014 1.3852070904 0.22715816343 0.3129712797 0.49462574053 0.49462574053 0.68021497688 0.77059342779 
1.0172219679 1.0172219679 1.0172219679 1.0172219679 2.1243706857 1.5707963268 1.3676273807 1.271087727 1.2156949949 
2.6469669131 2.1243706857 1.7739652728 1.5707963268 1.447813335 1.3676273807 2.8286213739 2.4613776767 2.1243706857 
1.8705049266 1.6937793186 1.5707963268 1.4827341049 2.9144344902 2.6469669131 2.3709992258 2.1243706857 1.9258976586 
1.7739652728 1.6588585487 1.5707963268 1.7563855631 1.8563003522 1.8785697967 1.9779583789 1.9913306621 2.0024758186 
2.1243706857 2.1243706857 2.1243706857 2.1243706857 2.295651703 2.2776669786 2.2630782103 2.2510113037 2.2408671392 
2.486385773 2.4475202889 2.4159740166 2.3899057108 2.3680303173 2.3494282469 2.6847397011 2.6258554882 2.5773755784 
2.5369440334 2.5028148801 2.4736848652 2.448570738 2.8758309421 2.8018393335 2.7393287203 2.6862098746 2.6407557529 
2.6015718084 2.5675431237 2.5377803997 5.8604937156 5.901393709 5.9723133995 5.9473927383 6.0216547488 6.0927478736 
5.9992719463 6.0767621038 6.1501452836 6.2190157008 6.0578962336 6.1383094565 6.2134963469 0 0.064169606361 
6.1241815303 6.206940195 6.2831853072 0.069688960264 0.13304002361 0.19043743361 6.1990255847 0 0.07624511221 
0.14487585072 0.20642320337 0.26153055843 0.3108719077 0 0.084159722458 0.15900377685 0.22528907359 0.28391336087 
0.3357925689 0.38179159818 0.42269159155 5.8604937156 5.9723133995 5.901393709 6.0927478736 6.0216547488 5.9473927383 
6.2190157008 6.1501452836 6.0767621038 5.9992719463 0.064169606361 0 6.2134963469 6.1383094565 6.0578962336 
0.19043743361 0.13304002361 0.069688960264 6.2831853072 6.206940195 6.1241815303 0.3108719077 0.26153055843 0.20642320337 
0.14487585072 0.07624511221 6.2831853072 6.1990255847 0.42269159155 0.38179159818 0.3357925689 0.28391336087 0.22528907359 
0.15900377685 0.084159722458 0 5.6793730533 5.7091357773 5.5901633916 5.743164462 5.6152775188 5.4910209005 
5.7823484065 5.6444075337 5.5096229709 5.3824597928 5.8278025282 5.678536687 5.5314983644 5.3926039573 5.2659633393 
5.8809213739 5.718968232 5.5575666702 5.4046708639 5.2659633393 5.1440684722 5.9434319871 5.7674481418 5.5891129425 
5.4192596322 5.2659633393 5.1329233157 5.0201624502 6.0174235957 5.8263323547 5.6279784266 5.4372443565 5.2659633393 
5.1195510325 4.9978930058 4.8979782167 1.3852070904 1.2852923014 1.2630228569 1.1636342747 1.1502619915 1.139116835 
1.0172219679 1.0172219679 1.0172219679 1.0172219679 0.84594095064 0.86392567495 0.87851444325 0.89058134991 0.90072551443 
0.6552068806 0.69407236469 0.72561863695 0.75168694275 0.77356233629 0.79216440667 0.45685295248 0.51573716537 0.56421707518 
0.60464862014 0.63877777351 0.66790778838 0.69302191562 0.26576171152 0.33975332011 0.40226393329 0.45538277901 0.50083690068 
0.54002084522 0.57404952988 0.60381225391 
_paraPhiHalf 1 1002 double
0 3.1415926536 0 3.1415926536 1.5707963268 1.5707963268 1.5707963268 1.5707963268 2.5880182947 
0.5535743589 2.5880182947 0.5535743589 0 0 0 0 3.1415926536 3.1415926536 
3.1415926536 3.1415926536 3.1415926536 0.17788134 0.38438696014 0.60631181711 0.82323535693 1.0172219679 1.1799687454 
1.3118704726 1.4175000338 1.5022335207 0.17788134 0.38438696014 0.60631181711 0.82323535693 1.0172219679 1.1799687454 
1.3118704726 1.4175000338 1.5022335207 0.093902416448 0.17615329733 0.2478725152 0.31035131605 0.36486382811 0.41257334776 
0.45449736604 0.4915044461 0.52432611754 0.093902416448 0.17615329733 0.2478725152 0.31035131605 0.36486382811 0.41257334776 
0.45449736604 0.4915044461 0.52432611754 2.9637113136 2.7572056934 2.5352808365 2.3183572967 2.1243706857 1.9616239082 
1.829722181 1.7240926197 1.6393591329 2.9637113136 2.7572056934 2.5352808365 2.3183572967 2.1243706857 1.9616239082 
1.829722181 1.7240926197 1.6393591329 3.0476902371 2.9654393563 2.8937201384 2.8312413375 2.7767288255 2.7290193058 
2.6870952876 2.6500882075 2.617266536 3.0476902371 2.9654393563 2.8937201384 2.8312413375 2.7767288255 2.7290193058 
2.6870952876 2.6500882075 2.617266536 0 0 0 0 3.1415926536 3.1415926536 
3.1415926536 3.1415926536 3.1415926536 0.17788134 0.38438696014 0.60631181711 0.82323535693 1.0172219679 1.1799687454 
1.3118704726 1.4175000338 1.5022335207 0.17788134 0.38438696014 0.60631181711 0.82323535693 1.0172219679 1.1799687454 
1.3118704726 1.4175000338 1.5022335207 0.093902416448 0.17615329733 0.2478725152 0.31035131605 0.36486382811 0.41257334776 
0.45449736604 0.4915044461 0.52432611754 0.093902416448 0.17615329733 0.2478725152 0.31035131605 0.36486382811 0.41257334776 
0.45449736604 0.4915044461 0.52432611754 2.9637113136 2.7572056934 2.5352808365 2.3183572967 2.1243706857 1.9616239082 
1.829722181 1.7240926197 1.6393591329 2.9637113136 2.7572056934 2.5352808365 2.3183572967 2.1243706857 1.9616239082 
1.829722181 1.7240926197 1.6393591329 3.0476902371 2.9654393563 2.8937201384 2.8312413375 2.7767288255 2.7290193058 
2.6870952876 2.6500882075 2.617266536 3.0476902371 2.9654393563 2.8937201384 2.8312413375 2.7767288255 2.7290193058 
2.6870952876 2.6500882075 2.617266536 1.5707963268 1.5707963268 1.5707963268 1.5707963268 1.5707963268 1.5707963268 
1.5707963268 1.5707963268 1.5707963268 1.6743954455 1.7840462375 1.8974821136 2.0119052671 2.1243706857 2.232221744 
2.3334263672 2.426721652 2.5115728246 1.4671972081 1.3575464161 1.24411054 1.1296873865 1.0172219679 0.90937090954 
0.80816628637 0.71487100155 0.63001982895 1.6743954455 1.7840462375 1.8974821136 2.0119052671 2.1243706857 2.232221744 
2.3334263672 2.426721652 2.5115728246 1.4671972081 1.3575464161 1.24411054 1.1296873865 1.0172219679 0.90937090954 
0.80816628637 0.71487100155 0.63001982895 1.5707963268 1.5707963268 1.5707963268 1.5707963268 1.5707963268 1.5707963268 
1.5707963268 1.5707963268 1.5707963268 1.6743954455 1.7840462375 1.8974821136 2.0119052671 2.1243706857 2.232221744 
2.3334263672 2.426721652 2.5115728246 1.4671972081 1.3575464161 1.24411054 1.1296873865 1.0172219679 0.90937090954 
0.80816628637 0.71487100155 0.63001982895 1.6743954455 1.7840462375 1.8974821136 2.0119052671 2.1243706857 2.232221744 
2.3334263672 2.426721652 2.5115728246 1.4671972081 1.3575464161 1.24411054 1.1296873865 1.0172219679 0.90937090954 
0.80816628637 0.71487100155 0.63001982895 2.6824132222 2.7864913217 2.8992382033 3.0186096618 3.1415926536 3.0186096618 
2.8992382033 2.7864913217 2.6824132222 0.45917943135 0.35510133185 0.2423544503 0.12298299178 0 0.12298299178 
0.2423544503 0.35510133185 0.45917943135 0.22715816343 0.49462574053 0.3129712797 0.77059342779 0.68021497688 0.49462574053 
1.0172219679 1.0172219679 1.0172219679 1.0172219679 1.2156949949 1.271087727 1.3676273807 1.5707963268 2.1243706857 
1.3676273807 1.447813335 1.5707963268 1.7739652728 2.1243706857 2.6469669131 1.4827341049 1.5707963268 1.6937793186 
1.8705049266 2.1243706857 2.4613776767 2.8286213739 1.5707963268 1.6588585487 1.7739652728 1.9258976586 2.1243706857 
2.3709992258 2.6469669131 2.9144344902 0.26576171152 0.33975332011 0.45685295248 0.40226393329 0.51573716537 0.6552068806 
0.45538277901 0.56421707518 0.69407236469 0.84594095064 0.50083690068 0.60464862014 0.72561863695 0.86392567495 1.0172219679 
0.54002084522 0.63877777351 0.75168694275 0.87851444325 1.0172219679 1.1636342747 0.57404952988 0.66790778838 0.77356233629 
0.89058134991 1.0172219679 1.1502619915 1.2852923014 0.60381225391 0.69302191562 0.79216440667 0.90072551443 1.0172219679 
1.139116835 1.2630228569 1.3852070904 0.71487100155 0.80816628637 0.80816628637 0.90937090954 0.90937090954 0.90937090954 
1.0172219679 1.0172219679 1.0172219679 1.0172219679 1.1296873865 1.1296873865 1.1296873865 1.1296873865 1.1296873865 
1.24411054 1.24411054 1.24411054 1.24411054 1.24411054 1.24411054 1.3575464161 1.3575464161 1.3575464161 
1.3575464161 1.3575464161 1.3575464161 1.3575464161 1.4671972081 1.4671972081 1.4671972081 1.4671972081 1.4671972081 
1.4671972081 1.4671972081 1.4671972081 1.6743954455 1.6743954455 1.7840462375 1.6743954455 1.7840462375 1.8974821136 
1.6743954455 1.7840462375 1.8974821136 2.0119052671 1.6743954455 1.7840462375 1.8974821136 2.0119052671 2.1243706857 
1.6743954455 1.7840462375 1.8974821136 2.0119052671 2.1243706857 2.232221744 1.6743954455 1.7840462375 1.8974821136 
2.0119052671 2.1243706857 2.232221744 2.3334263672 1.6743954455 1.7840462375 1.8974821136 2.0119052671 2.1243706857 
2.232221744 2.3334263672 2.426721652 1.7563855631 1.8785697967 1.8563003522 2.0024758186 1.9913306621 1.9779583789 
2.1243706857 2.1243706857 2.1243706857 2.1243706857 2.2408671392 2.2510113037 2.2630782103 2.2776669786 2.295651703 
2.3494282469 2.3680303173 2.3899057108 2.4159740166 2.4475202889 2.486385773 2.448570738 2.4736848652 2.5028148801 
2.5369440334 2.5773755784 2.6258554882 2.6847397011 2.5377803997 2.5675431237 2.6015718084 2.6407557529 2.6862098746 
2.7393287203 2.8018393335 2.8758309421 2.718901062 2.8307207459 2.7598010554 2.95115522 2.8800620952 2.8058000847 
3.0774230472 3.00855263 2.9351694502 2.8576792927 3.0774230472 3.1415926536 3.0719036933 2.9967168029 2.91630358 
2.95115522 3.00855263 3.0719036933 3.1415926536 3.0653475414 2.9825888767 2.8307207459 2.8800620952 2.9351694502 
2.9967168029 3.0653475414 3.1415926536 3.0574329311 2.718901062 2.7598010554 2.8058000847 2.8576792927 2.91630358 
2.9825888767 3.0574329311 3.1415926536 2.718901062 2.7598010554 2.8307207459 2.8058000847 2.8800620952 2.95115522 
2.8576792927 2.9351694502 3.00855263 3.0774230472 2.91630358 2.9967168029 3.0719036933 3.1415926536 3.0774230472 
2.9825888767 3.0653475414 3.1415926536 3.0719036933 3.00855263 2.95115522 3.0574329311 3.1415926536 3.0653475414 