# vtk DataFile Version 5.1
vtk output
ASCII
DATASET POLYDATA
POINTS 1002 float
-4.19198 0.0333537 -2.98738 5.02762 0.478398 -5.09676 -4.29262 0.459543 2.4006 
4.88376 -0.118651 4.78813 -0.172702 6.21327 -3.02841 -0.230847 5.95797 2.17073 
-0.165097 -6.24655 -2.70137 0.257647 -5.72196 2.79566 7.88148 3.03321 0.678771 
-7.71823 3.99594 -0.23675 7.38042 -3.23398 -0.448896 -8.16169 -4.66021 0.339016 
-3.42279 0.0340803 -2.9849 -2.60741 0.064999 -3.10419 -1.72193 0.138997 -3.35658 
-0.746805 0.185169 -3.62902 0.279205 0.17485 -3.85899 1.29862 0.21568 -4.17592 
2.30436 0.373944 -4.6649 3.29713 0.539428 -5.1247 4.22555 0.578559 -5.28212 
-3.93112 0.532583 -2.92364 -3.64193 1.11096 -2.88893 -3.24771 1.84775 -3.01797 
-2.7409 2.69304 -3.36413 -2.22275 3.47847 -3.69892 -1.7668 4.14011 -3.71959 
-1.33905 4.76015 -3.47193 -0.907972 5.3595 -3.2424 -0.50768 5.85827 -3.13472 
-4.01719 -0.483134 -3.03652 -3.86986 -1.04714 -3.18498 -3.64366 -1.62494 -3.49822 
-3.2296 -2.21621 -3.85983 -2.71361 -2.85295 -3.98739 -2.28129 -3.51344 -3.76141 
-1.90669 -4.15199 -3.38905 -1.41188 -4.80876 -3.10227 -0.779158 -5.53099 -2.90775 
-4.81975 0.337228 -2.99319 -5.49111 0.620618 -2.9376 -6.08877 0.877082 -2.69766 
-6.53345 1.18552 -2.26141 -6.88539 1.59682 -1.81358 -7.25317 2.04449 -1.53713 
-7.6144 2.48684 -1.36606 -7.84033 2.97915 -1.10535 -7.86051 3.51877 -0.697764 
-4.86444 -0.33276 -3.01127 -5.61763 -0.858025 -2.87418 -6.41916 -1.52134 -2.4994 
-7.24369 -2.19909 -2.0767 -8.03699 -2.81441 -1.88816 -8.64775 -3.43396 -1.82175 
-8.90609 -4.07771 -1.4791 -8.80366 -4.57823 -0.805148 -8.50034 -4.7678 -0.122465 
4.69492 1.04518 -5.01374 4.23437 1.63697 -4.94063 3.71803 2.246 -4.84224 
3.23766 2.80394 -4.53396 2.7401 3.25541 -3.96546 2.10869 3.72519 -3.45398 
1.40209 4.37612 -3.28793 0.779953 5.12443 -3.31975 0.277904 5.75891 -3.25404 
4.78941 -0.025465 -5.28914 4.45832 -0.615609 -5.22742 4.07671 -1.2821 -4.86437 
3.5925 -2.0257 -4.3395 2.86782 -2.83189 -3.75448 1.935 -3.61824 -3.13171 
1.07821 -4.33109 -2.64027 0.508044 -5.01716 -2.48127 0.153594 -5.68735 -2.58568 
5.57288 0.662981 -4.67563 6.08963 0.881016 -4.30716 6.59747 1.20972 -4.17648 
7.06528 1.64645 -4.01909 7.39376 2.11048 -3.38992 7.55206 2.5355 -2.38035 
7.64751 2.86707 -1.45266 7.76896 3.0403 -0.723895 7.87447 3.06202 -0.0249549 
5.65427 -0.0140197 -4.87701 6.32553 -0.597455 -4.5525 7.10976 -1.2214 -4.26864 
7.96963 -1.84847 -4.16995 8.63231 -2.44693 -4.1137 8.80481 -2.92635 -3.69651 
8.52294 -3.17185 -2.79614 8.08023 -3.19792 -1.77613 7.69027 -3.16845 -0.992234 
-3.47932 0.360951 2.70355 -2.62936 0.216432 3.22478 -1.76605 0.015315 3.8163 
-0.8276 -0.188796 4.19762 0.262347 -0.297471 4.25008 1.44689 -0.300455 4.1764 
2.55686 -0.271931 4.23228 3.48498 -0.23699 4.43994 4.24331 -0.178887 4.66009 
-4.1677 0.962928 2.48951 -3.97285 1.41824 2.8144 -3.63084 2.01861 3.07078 
-3.20079 2.84456 2.98154 -2.85911 3.65662 2.75421 -2.61103 4.22336 2.77207 
-2.22691 4.65331 2.93583 -1.59036 5.12646 2.88039 -0.8569 5.6045 2.55414 
-3.91 -0.249687 2.61894 -3.51321 -1.06728 2.82929 -3.12233 -1.7732 2.94644 
-2.74826 -2.3357 3.10899 -2.41651 -2.99506 3.4693 -2.07662 -3.79404 3.7713 
-1.58091 -4.43811 3.63484 -0.904191 -4.8279 3.17981 -0.230813 -5.19991 2.84174 
-5.00913 0.859492 2.19795 -5.72488 1.17215 2.13719 -6.42582 1.39074 2.30618 
-7.11147 1.59946 2.54642 -7.69304 1.90353 2.49795 -7.99415 2.33 2.03532 
-7.97145 2.83234 1.40432 -7.81531 3.33484 0.823521 -7.72561 3.74593 0.289543 
-4.88196 0.108188 2.45454 -5.51213 -0.350351 2.67466 -6.12362 -0.880885 2.7858 
-6.67009 -1.42933 2.65931 -7.124 -1.91363 2.37438 -7.47364 -2.28674 1.9387 
-7.73593 -2.66499 1.36332 -7.93876 -3.22835 0.859832 -8.08561 -3.96287 0.56335 
4.61777 0.512493 4.76779 4.27829 1.16052 4.67431 3.84128 1.80292 4.5847 
3.31627 2.3847 4.50433 2.7639 2.81452 4.32384 2.22451 3.15716 3.95654 
1.67382 3.6674 3.46034 1.07485 4.44427 2.95962 0.427942 5.28476 2.52597 
4.7035 -0.790821 4.67058 4.37141 -1.4613 4.46716 3.84457 -2.06257 4.20426 
3.20131 -2.67139 3.99227 2.6042 -3.41576 3.93604 2.13544 -4.2128 3.95103 
1.72348 -4.82488 3.82014 1.26837 -5.18927 3.48699 0.761255 -5.44962 3.10214 
5.35296 0.296092 4.85432 5.91938 0.662838 4.82942 6.6433 1.01263 4.68075 
7.45132 1.47321 4.35913 8.13436 2.07227 3.81634 8.51849 2.59999 3.1499 
8.59238 2.86132 2.53764 8.45049 2.92428 1.98194 8.19105 2.96157 1.36412 
5.4142 -0.499504 4.73651 5.96863 -0.951783 4.57214 6.51207 -1.43194 4.39124 
6.96578 -1.81906 4.16959 7.24548 -2.0569 3.6606 7.36319 -2.25704 2.72699 
7.414 -2.51452 1.63794 7.44585 -2.77538 0.747968 7.43785 -2.99541 0.104389 
-0.287582 6.64091 -2.67786 -0.421133 7.11832 -2.15033 -0.488301 7.59626 -1.51947 
-0.475042 7.8246 -0.869899 -0.498824 7.58503 -0.212753 -0.609792 7.07529 0.426133 
-0.662262 6.71023 0.958433 -0.546501 6.56167 1.37334 -0.355169 6.36801 1.76099 
0.438111 6.21376 -2.98681 1.1472 6.14255 -2.78886 1.98599 6.02589 -2.42623 
2.92139 5.76096 -1.97552 3.87141 5.20928 -1.52333 4.79837 4.47115 -1.09562 
5.70524 3.82979 -0.672377 6.549 3.41945 -0.230775 7.27151 3.17976 0.2284 
-0.854897 6.37605 -2.84011 -1.64592 6.46698 -2.69368 -2.49239 6.49188 -2.59802 
-3.32833 6.34539 -2.39565 -4.23134 5.9141 -2.00026 -5.31758 5.3687 -1.58168 
-6.41815 5.02121 -1.27289 -7.18542 4.85065 -0.980959 -7.53815 4.5575 -0.622982 
0.705085 5.85165 2.06858 1.58335 5.69056 2.06827 2.42623 5.53166 2.09667 
3.3538 5.5037 2.03312 4.36464 5.57164 1.87711 5.29078 5.3635 1.74863 
6.06109 4.64585 1.65193 6.75394 3.7653 1.44956 7.38568 3.20506 1.09296 
-1.25257 6.34711 2.10234 -2.26956 6.77176 2.08812 -3.17779 7.19889 2.05263 
-3.99179 7.31791 1.89615 -4.81062 6.85148 1.58564 -5.65104 6.094 1.17552 
-6.40337 5.55555 0.742087 -6.97565 5.22019 0.342384 -7.38805 4.73661 0.0127694 
-0.0897533 -6.90705 -2.46469 -0.129456 -7.3716 -1.97169 -0.203207 -7.56194 -1.34702 
-0.202024 -7.62242 -0.730718 -0.144696 -7.74858 -0.0333357 -0.11806 -7.84999 0.870296 
-0.0944503 -7.63825 1.78054 0.00449113 -7.05612 2.38584 0.151496 -6.34062 2.66093 
0.58746 -6.53396 -2.43233 1.3165 -6.45132 -2.16829 2.10949 -5.96369 -1.90023 
3.0692 -5.55652 -1.67188 4.11413 -5.68104 -1.60129 5.02982 -5.95725 -1.67685 
5.74539 -5.67735 -1.66098 6.35595 -4.83097 -1.37475 6.91381 -3.92054 -0.907103 
-0.942399 -6.23491 -2.8695 -1.92089 -6.18914 -2.8878 -3.00257 -6.21484 -2.69164 
-4.00684 -6.18297 -2.34503 -4.886 -5.92849 -1.90427 -5.74512 -5.65779 -1.32866 
-6.59684 -5.63691 -0.661571 -7.31598 -5.65401 -0.102714 -7.82755 -5.33368 0.21365 
0.88851 -6.17167 3.0935 1.4589 -6.46992 3.20616 2.08251 -6.29914 2.71352 
2.84422 -5.77319 1.8625 3.68424 -5.41377 1.34149 4.50752 -5.36805 1.20727 
5.30952 -5.18294 0.921183 6.09048 -4.58782 0.358789 6.79263 -3.83483 -0.150026 
-0.520134 -5.66257 2.60085 -1.39306 -5.60815 2.62304 -2.28151 -5.41204 2.61772 
-3.14446 -4.9856 2.20636 -4.07148 -4.53066 1.43414 -5.13636 -4.36772 0.819831 
-6.19542 -4.53289 0.652116 -7.04048 -4.76636 0.683606 -7.65474 -4.82707 0.594362 
8.49875 2.94294 0.721196 9.1606 2.68576 0.810905 9.85703 2.06597 0.855389 
10.3897 1.2152 0.684153 10.4318 0.391515 0.289245 9.92373 -0.396146 -0.0775725 
9.19181 -1.2151 -0.227362 8.52995 -1.96891 -0.257994 7.95361 -2.60757 -0.329533 
-8.15143 2.93459 -0.0941578 -8.90937 1.79588 0.127433 -9.85976 0.851602 0.419927 
-10.562 0.0423348 0.721396 -10.6839 -0.865796 0.876586 -10.3232 -1.7902 0.752658 
-9.76698 -2.52782 0.447291 -9.18788 -3.18962 0.222824 -8.64826 -3.93686 0.213974 
-3.11379 0.547346 -2.95673 -2.77262 1.19306 -3.0161 -2.23957 0.612516 -3.14029 
-2.31414 2.01757 -3.27896 -1.82075 1.32894 -3.28117 -1.27515 0.70807 -3.42174 
-1.76727 2.88748 -3.70164 -1.2863 2.198 -3.61813 -0.763422 1.45244 -3.60771 
-0.216328 0.750415 -3.70157 -1.26779 3.62518 -3.94874 -0.727232 3.01383 -3.9882 
-0.181213 2.28665 -3.94954 0.358067 1.4922 -3.95256 0.86466 0.77041 -4.02761 
-0.858852 4.24151 -3.80816 -0.278824 3.63461 -4.01795 0.345526 2.97306 -4.13346 
0.923158 2.25747 -4.24328 1.43727 1.52422 -4.36091 1.90073 0.883931 -4.494 
-0.470643 4.82603 -3.51273 0.0784679 4.14907 -3.70567 0.744966 3.45449 -3.89267 
1.39346 2.83463 -4.19028 1.93515 2.23184 -4.52732 2.4255 1.61934 -4.7755 
2.8934 1.0536 -4.95887 -0.0784206 5.35347 -3.33899 0.429792 4.65583 -3.42208 
1.07971 3.8934 -3.49452 1.7749 3.26963 -3.79918 2.35769 2.77534 -4.31885 
2.85033 2.25681 -4.75915 3.35492 1.68848 -4.9996 3.8406 1.12613 -5.15461 
-4.56867 0.89862 -2.9 -5.18613 1.25168 -2.79415 -4.21767 1.56951 -2.84962 
-5.66195 1.58475 -2.49965 -4.71414 2.02567 -2.72568 -3.72732 2.40147 -3.01433 
-6.00137 1.9561 -2.07291 -5.07739 2.45122 -2.42567 -4.13991 2.94354 -2.88006 
-3.17821 3.27225 -3.33445 -6.36925 2.39705 -1.73838 -5.41969 2.87138 -2.05011 
-4.49958 3.43622 -2.54443 -3.59869 3.83436 -3.07909 -2.67083 4.02173 -3.47694 
-6.85408 2.89509 -1.58596 -5.91291 3.32292 -1.80024 -4.92312 3.88194 -2.16107 
-4.00621 4.36215 -2.65029 -3.10806 4.57908 -3.05419 -2.19332 4.67528 -3.30455 
-7.31321 3.4576 -1.43297 -6.51784 3.829 -1.65865 -5.48003 4.29116 -1.8913 
-4.44545 4.81635 -2.25702 -3.51651 5.13923 -2.63653 -2.60378 5.24597 -2.87946 
-1.70639 5.3202 -3.05939 -7.55412 4.05102 -1.10192 -6.99608 4.36812 -1.41576 
-6.04409 4.67101 -1.64938 -4.91331 5.14489 -1.9489 -3.89629 5.61158 -2.33228 
-2.99403 5.83571 -2.61384 -2.09797 5.89397 -2.76502 -1.24487 5.91478 -2.93175 
-7.18798 5.15358 -0.325864 -6.6006 5.54042 0.0636564 -6.65672 5.32336 -0.663236 
-5.77196 6.06812 0.494736 -5.81874 5.82973 -0.259605 -5.6712 5.56054 -1.00402 
-4.86516 6.97446 0.913578 -4.85789 6.72065 0.177372 -4.74007 6.36129 -0.661635 
-4.51778 6.11199 -1.45366 -4.04861 7.75256 1.26662 -4.02283 7.71937 0.603624 
-3.88772 7.40518 -0.23793 -3.71176 7.0744 -1.20829 -3.53558 6.75109 -1.98623 
-3.28731 7.77849 1.49434 -3.31678 8.02025 0.942529 -3.18906 8.01327 0.220424 
-2.99942 7.8833 -0.770819 -2.85589 7.58723 -1.74378 -2.70656 7.08669 -2.3497 
-2.4218 7.25611 1.59533 -2.53606 7.53155 1.13567 -2.47245 7.75941 0.577183 
-2.28112 8.0116 -0.254752 -2.13789 8.04653 -1.23178 -2.03948 7.67808 -2.01712 
[...]
POINT_DATA 1002
FIELD FieldData 4
_paraPhi 1 1002 double
6.2831853072 3.1415926536 6.2831853072 3.1415926536 4.7123889804 4.7123889804 1.5707963268 1.5707963268 3.6951670125 
5.7296109483 2.5880182947 0.5535743589 6.2831853072 6.2831853072 6.2831853072 6.2831853072 3.1415926536 3.1415926536 
3.1415926536 3.1415926536 3.1415926536 6.1053039672 5.898798347 5.6768734901 5.4599499503 5.2659633393 5.1032165617 
4.9713148346 4.8656852733 4.7809517865 0.17788134 0.38438696014 0.60631181711 0.82323535693 1.0172219679 1.1799687454 
1.3118704726 1.4175000338 1.5022335207 6.1892828907 6.1070320098 6.035312792 5.9728339911 5.9183214791 5.8706119594 
5.8286879411 5.7916808611 5.7588591896 0.093902416448 0.17615329733 0.2478725152 0.31035131605 0.36486382811 0.41257334776 
0.45449736604 0.4915044461 0.52432611754 3.3194739936 3.5259796137 3.7479044707 3.9648280105 4.1588146215 4.321561399 
4.4534631262 4.5590926874 4.6438261743 2.9637113136 2.7572056934 2.5352808365 2.3183572967 2.1243706857 1.9616239082 
1.829722181 1.7240926197 1.6393591329 3.23549507 3.3177459509 3.3894651688 3.4519439696 3.5064564817 3.5541660013 
3.5960900196 3.6330970997 3.6659187711 3.0476902371 2.9654393563 2.8937201384 2.8312413375 2.7767288255 2.7290193058 
2.6870952876 2.6500882075 2.617266536 6.2831853072 6.2831853072 6.2831853072 6.2831853072 3.1415926536 3.1415926536 
3.1415926536 3.1415926536 3.1415926536 6.1053039672 5.898798347 5.6768734901 5.4599499503 5.2659633393 5.1032165617 
4.9713148346 4.8656852733 4.7809517865 0.17788134 0.38438696014 0.60631181711 0.82323535693 1.0172219679 1.1799687454 
1.3118704726 1.4175000338 1.5022335207 6.1892828907 6.1070320098 6.035312792 5.9728339911 5.9183214791 5.8706119594 
5.8286879411 5.7916808611 5.7588591896 0.093902416448 0.17615329733 0.2478725152 0.31035131605 0.36486382811 0.41257334776 
0.45449736604 0.4915044461 0.52432611754 3.3194739936 3.5259796137 3.7479044707 3.9648280105 4.1588146215 4.321561399 
4.4534631262 4.5590926874 4.6438261743 2.9637113136 2.7572056934 2.5352808365 2.3183572967 2.1243706857 1.9616239082 
1.829722181 1.7240926197 1.6393591329 3.23549507 3.3177459509 3.3894651688 3.4519439696 3.5064564817 3.5541660013 
3.5960900196 3.6330970997 3.6659187711 3.0476902371 2.9654393563 2.8937201384 2.8312413375 2.7767288255 2.7290193058 
2.6870952876 2.6500882075 2.617266536 4.7123889804 4.7123889804 4.7123889804 4.7123889804 4.7123889804 4.7123889804 
4.7123889804 4.7123889804 4.7123889804 4.6087898617 4.4991390697 4.3857031936 4.2712800401 4.1588146215 4.0509635631 
3.94975894 3.8564636551 3.7716124825 4.8159880991 4.9256388911 5.0390747672 5.1534979207 5.2659633393 5.3738143976 
5.4750190208 5.5683143056 5.6531654782 4.6087898617 4.4991390697 4.3857031936 4.2712800401 4.1588146215 4.0509635631 
3.94975894 3.8564636551 3.7716124825 4.8159880991 4.9256388911 5.0390747672 5.1534979207 5.2659633393 5.3738143976 
5.4750190208 5.5683143056 5.6531654782 1.5707963268 1.5707963268 1.5707963268 1.5707963268 1.5707963268 1.5707963268 
1.5707963268 1.5707963268 1.5707963268 1.6743954455 1.7840462375 1.8974821136 2.0119052671 2.1243706857 2.232221744 
2.3334263672 2.426721652 2.5115728246 1.4671972081 1.3575464161 1.24411054 1.1296873865 1.0172219679 0.90937090954 
0.80816628637 0.71487100155 0.63001982895 1.6743954455 1.7840462375 1.8974821136 2.0119052671 2.1243706857 2.232221744 
2.3334263672 2.426721652 2.5115728246 1.4671972081 1.3575464161 1.24411054 1.1296873865 1.0172219679 0.90937090954 
0.80816628637 0.71487100155 0.63001982895 3.6007720849 3.4966939854 3.3839471039 3.2645756454 3.1415926536 3.0186096618 
2.8992382033 2.7864913217 2.6824132222 5.8240058758 5.9280839753 6.0408308569 6.1602023154 6.2831853072 0.12298299178 
0.2423544503 0.35510133185 0.45917943135 6.0560271438 5.7885595667 5.9702140275 5.5125918794 5.6029703303 5.7885595667 
5.2659633393 5.2659633393 5.2659633393 5.2659633393 5.0674903122 5.0120975802 4.9155579264 4.7123889804 4.1588146215 
4.9155579264 4.8353719722 4.7123889804 4.5092200343 4.1588146215 3.6362183941 4.8004512023 4.7123889804 4.5894059886 
4.4126803806 4.1588146215 3.8218076305 3.4545639333 4.7123889804 4.6243267584 4.5092200343 4.3572876485 4.1588146215 
3.9121860814 3.6362183941 3.368750817 6.0174235957 5.9434319871 5.8263323547 5.8809213739 5.7674481418 5.6279784266 
5.8278025282 5.718968232 5.5891129425 5.4372443565 5.7823484065 5.678536687 5.5575666702 5.4192596322 5.2659633393 
5.743164462 5.6444075337 5.5314983644 5.4046708639 5.2659633393 5.1195510325 5.7091357773 5.6152775188 5.5096229709 
5.3926039573 5.2659633393 5.1329233157 4.9978930058 5.6793730533 5.5901633916 5.4910209005 5.3824597928 5.2659633393 
5.1440684722 5.0201624502 4.8979782167 5.5683143056 5.4750190208 5.4750190208 5.3738143976 5.3738143976 5.3738143976 
5.2659633393 5.2659633393 5.2659633393 5.2659633393 5.1534979207 5.1534979207 5.1534979207 5.1534979207 5.1534979207 
5.0390747672 5.0390747672 5.0390747672 5.0390747672 5.0390747672 5.0390747672 4.9256388911 4.9256388911 4.9256388911 
4.9256388911 4.9256388911 4.9256388911 4.9256388911 4.8159880991 4.8159880991 4.8159880991 4.8159880991 4.8159880991 
4.8159880991 4.8159880991 4.8159880991 4.6087898617 4.6087898617 4.4991390697 4.6087898617 4.4991390697 4.3857031936 
4.6087898617 4.4991390697 4.3857031936 4.2712800401 4.6087898617 4.4991390697 4.3857031936 4.2712800401 4.1588146215 
4.6087898617 4.4991390697 4.3857031936 4.2712800401 4.1588146215 4.0509635631 4.6087898617 4.4991390697 4.3857031936 
4.2712800401 4.1588146215 4.0509635631 3.94975894 4.6087898617 4.4991390697 4.3857031936 4.2712800401 4.1588146215 
4.0509635631 3.94975894 3.8564636551 4.526799744 4.4046155105 4.426884955 4.2807094886 4.2918546451 4.3052269283 
4.1588146215 4.1588146215 4.1588146215 4.1588146215 4.042318168 4.0321740035 4.0201070968 4.0055183285 3.9875336042 
3.9337570603 3.9151549899 3.8932795963 3.8672112905 3.8356650183 3.7967995342 3.8346145692 3.809500442 3.7803704271 
3.7462412737 3.7058097288 3.657329819 3.5984456061 3.7454049075 3.7156421835 3.6816134988 3.6424295543 3.5969754326 
3.5438565869 3.4813459737 3.4073543651 3.5642842451 3.4524645613 3.5233842518 3.3320300872 3.403123212 3.4773852225 
3.20576226 3.2746326772 3.348015857 3.4255060145 3.0774230472 3.1415926536 3.2112816139 3.2864685043 3.3668817272 
2.95115522 3.00855263 3.0719036933 3.1415926536 3.2178377658 3.3005964304 2.8307207459 2.8800620952 2.9351694502 
2.9967168029 3.0653475414 3.1415926536 3.225752376 2.718901062 2.7598010554 2.8058000847 2.8576792927 2.91630358 
2.9825888767 3.0574329311 3.1415926536 3.5642842451 3.5233842518 3.4524645613 3.4773852225 3.403123212 3.3320300872 
3.4255060145 3.348015857 3.2746326772 3.20576226 3.3668817272 3.2864685043 3.2112816139 3.1415926536 3.0774230472 
3.3005964304 3.2178377658 3.1415926536 3.0719036933 3.00855263 2.95115522 3.225752376 3.1415926536 3.0653475414 
2.9967168029 2.9351694502 2.8800620952 2.8307207459 3.1415926536 3.0574329311 2.9825888767 2.91630358 2.8576792927 
2.8058000847 2.7598010554 2.718901062 4.526799744 4.426884955 4.4046155105 4.3052269283 4.2918546451 4.2807094886 
4.1588146215 4.1588146215 4.1588146215 4.1588146215 3.9875336042 4.0055183285 4.0201070968 4.0321740035 4.042318168 
3.7967995342 3.8356650183 3.8672112905 3.8932795963 3.9151549899 3.9337570603 3.5984456061 3.657329819 3.7058097288 
3.7462412737 3.7803704271 3.809500442 3.8346145692 3.4073543651 3.4813459737 3.5438565869 3.5969754326 3.6424295543 
3.6816134988 3.7156421835 3.7454049075 4.7123889804 4.8004512023 4.6243267584 4.9155579264 4.7123889804 4.5092200343 
5.0674903122 4.8353719722 4.5894059886 4.3572876485 5.2659633393 5.0120975802 4.7123889804 4.4126803806 4.1588146215 
5.5125918794 5.2659633393 4.9155579264 4.5092200343 4.1588146215 3.9121860814 5.7885595667 5.6029703303 5.2659633393 
4.7123889804 4.1588146215 3.8218076305 3.6362183941 6.0560271438 5.9702140275 5.7885595667 5.2659633393 4.1588146215 
3.6362183941 3.4545639333 3.368750817 0.22715816343 0.49462574053 0.3129712797 0.77059342779 0.68021497688 0.49462574053 
1.0172219679 1.0172219679 1.0172219679 1.0172219679 1.2156949949 1.271087727 1.3676273807 1.5707963268 2.1243706857 
1.3676273807 1.447813335 1.5707963268 1.7739652728 2.1243706857 2.6469669131 1.4827341049 1.5707963268 1.6937793186 
1.8705049266 2.1243706857 2.4613776767 2.8286213739 1.5707963268 1.6588585487 1.7739652728 1.9258976586 2.1243706857 
2.3709992258 2.6469669131 2.9144344902 1.7563855631 1.8785697967 1.8563003522 2.0024758186 1.9913306621 1.9779583789 
2.1243706857 2.1243706857 2.1243706857 2.1243706857 2.2408671392 2.2510113037 2.2630782103 2.2776669786 2.295651703 
2.3494282469 2.3680303173 2.3899057108 2.4159740166 2.4475202889 2.486385773 2.448570738 2.4736848652 2.5028148801 
2.5369440334 2.5773755784 2.6258554882 2.6847397011 2.5377803997 2.5675431237 2.6015718084 2.6407557529 2.6862098746 
2.7393287203 2.8018393335 2.8758309421 1.6743954455 1.6743954455 1.7840462375 1.6743954455 1.7840462375 1.8974821136 
1.6743954455 1.7840462375 1.8974821136 2.0119052671 1.6743954455 1.7840462375 1.8974821136 2.0119052671 2.1243706857 
1.6743954455 1.7840462375 1.8974821136 2.0119052671 2.1243706857 2.232221744 1.6743954455 1.7840462375 1.8974821136 
2.0119052671 2.1243706857 2.232221744 2.3334263672 1.6743954455 1.7840462375 1.8974821136 2.0119052671 2.1243706857 
2.232221744 2.3334263672 2.426721652 1.4671972081 1.3575464161 1.4671972081 1.24411054 1.3575464161 1.4671972081 
1.1296873865 1.24411054 1.3575464161 1.4671972081 1.0172219679 1.1296873865 1.24411054 1.3575464161 1.4671972081 
0.90937090954 1.0172219679 1.1296873865 1.24411054 1.3575464161 1.4671972081 0.80816628637 0.90937090954 1.0172219679 
1.1296873865 1.24411054 1.3575464161 1.4671972081 0.71487100155 0.80816628637 0.90937090954 1.0172219679 1.1296873865 
1.24411054 1.3575464161 1.4671972081 0.60381225391 0.57404952988 0.69302191562 0.54002084522 0.66790778838 0.79216440667 
0.50083690068 0.63877777351 0.77356233629 0.90072551443 0.45538277901 0.60464862014 0.75168694275 0.89058134991 1.0172219679 
0.40226393329 0.56421707518 0.72561863695 0.87851444325 1.0172219679 1.139116835 0.33975332011 0.51573716537 0.69407236469 
0.86392567495 1.0172219679 1.1502619915 1.2630228569 0.26576171152 0.45685295248 0.6552068806 0.84594095064 1.0172219679 
1.1636342747 1.2852923014 1.3852070904 0.22715816343 0.3129712797 0.49462574053 0.49462574053 0.68021497688 0.77059342779 
1.0172219679 1.0172219679 1.0172219679 1.0172219679 2.1243706857 1.5707963268 1.3676273807 1.271087727 1.2156949949 
2.6469669131 2.1243706857 1.7739652728 1.5707963268 1.447813335 1.3676273807 2.8286213739 2.4613776767 2.1243706857 
1.8705049266 1.6937793186 1.5707963268 1.4827341049 2.9144344902 2.6469669131 2.3709992258 2.1243706857 1.9258976586 
1.7739652728 1.6588585487 1.5707963268 1.7563855631 1.8563003522 1.8785697967 1.9779583789 1.9913306621 2.0024758186 
2.1243706857 2.1243706857 2.1243706857 2.1243706857 2.295651703 2.2776669786 2.2630782103 2.2510113037 2.2408671392 
2.486385773 2.4475202889 2.4159740166 2.3899057108 2.3680303173 2.3494282469 2.6847397011 2.6258554882 2.5773755784 
2.5369440334 2.5028148801 2.4736848652 2.448570738 2.8758309421 2.8018393335 2.7393287203 2.6862098746 2.6407557529 
2.6015718084 2.5675431237 2.5377803997 5.8604937156 5.901393709 5.9723133995 5.9473927383 6.0216547488 6.0927478736 
5.9992719463 6.0767621038 6.1501452836 6.2190157008 6.0578962336 6.1383094565 6.2134963469 0 0.064169606361 
6.1241815303 6.206940195 6.2831853072 0.069688960264 0.13304002361 0.19043743361 6.1990255847 0 0.07624511221 
0.14487585072 0.20642320337 0.26153055843 0.3108719077 0 0.084159722458 0.15900377685 0.22528907359 0.28391336087 
0.3357925689 0.38179159818 0.42269159155 5.8604937156 5.9723133995 5.901393709 6.0927478736 6.0216547488 5.9473927383 
6.2190157008 6.1501452836 6.0767621038 5.9992719463 0.064169606361 0 6.2134963469 6.1383094565 6.0578962336 
0.19043743361 0.13304002361 0.069688960264 6.2831853072 6.206940195 6.1241815303 0.3108719077 0.26153055843 0.20642320337 
0.14487585072 0.07624511221 6.2831853072 6.1990255847 0.42269159155 0.38179159818 0.3357925689 0.28391336087 0.22528907359 
0.15900377685 0.084159722458 0 5.6793730533 5.7091357773 5.5901633916 5.743164462 5.6152775188 5.4910209005 
5.7823484065 5.6444075337 5.5096229709 5.3824597928 5.8278025282 5.678536687 5.5314983644 5.3926039573 5.2659633393 
5.8809213739 5.718968232 5.5575666702 5.4046708639 5.2659633393 5.1440684722 5.9434319871 5.7674481418 5.5891129425 
5.4192596322 5.2659633393 5.1329233157 5.0201624502 6.0174235957 5.8263323547 5.6279784266 5.4372443565 5.2659633393 
5.1195510325 4.9978930058 4.8979782167 1.3852070904 1.2852923014 1.2630228569 1.1636342747 1.1502619915 1.139116835 
1.0172219679 1.0172219679 1.0172219679 1.0172219679 0.84594095064 0.86392567495 0.87851444325 0.89058134991 0.90072551443 
0.6552068806 0.69407236469 0.72561863695 0.75168694275 0.77356233629 0.79216440667 0.45685295248 0.51573716537 0.56421707518 
0.60464862014 0.63877777351 0.66790778838 0.69302191562 0.26576171152 0.33975332011 0.40226393329 0.45538277901 0.50083690068 
0.54002084522 0.57404952988 0.60381225391 
_paraPhiHalf 1 1002 double
0 3.1415926536 0 3.1415926536 1.5707963268 1.5707963268 1.5707963268 1.5707963268 2.5880182947 
0.5535743589 2.5880182947 0.5535743589 0 0 0 0 3.1415926536 3.1415926536 
3.1415926536 3.1415926536 3.1415926536 0.17788134 0.38438696014 0.60631181711 0.82323535693 1.0172219679 1.1799687454 
1.3118704726 1.4175000338 1.5022335207 0.17788134 0.38438696014 0.60631181711 0.82323535693 1.0172219679 1.1799687454 
1.3118704726 1.4175000338 1.5022335207 0.093902416448 0.17615329733 0.2478725152 0.31035131605 0.36486382811 0.41257334776 
0.45449736604 0.4915044461 0.52432611754 0.093902416448 0.17615329733 0.2478725152 0.31035131605 0.36486382811 0.41257334776 
0.45449736604 0.4915044461 0.52432611754 2.9637113136 2.7572056934 2.5352808365 2.3183572967 2.1243706857 1.9616239082 
1.829722181 1.7240926197 1.6393591329 2.9637113136 2.7572056934 2.5352808365 2.3183572967 2.1243706857 1.9616239082 
1.829722181 1.7240926197 1.6393591329 3.0476902371 2.9654393563 2.8937201384 2.8312413375 2.7767288255 2.7290193058 
2.6870952876 2.6500882075 2.617266536 3.0476902371 2.9654393563 2.8937201384 2.8312413375 2.7767288255 2.7290193058 
2.6870952876 2.6500882075 2.617266536 0 0 0 0 3.1415926536 3.1415926536 
3.1415926536 3.1415926536 3.1415926536 0.17788134 0.38438696014 0.60631181711 0.82323535693 1.0172219679 1.1799687454 
1.3118704726 1.4175000338 1.5022335207 0.17788134 0.38438696014 0.60631181711 0.82323535693 1.0172219679 1.1799687454 
1.3118704726 1.4175000338 1.5022335207 0.093902416448 0.17615329733 0.2478725152 0.31035131605 0.36486382811 0.41257334776 
0.45449736604 0.4915044461 0.52432611754 0.093902416448 0.17615329733 0.2478725152 0.31035131605 0.36486382811 0.41257334776 
0.45449736604 0.4915044461 0.52432611754 2.9637113136 2.7572056934 2.5352808365 2.3183572967 2.1243706857 1.9616239082 
1.829722181 1.7240926197 1.6393591329 2.9637113136 2.7572056934 2.5352808365 2.3183572967 2.1243706857 1.9616239082 
1.829722181 1.7240926197 1.6393591329 3.0476902371 2.9654393563 2.8937201384 2.8312413375 2.7767288255 2.7290193058 
2.6870952876 2.6500882075 2.617266536 3.0476902371 2.9654393563 2.8937201384 2.8312413375 2.7767288255 2.7290193058 
2.6870952876 2.6500882075 2.617266536 1.5707963268 1.5707963268 1.5707963268 1.5707963268 1.5707963268 1.5707963268 
1.5707963268 1.5707963268 1.5707963268 1.6743954455 1.7840462375 1.8974821136 2.0119052671 2.1243706857 2.232221744 
2.3334263672 2.426721652 2.5115728246 1.4671972081 1.3575464161 1.24411054 1.1296873865 1.0172219679 0.90937090954 
0.80816628637 0.71487100155 0.63001982895 1.6743954455 1.7840462375 1.8974821136 2.0119052671 2.1243706857 2.232221744 
2.3334263672 2.426721652 2.5115728246 1.4671972081 1.3575464161 1.24411054 1.1296873865 1.0172219679 0.90937090954 
0.80816628637 0.71487100155 0.63001982895 1.5707963268 1.5707963268 1.5707963268 1.5707963268 1.5707963268 1.5707963268 
1.5707963268 1.5707963268 1.5707963268 1.6743954455 1.7840462375 1.8974821136 2.0119052671 2.1243706857 2.232221744 
2.3334263672 2.426721652 2.5115728246 1.4671972081 1.3575464161 1.24411054 1.1296873865 1.0172219679 0.90937090954 
0.80816628637 0.71487100155 0.63001982895 1.6743954455 1.7840462375 1.8974821136 2.0119052671 2.1243706857 2.232221744 
2.3334263672 2.426721652 2.5115728246 1.4671972081 1.3575464161 1.24411054 1.1296873865 1.0172219679 0.90937090954 
0.80816628637 0.71487100155 0.63001982895 2.6824132222 2.7864913217 2.8992382033 3.0186096618 3.1415926536 3.0186096618 
2.8992382033 2.7864913217 2.6824132222 0.45917943135 0.35510133185 0.2423544503 0.12298299178 0 0.12298299178 
0.2423544503 0.35510133185 0.45917943135 0.22715816343 0.49462574053 0.3129712797 0.77059342779 0.68021497688 0.49462574053 
1.0172219679 1.0172219679 1.0172219679 1.0172219679 1.2156949949 1.271087727 1.3676273807 1.5707963268 2.1243706857 
1.3676273807 1.447813335 1.5707963268 1.7739652728 2.1243706857 2.6469669131 1.4827341049 1.5707963268 1.6937793186 
1.8705049266 2.1243706857 2.4613776767 2.8286213739 1.5707963268 1.6588585487 1.7739652728 1.9258976586 2.1243706857 
2.3709992258 2.6469669131 2.9144344902 0.26576171152 0.33975332011 0.45685295248 0.40226393329 0.51573716537 0.6552068806 
0.45538277901 0.56421707518 0.69407236469 0.84594095064 0.50083690068 0.60464862014 0.72561863695 0.86392567495 1.0172219679 
0.54002084522 0.63877777351 0.75168694275 0.87851444325 1.0172219679 1.1636342747 0.57404952988 0.66790778838 0.77356233629 
0.89058134991 1.0172219679 1.1502619915 1.2852923014 0.60381225391 0.69302191562 0.79216440667 0.90072551443 1.0172219679 
1.139116835 1.2630228569 1.3852070904 0.71487100155 0.80816628637 0.80816628637 0.90937090954 0.90937090954 0.90937090954 
1.0172219679 1.0172219679 1.0172219679 1.0172219679 1.1296873865 1.1296873865 1.1296873865 1.1296873865 1.1296873865 
1.24411054 1.24411054 1.24411054 1.24411054 1.24411054 1.24411054 1.3575464161 1.3575464161 1.3575464161 
1.3575464161 1.3575464161 1.3575464161 1.3575464161 1.4671972081 1.4671972081 1.4671972081 1.4671972081 1.4671972081 
1.4671972081 1.4671972081 1.4671972081 1.6743954455 1.6743954455 1.7840462375 1.6743954455 1.7840462375 1.8974821136 
1.6743954455 1.7840462375 1.8974821136 2.0119052671 1.6743954455 1.7840462375 1.8974821136 2.0119052671 2.1243706857 
1.6743954455 1.7840462375 1.8974821136 2.0119052671 2.1243706857 2.232221744 1.6743954455 1.7840462375 1.8974821136 
2.0119052671 2.1243706857 2.232221744 2.3334263672 1.6743954455 1.7840462375 1.8974821136 2.0119052671 2.1243706857 
2.232221744 2.3334263672 2.426721652 1.7563855631 1.8785697967 1.8563003522 2.0024758186 1.9913306621 1.9779583789 
2.1243706857 2.1243706857 2.1243706857 2.1243706857 2.2408671392 2.2510113037 2.2630782103 2.2776669786 2.295651703 
2.3494282469 2.3680303173 2.3899057108 2.4159740166 2.4475202889 2.486385773 2.448570738 2.4736848652 2.5028148801 
2.5369440334 2.5773755784 2.6258554882 2.6847397011 2.5377803997 2.5675431237 2.6015718084 2.6407557529 2.6862098746 
2.7393287203 2.8018393335 2.8758309421 2.718901062 2.8307207459 2.7598010554 2.95115522 2.8800620952 2.8058000847 
3.0774230472 3.00855263 2.9351694502 2.8576792927 3.0774230472 3.1415926536 3.0719036933 2.9967168029 2.91630358 
2.95115522 3.00855263 3.0719036933 3.1415926536 3.0653475414 2.9825888767 2.8307207459 2.8800620952 2.9351694502 
2.9967168029 3.0653475414 3.1415926536 3.0574329311 2.718901062 2.7598010554 2.8058000847 2.8576792927 2.91630358 
2.9825888767 3.0574329311 3.1415926536 2.718901062 2.7598010554 2.8307207459 2.8058000847 2.8800620952 2.95115522 
2.8576792927 2.9351694502 3.00855263 3.0774230472 2.91630358 2.9967168029 3.0719036933 3.1415926536 3.0774230472 
2.9825888767 3.0653475414 3.1415926536 3.0719036933 3.00855263 2.95115522 3.0574329311 3.1415926536 3.0653475414 