# vtk DataFile Version 5.1
vtk output
ASCII
DATASET POLYDATA
POINTS 100 float
7.63234 25.9963 15.3685 7.64591 26.0049 15.3697 7.68725 26.029 15.3673 
7.75486 26.0682 15.3606 7.84644 26.1215 15.3485 7.95908 26.1878 15.3299 
8.08952 26.2656 15.3036 8.23444 26.3535 15.2685 8.39075 26.4502 15.224 
8.55576 26.5541 15.1698 8.72738 26.6642 15.1062 8.90419 26.7796 15.0341 
9.08538 26.8995 14.9547 9.27067 27.0234 14.8697 9.46019 27.1513 14.7811 
9.65423 27.2831 14.6908 9.85309 27.4189 14.6007 10.0569 27.5591 14.5125 
10.2654 27.704 14.4274 10.478 27.854 14.3463 10.6938 28.0093 14.2696 
10.9115 28.1703 14.1973 11.1296 28.3372 14.1293 11.3467 28.51 14.0653 
11.5614 28.6886 14.0046 11.7728 28.873 13.9471 11.9803 29.0628 13.8925 
12.1838 29.2575 13.8407 12.3837 29.4567 13.7921 12.5809 29.6596 13.7468 
12.7764 29.8656 13.7054 12.9715 30.074 13.6683 13.1674 30.284 13.6359 
13.365 30.4952 13.6081 13.5651 30.7071 13.5849 13.7676 30.9194 13.5658 
13.9723 31.1322 13.5502 14.1783 31.3456 13.537 14.3844 31.5604 13.5252 
14.5893 31.777 13.5136 14.7914 31.9965 13.5012 14.9893 32.2196 13.487 
15.182 32.4473 13.4703 15.3687 32.6801 13.4506 15.5492 32.9184 13.4278 
15.7238 33.162 13.402 15.8933 33.4105 13.3731 16.0586 33.6628 13.3415 
16.2214 33.9175 13.3073 16.383 34.1726 13.2705 16.5451 34.4262 13.2309 
16.7091 34.676 13.1882 16.8761 34.9202 13.1418 17.047 35.1572 13.0911 
17.2225 35.3857 13.0355 17.4028 35.6055 12.9745 17.5878 35.8167 12.9081 
17.7772 36.0203 12.8364 17.9705 36.2181 12.7602 18.1669 36.4121 12.6805 
18.3657 36.6049 12.5992 18.5657 36.7989 12.518 18.766 36.9965 12.4393 
18.9654 37.1997 12.3652 19.1624 37.4098 12.2977 19.356 37.6273 12.2386 
19.5448 37.8521 12.189 19.7275 38.083 12.1492 19.9032 38.3185 12.1191 
20.0712 38.5564 12.0977 20.2311 38.7943 12.0835 20.3829 39.0298 12.0744 
20.5274 39.2607 12.0683 20.6655 39.4854 12.0628 20.799 39.7025 12.056 
20.9296 39.9118 12.046 21.0594 40.1133 12.0318 21.1905 40.3079 12.013 
21.3245 40.4965 11.9896 21.4626 40.6806 11.9625 21.6054 40.8615 11.933 
21.7525 41.0401 11.9028 21.9025 41.2172 11.8737 22.0535 41.3928 11.8476 
22.2025 41.5665 11.8262 22.3462 41.737 11.8108 22.481 41.9029 11.8023 
22.6035 42.0622 11.801 22.7107 42.213 11.8067 22.8005 42.3532 11.819 
22.8718 42.481 11.8366 22.9244 42.5951 11.8582 22.9597 42.6948 11.8823 
22.9798 42.7794 11.9072 22.9877 42.8493 11.9312 22.9871 42.9049 11.9528 
22.9815 42.9468 11.9707 22.9745 42.9759 11.9837 22.9687 42.9929 11.9911 
22.966 42.9981 11.9923 
LINES 2 100
OFFSETS vtktypeint64
0 100 
CONNECTIVITY vtktypeint64
0 1 2 3 4 5 6 7 8 
9 10 11 12 13 14 15 16 17 
18 19 20 21 22 23 24 25 26 
27 28 29 30 31 32 33 34 35 
36 37 38 39 40 41 42 43 44 
45 46 47 48 49 50 51 52 53 
54 55 56 57 58 59 60 61 62 
63 64 65 66 67 68 69 70 71 
72 73 74 75 76 77 78 79 80 
81 82 83 84 85 86 87 88 89 
90 91 92 93 94 95 96 97 98 
99 
POINT_DATA 100
FIELD FieldData 3
_theta 1 100 double
0 0.031733259127 0.063466518254 0.095199777382 0.12693303651 0.15866629564 0.19039955476 0.22213281389 0.25386607302 
0.28559933214 0.31733259127 0.3490658504 0.38079910953 0.41253236865 0.44426562778 0.47599888691 0.50773214603 0.53946540516 
0.57119866429 0.60293192342 0.63466518254 0.66639844167 0.6981317008 0.72986495992 0.76159821905 0.79333147818 0.82506473731 
0.85679799643 0.88853125556 0.92026451469 0.95199777382 0.98373103294 1.0154642921 1.0471975512 1.0789308103 1.1106640695 
1.1423973286 1.1741305877 1.2058638468 1.237597106 1.2693303651 1.3010636242 1.3327968833 1.3645301425 1.3962634016 
1.4279966607 1.4597299198 1.491463179 1.5231964381 1.5549296972 1.5866629564 1.6183962155 1.6501294746 1.6818627337 
1.7135959929 1.745329252 1.7770625111 1.8087957702 1.8405290294 1.8722622885 1.9039955476 1.9357288068 1.9674620659 
1.999195325 2.0309285841 2.0626618433 2.0943951024 2.1261283615 2.1578616206 2.1895948798 2.2213281389 2.253061398 
2.2847946572 2.3165279163 2.3482611754 2.3799944345 2.4117276937 2.4434609528 2.4751942119 2.506927471 2.5386607302 
2.5703939893 2.6021272484 2.6338605076 2.6655937667 2.6973270258 2.7290602849 2.7607935441 2.7925268032 2.8242600623 
2.8559933214 2.8877265806 2.9194598397 2.9511930988 2.982926358 3.0146596171 3.0463928762 3.0781261353 3.1098593945 
3.1415926536 
_radius 1 100 double
5.234227664e-14 0.28603698628 0.56866296911 0.84468204802 1.1114904678 1.3672757728 1.6110985611 1.8428423353 2.0630482236 
2.2726836092 2.4729083802 2.6648897848 2.8496866847 3.028195805 3.2011382525 3.3690640167 3.5323597234 3.6912547788 
3.8458291216 3.9960297835 4.1417026792 4.2826411377 4.4186455183 4.549581763 4.6754239726 4.7962688559 4.9123176908 
5.0238315112 5.1310737396 5.2342581187 5.3335171891 5.4288988131 5.5203883027 5.6079450798 5.691538191 5.771165658 
5.8468481711 5.9185961861 5.9863580807 6.0499625463 6.1090691267 6.1631374075 6.2114203075 6.2529828516 6.2867459838 
6.3115547623 6.3262697883 6.3298782622 6.3216164426 6.3010900909 6.2683759659 6.224086969 6.1693860747 6.1059389836 
6.0358023578 5.9612538398 5.8845810802 5.8078568177 5.7327318413 5.6602752389 5.5908827 5.5242620202 5.4594938388 
5.3951573045 5.3295054326 5.2606724725 5.1868939367 5.1067178187 5.0191833626 4.9239435001 4.8213109665 4.7122172634 
4.5980872287 4.4806469233 4.3616939399 4.2428623266 4.1254079011 4.0100287032 3.8967288775 3.7847388257 3.6725159905 
3.5578544326 3.4381143039 3.3105478307 3.1726660588 3.0225775567 2.8592372095 2.6825603376 2.4933783364 2.2932380381 
2.0840800206 1.8678661179 1.6462499121 1.4203800147 1.1908873131 0.95804490464 0.7220293983 0.48318089047 0.24216729191 
6.1268512299e-14 
_area 1 100 double
0 0.25049944612 0.98890489558 2.1790963273 3.7704188119 5.7087184932 7.9459762123 10.444912464 13.177326978 
16.11840849 19.241238008 22.514711519 25.905366682 29.381339898 32.916024424 36.489748774 40.089148473 43.705069477 
47.330316102 50.958208058 54.582016497 58.194539551 61.786982008 65.347057723 68.857345084 72.295549425 75.637738549 
78.86388834 81.963386664 84.937829732 87.799689455 90.567395182 93.259069048 95.887702272 98.459561686 100.97576307 
103.43538091 105.83781196 108.18265782 110.46684747 112.68004054 114.7998953 116.78888889 118.59432096 120.15244841 
121.39608123 122.26324185 122.70401855 122.68405517 122.18534346 121.20657668 119.76522913 117.90174219 115.68364162 
113.20553862 110.58118476 107.92657587 105.33760085 102.86972272 100.52794217 98.271371296 96.030418903 93.730049543 
91.31129799 88.744527039 86.031272678 83.195750424 80.270411056 77.28177214 74.242928602 71.156099539 68.022490591 
64.85229255 61.668882357 58.506359631 55.403393556 52.396459077 49.513312717 46.766053934 44.144223271 41.611054726 
39.107452428 36.565713646 33.928065392 31.161167173 28.261891216 25.255564929 22.19001499 19.127989299 16.139099006 
13.291668523 10.645203178 8.2450927484 6.1215070432 4.2930055995 2.7725039578 1.5718111103 0.70285055383 0.17639298638 
6.5211542932e-13 
