# vtk DataFile Version 5.1
vtk output
ASCII
DATASET POLYDATA
POINTS 100 float
7.0431 32.0647 12.8943 7.05365 32.0675 12.9008 7.08488 32.0732 12.9147 
7.1355 32.0823 12.9353 7.20355 32.0954 12.9612 7.28661 32.1135 12.9908 
7.38209 32.1378 13.0222 7.4875 32.1695 13.0533 7.60073 32.2098 13.0817 
7.72031 32.2598 13.1053 7.84552 32.3202 13.1221 7.97651 32.3915 13.1302 
8.11422 32.4737 13.1282 8.26029 32.5663 13.1152 8.41684 32.6683 13.0907 
8.58625 32.7782 13.055 8.77084 32.8942 13.0087 8.97263 33.0141 12.9533 
9.1931 33.1357 12.8904 9.43301 33.2569 12.8223 9.69235 33.376 12.7513 
9.97025 33.4917 12.6801 10.2651 33.6033 12.611 10.5748 33.7108 12.5464 
10.8966 33.8151 12.4881 11.2277 33.9176 12.4376 11.5654 34.0203 12.3958 
11.907 34.1255 12.3629 12.2504 34.2357 12.3387 12.5938 34.353 12.3222 
12.9361 34.4792 12.3123 13.2767 34.6156 12.3073 13.6153 34.7624 12.3056 
13.9521 34.9191 12.3054 14.2878 35.0843 12.3052 14.623 35.2558 12.3038 
14.9584 35.4309 12.3003 15.2946 35.6066 12.2943 15.6323 35.7798 12.2859 
15.9717 35.9477 12.2755 16.313 36.1081 12.2637 16.6561 36.2592 12.2515 
17.0008 36.4005 12.2398 17.3467 36.5321 12.2293 17.6932 36.6547 12.2208 
18.0395 36.7701 12.2143 18.3849 36.8801 12.2097 18.7284 36.987 12.2065 
19.0691 37.0928 12.2036 19.4061 37.1994 12.1998 19.7385 37.3081 12.1937 
20.0655 37.4195 12.1837 20.3866 37.5339 12.1686 20.7012 37.6506 12.1472 
21.0093 37.7688 12.1191 21.311 37.8873 12.0839 21.6067 38.0048 12.0422 
21.8973 38.1201 11.995 22.1836 38.2322 11.9438 22.4669 38.3407 11.8904 
22.7484 38.4456 11.837 23.0294 38.5473 11.7857 23.311 38.6465 11.7387 
23.5939 38.7444 11.6979 23.8786 38.842 11.6648 24.1652 38.9406 11.6402 
24.4534 39.0408 11.6247 24.7425 39.1433 11.6182 25.0317 39.2482 11.62 
25.3198 39.3551 11.6292 25.6061 39.4633 11.6443 25.8898 39.5719 11.6638 
26.1705 39.6796 11.6861 26.4483 39.7853 11.7096 26.7238 39.8878 11.733 
26.9981 39.9865 11.7549 27.2726 40.0807 11.7746 27.5492 40.1703 11.7912 
27.8297 40.2553 11.8043 28.1157 40.3361 11.8136 28.4084 40.4131 11.819 
28.7086 40.487 11.8204 29.0162 40.558 11.8176 29.3302 40.6264 11.8108 
29.6486 40.6923 11.7998 29.969 40.7553 11.7846 30.2877 40.8149 11.7651 
30.601 40.8705 11.7415 30.9047 40.9214 11.714 31.1946 40.9668 11.683 
31.4667 41.0062 11.6491 31.7173 41.0393 11.6132 31.9435 41.0662 11.5764 
32.1428 41.087 11.54 32.3134 41.1024 11.5054 32.4541 41.1132 11.474 
32.5641 41.1201 11.4472 32.6431 41.124 11.4262 32.6909 41.1256 11.4119 
32.7075 41.1255 11.4051 
LINES 2 100
OFFSETS vtktypeint64
0 100 
CONNECTIVITY vtktypeint64
0 1 2 3 4 5 6 7 8 
9 10 11 12 13 14 15 16 17 
18 19 20 21 22 23 24 25 26 
27 28 29 30 31 32 33 34 35 
36 37 38 39 40 41 42 43 44 
45 46 47 48 49 50 51 52 53 
54 55 56 57 58 59 60 61 62 
63 64 65 66 67 68 69 70 71 
72 73 74 75 76 77 78 79 80 
81 82 83 84 85 86 87 88 89 
90 91 92 93 94 95 96 97 98 
99 
POINT_DATA 100
FIELD FieldData 3
_theta 1 100 double
0 0.031733259127 0.063466518254 0.095199777382 0.12693303651 0.15866629564 0.19039955476 0.22213281389 0.25386607302 
0.28559933214 0.31733259127 0.3490658504 0.38079910953 0.41253236865 0.44426562778 0.47599888691 0.50773214603 0.53946540516 
0.57119866429 0.60293192342 0.63466518254 0.66639844167 0.6981317008 0.72986495992 0.76159821905 0.79333147818 0.82506473731 
0.85679799643 0.88853125556 0.92026451469 0.95199777382 0.98373103294 1.0154642921 1.0471975512 1.0789308103 1.1106640695 
1.1423973286 1.1741305877 1.2058638468 1.237597106 1.2693303651 1.3010636242 1.3327968833 1.3645301425 1.3962634016 
1.4279966607 1.4597299198 1.491463179 1.5231964381 1.5549296972 1.5866629564 1.6183962155 1.6501294746 1.6818627337 
1.7135959929 1.745329252 1.7770625111 1.8087957702 1.8405290294 1.8722622885 1.9039955476 1.9357288068 1.9674620659 
1.999195325 2.0309285841 2.0626618433 2.0943951024 2.1261283615 2.1578616206 2.1895948798 2.2213281389 2.253061398 
2.2847946572 2.3165279163 2.3482611754 2.3799944345 2.4117276937 2.4434609528 2.4751942119 2.506927471 2.5386607302 
2.5703939893 2.6021272484 2.6338605076 2.6655937667 2.6973270258 2.7290602849 2.7607935441 2.7925268032 2.8242600623 
2.8559933214 2.8877265806 2.9194598397 2.9511930988 2.982926358 3.0146596171 3.0463928762 3.0781261353 3.1098593945 
3.1415926536 
_radius 1 100 double
5.0905874648e-14 0.31746815346 0.63210427764 0.94133195417 1.2429916724 1.535460532 1.8176862676 2.0891376392 2.3496904798 
2.5994803376 2.8387548797 3.0677514002 3.2866107677 3.4953261283 3.6937193366 3.8814423103 4.0580097521 4.2228753827 
4.3755589308 4.5158151895 4.6438163818 4.7603047679 4.866670745 4.9649232769 5.0575399429 5.147207243 5.2364834309 
5.3274334837 5.4212968138 5.5182497492 5.617313222 5.7164317176 5.8127185181 5.9028338373 5.9834430901 6.0516934892 
6.1056462745 6.1446069178 6.1693058055 6.1818974027 6.1857667021 6.1851565021 6.1846547617 6.1886039768 6.200510267 
6.2225356271 6.2551500959 6.2969994124 6.3450090802 6.3947057824 6.4407051382 6.4772996336 6.4990795252 6.5015236328 
6.4815004961 6.4376244391 6.3704200097 6.2822652027 6.1771088456 6.0599877417 5.936400141 5.8116187374 5.6900435829 
5.5746980324 5.466953489 5.3665264859 5.2717281362 5.1798828568 5.0878040635 4.9922361736 4.8902241062 4.7794126099 
4.6582846195 4.526330097 4.3841202222 4.2332630482 4.0762346811 3.9161034944 3.7561827934 3.5996542215 3.4492017989 
3.306691839 3.1729324086 3.0475444418 2.928966254 2.8145905727 2.7010067219 2.5843036918 2.4603893888 2.3252939804 
2.1754417766 2.0078879829 1.8205200063 1.6122194226 1.382975134 1.1339351582 0.86738580015 0.58665217989 0.29592165991 
6.2382683769e-14 
_area 1 100 double
0 0.31490875541 1.248221323 2.7671589455 4.8216354681 7.3500119648 10.285346203 13.56097077 17.114585701 
20.890606145 24.841028506 28.925279954 33.109284376 37.363575428 41.660228775 45.968989645 50.253920883 54.472319131 
58.576957356 62.521354131 66.266725322 69.788966179 73.084137222 76.171158814 79.090823976 81.900964081 84.66838276 
87.45846688 90.323214087 93.288671942 96.344049589 99.436132305 102.47231314 105.33291469 107.89017529 110.02970977 
111.67092111 112.78392284 113.39929669 113.60230428 113.50860333 113.24693953 112.96029179 112.8016033 112.91842023 
113.43275164 114.41996829 115.88961255 117.77123218 119.90912739 122.07058548 123.96986315 125.30496541 125.80102524 
125.25400564 123.56993481 120.8408303 117.48278548 113.49875155 109.12557879 104.59934392 100.08288034 95.748453939 
91.691084607 87.941042164 84.488011746 81.286421147 78.263354753 75.332012427 72.408183877 69.425291913 66.343604694 
63.152246742 59.865762804 56.517379195 53.150517789 49.810421163 46.537901733 43.366195895 40.320220526 37.416630191 
34.663618856 32.060641297 29.598833 27.262368486 25.030076772 22.876444052 20.771962023 18.68402739 16.580379157 
14.436407777 12.245226458 10.026731708 7.8314434127 5.7370770189 3.8387593113 2.2358383222 1.0187434993 0.25850748889 
1.1368683772e-13 
