# vtk DataFile Version 5.1
vtk output
ASCII
DATASET POLYDATA
POINTS 1002 float
-5.55232 -0.317042 -4.53374 5.15425 0.515763 -4.38838 -5.22421 0.684074 4.27357 
5.06304 -0.392121 3.03035 0.504128 6.17441 -2.79256 0.452563 6.65005 4.14642 
0.070206 -5.89683 -2.92719 1.10227 -6.59336 2.81692 9.44593 4.95743 -0.395757 
-10.526 3.97692 0.0731288 9.57334 -4.67581 1.11425 -9.77435 -4.43234 -0.107433 
-4.49298 -0.346925 -4.70453 -3.46425 -0.420409 -5.11345 -2.4764 -0.428111 -5.51932 
-1.40168 -0.259698 -5.64437 -0.152842 -0.0248937 -5.54022 1.1438 0.0849252 -5.46055 
2.30517 0.116788 -5.40386 3.3116 0.224056 -5.18472 4.24791 0.391702 -4.7966 
-5.04685 0.155527 -4.26377 -4.53797 0.68701 -4.08062 -4.10521 1.37759 -3.96025 
-3.63218 2.16409 -3.81873 -2.93994 2.90364 -3.63045 -2.08079 3.58742 -3.44654 
-1.27937 4.28112 -3.29529 -0.628686 4.96894 -3.15197 -0.0567976 5.60366 -2.98709 
-5.27713 -0.919568 -4.84634 -4.795 -1.72274 -5.07372 -4.17066 -2.53681 -5.10328 
-3.55967 -3.18591 -4.93055 -2.99119 -3.77848 -4.72798 -2.33817 -4.47393 -4.63876 
-1.58583 -5.12424 -4.53678 -0.894003 -5.51963 -4.19638 -0.360113 -5.71841 -3.60227 
-6.32986 -0.0373866 -4.35065 -7.13547 0.278474 -4.21752 -7.98087 0.790328 -4.04999 
-8.84511 1.46335 -3.7228 -9.61223 2.02879 -3.16123 -10.1638 2.41003 -2.43379 
-10.498 2.8411 -1.69911 -10.6662 3.38878 -1.05087 -10.6773 3.8208 -0.475172 
-6.50573 -0.662731 -4.8056 -7.37419 -1.1302 -5.17194 -7.97382 -1.70794 -5.25913 
-8.31907 -2.29828 -4.77773 -8.60021 -2.79356 -3.89854 -8.92671 -3.19174 -2.99789 
-9.25561 -3.56897 -2.18274 -9.53144 -3.94486 -1.39343 -9.71968 -4.2542 -0.673367 
4.88363 1.14439 -4.49535 4.6034 1.7027 -4.7116 4.27339 2.28716 -5.02971 
3.83032 3.05602 -5.23549 3.25571 3.92857 -5.07476 2.61035 4.58886 -4.57485 
1.98555 4.94862 -4.00714 1.43095 5.26339 -3.54574 0.943622 5.707 -3.16491 
4.87676 -0.248972 -4.54732 4.57289 -1.07503 -4.68 4.19129 -1.92056 -4.76921 
3.76378 -2.80691 -4.84244 3.34257 -3.66128 -4.83299 2.81634 -4.28205 -4.56718 
2.05535 -4.63844 -4.03175 1.20145 -4.95521 -3.47185 0.51699 -5.39475 -3.10706 
5.9446 1.00046 -4.09111 6.83108 1.44532 -3.92052 7.68702 1.86414 -3.82897 
8.41434 2.37446 -3.58294 9.05878 3.07194 -3.0699 9.67002 3.84387 -2.48987 
10.105 4.45018 -2.02893 10.1741 4.78509 -1.59398 9.89334 4.92099 -1.0391 
5.90352 0.101467 -4.07431 6.6614 -0.36782 -3.61185 7.2909 -0.76112 -2.96183 
7.73267 -1.09499 -2.29825 8.10566 -1.5882 -1.79481 8.5366 -2.33378 -1.34897 
8.96704 -3.11852 -0.784326 9.28073 -3.74017 -0.129529 9.46971 -4.22699 0.510609 
-4.14956 0.58752 4.16567 -3.10465 0.343642 3.83825 -2.09107 0.168586 3.52488 
-1.07491 0.190531 3.38023 -0.0225606 0.209624 3.29437 1.08559 0.0245638 3.14186 
2.21825 -0.220415 3.00275 3.28651 -0.33079 2.96871 4.23033 -0.3499 2.99945 
-4.89538 1.3415 4.44782 -4.49186 2.08309 4.67729 -3.97362 2.76278 4.92396 
-3.33519 3.34316 5.15091 -2.63381 4.02345 5.37417 -1.95944 4.92283 5.55758 
-1.3481 5.77613 5.53904 -0.756407 6.27882 5.21523 -0.14786 6.48698 4.6897 
-4.82236 0.0859126 4.09833 -4.31468 -0.545713 3.84202 -3.67962 -1.28029 3.60637 
-2.98217 -2.19145 3.5115 -2.35055 -3.19197 3.50132 -1.7781 -4.08665 3.35288 
-1.10572 -4.80766 3.01857 -0.295577 -5.43679 2.73517 0.489458 -6.0374 2.69014 
-6.17002 0.974769 4.1742 -7.2122 1.16048 3.79343 -8.28963 1.39644 3.33192 
-9.30634 1.83167 3.0073 -10.1386 2.38101 2.80124 -10.689 2.84931 2.53002 
-10.9545 3.22268 2.06472 -10.992 3.58038 1.40966 -10.8406 3.87095 0.690678 
-6.16236 0.281605 4.09176 -7.24084 -0.165325 3.76448 -8.34487 -0.589168 3.34533 
-9.31752 -0.982085 2.94773 -10.0561 -1.46725 2.60518 -10.5267 -2.15124 2.21955 
-10.7053 -2.92528 1.70863 -10.5881 -3.58042 1.10619 -10.2408 -4.05501 0.487356 
4.59253 0.373713 3.07368 4.12742 1.07416 2.96527 3.70077 1.77506 2.76977 
3.25944 2.58986 2.72563 2.73822 3.50871 3.01576 2.19169 4.40557 3.54583 
1.72318 5.19664 4.0532 1.32288 5.85265 4.34218 0.908244 6.34009 4.35736 
4.99388 -1.16685 2.87372 4.81881 -1.93555 2.7199 4.51699 -2.68393 2.70411 
4.12318 -3.48798 2.78184 3.66396 -4.31865 2.74335 3.14981 -4.98809 2.55404 
2.6358 -5.42906 2.44346 2.16351 -5.78589 2.54388 1.67782 -6.17821 2.72661 
5.6003 0.0681408 3.08616 6.23626 0.59697 3.13712 6.98536 1.1475 3.23561 
7.73374 1.66789 3.23286 8.33366 2.16513 2.8697 8.75126 2.69019 2.20364 
9.02423 3.2632 1.55725 9.18779 3.86014 1.00585 9.30618 4.44088 0.372838 
5.87509 -1.02158 2.96941 6.72282 -1.81106 2.87649 7.53465 -2.58636 2.8399 
8.36053 -3.20163 3.04266 9.30216 -3.73998 3.46078 10.1997 -4.30629 3.66466 
10.6596 -4.75269 3.28637 10.533 -4.90211 2.4965 10.0677 -4.81816 1.70939 
0.593383 6.75919 -2.39334 0.692025 7.26595 -1.89041 0.811348 7.62764 -1.21243 
0.933347 7.85958 -0.34273 0.982443 7.97895 0.579154 0.906905 7.92128 1.38806 
0.758818 7.65272 2.10448 0.623482 7.2788 2.83432 0.527382 6.93386 3.55462 
1.40919 6.44297 -2.78644 2.48041 6.68331 -2.75458 3.65009 6.87264 -2.7147 
4.83948 6.95675 -2.59634 6.05132 6.9069 -2.40444 7.27114 6.75977 -2.26608 
8.30534 6.54248 -2.12903 8.94645 6.20052 -1.75394 9.24759 5.66552 -1.10177 
-0.293561 6.16825 -2.46556 -1.1852 5.90644 -1.96406 -2.20526 5.42974 -1.36704 
-3.33632 4.9725 -0.868234 -4.54756 4.66169 -0.588316 -5.84735 4.38153 -0.472635 
-7.20342 4.09257 -0.4119 -8.49024 3.93779 -0.33456 -9.60083 3.95002 -0.184217 
1.34862 6.772 3.88354 2.2934 6.9777 3.71946 3.27329 7.05925 3.38527 
4.27482 6.81435 2.60067 5.27857 6.35663 1.5811 6.25466 6.00201 0.845986 
7.17641 5.83351 0.490459 8.02692 5.67316 0.216694 8.78877 5.38242 -0.108404 
-0.456214 6.74372 4.16277 -1.52783 6.79069 4.07932 -2.68682 6.75585 3.78825 
-3.81796 6.56624 3.3432 -4.91953 6.09599 2.85556 -6.1168 5.33692 2.28791 
-7.42343 4.56961 1.60652 -8.6645 4.11797 0.95316 -9.69679 3.99625 0.453473 
0.126181 -6.37719 -2.44241 0.201853 -6.86774 -1.89894 0.260031 -7.16785 -1.16439 
0.30459 -7.24998 -0.247955 0.351557 -7.36628 0.612863 0.41422 -7.6583 1.26534 
0.537745 -7.86541 1.83063 0.746469 -7.69294 2.38286 0.969148 -7.1881 2.76124 
0.777411 -5.78493 -2.32454 1.69706 -5.71865 -1.81911 2.83626 -5.74014 -1.52553 
4.05363 -5.73726 -1.25335 5.18582 -5.59472 -0.742803 6.19181 -5.38232 -0.0804072 
7.12119 -5.21523 0.437398 8.00867 -5.07329 0.723834 8.84057 -4.8937 0.909577 
-0.574711 -6.18366 -3.1414 -1.39961 -6.22016 -3.07706 -2.5353 -6.05687 -2.6814 
-3.86775 -6.02753 -2.24035 -5.10578 -6.32522 -2.00496 -6.13117 -6.63849 -1.82342 
-7.06508 -6.52862 -1.46964 -8.00207 -5.95171 -0.999999 -8.91852 -5.17456 -0.547205 
1.97118 -6.84569 3.1378 2.81088 -7.12618 3.735 3.75692 -7.52557 4.21989 
4.85008 -7.9513 4.12386 5.8833 -8.07029 3.46038 6.69266 -7.65121 2.74093 
7.43333 -6.85158 2.29051 8.26716 -6.00482 1.96663 9.05617 -5.28602 1.57028 
0.00716477 -6.64916 2.82874 -1.34706 -6.62114 2.88872 -2.77078 -6.50471 2.78858 
-4.04214 -6.30019 2.48003 -5.14013 -5.99186 2.03443 -6.20632 -5.63617 1.47369 
-7.29031 -5.3556 0.869322 -8.30059 -5.15133 0.3914 -9.14062 -4.87785 0.0980631 
10.0323 4.04747 -0.148021 10.8783 2.93009 0.0090665 11.8939 1.86551 0.0664904 
12.5134 1.03483 0.176631 12.1981 0.232829 0.43133 11.2685 -0.850484 0.698141 
10.5545 -2.12931 0.839415 10.2893 -3.26443 0.902682 10.065 -4.09264 0.988137 
-11.5768 3.86795 0.0699015 -12.7309 3.52702 0.168409 -13.7455 2.9565 0.466858 
-14.1907 2.24949 0.941767 -13.8881 1.327 1.32893 -13.1437 0.0673465 1.33717 
-12.3212 -1.34028 0.974799 -11.4951 -2.58779 0.497552 -10.6332 -3.59883 0.118563 
-3.99892 0.197146 -4.55875 -3.52259 0.820288 -4.41691 -2.99445 0.227883 -4.99242 
-3.05042 1.55215 -4.22411 -2.49868 0.975968 -4.77206 -1.95689 0.355375 -5.31422 
-2.43174 2.31257 -3.99521 -1.91122 1.77271 -4.504 -1.36709 1.21675 -5.06817 
-0.766623 0.595298 -5.467 -1.63475 3.04586 -3.82147 -1.16942 2.55172 -4.29722 
-0.682827 2.05021 -4.9064 -0.11289 1.44167 -5.43057 0.53408 0.756381 -5.61636 
-0.850498 3.77018 -3.71502 -0.392348 3.31033 -4.16425 0.072239 2.84181 -4.78479 
0.575 2.22404 -5.44575 1.16165 1.48869 -5.79699 1.77428 0.770842 -5.7101 
-0.207336 4.47098 -3.59013 0.267074 4.0322 -4.01057 0.781804 3.61563 -4.57199 
1.30775 3.01617 -5.26595 1.84139 2.22754 -5.75928 2.37968 1.46539 -5.78801 
2.88036 0.822288 -5.49562 0.363021 5.11499 -3.39935 0.84162 4.67905 -3.79348 
1.39755 4.32875 -4.28146 2.003 3.83298 -4.90515 2.58831 3.05634 -5.42735 
3.09956 2.22318 -5.54772 3.52955 1.55448 -5.30761 3.90289 0.987607 -4.99855 
-5.78251 0.42751 -3.98412 -6.62258 0.825256 -3.7904 -5.28133 1.06832 -3.76643 
-7.54222 1.46035 -3.57561 -6.16393 1.64006 -3.5483 -4.85375 1.92999 -3.67061 
-8.39064 2.10315 -3.15355 -7.05304 2.29387 -3.25852 -5.66619 2.57781 -3.433 
-4.28213 2.79183 -3.54205 -8.98034 2.45924 -2.46063 -7.7107 2.66386 -2.67196 
-6.33468 3.00826 -3.00399 -4.87466 3.32471 -3.19506 -3.41132 3.49585 -3.28044 
-9.30296 2.69557 -1.6918 -8.04782 2.73505 -1.84612 -6.70391 3.04585 -2.22888 
-5.26371 3.50395 -2.55047 -3.79156 3.90534 -2.72553 -2.42257 4.15456 -2.96109 
-9.49457 3.12169 -1.07625 -8.22497 2.95003 -1.12322 -6.87092 3.07773 -1.36402 
-5.46378 3.4984 -1.67222 -4.05548 4.04723 -1.9218 -2.72572 4.54609 -2.25145 
-1.57296 4.86026 -2.71906 -9.61052 3.63303 -0.619331 -8.38563 3.45434 -0.671362 
-7.02974 3.49052 -0.762914 -5.63337 3.77188 -0.923604 -4.28458 4.2084 -1.12946 
-3.0188 4.74117 -1.4746 -1.8756 5.24977 -2.01336 -0.895811 5.55056 -2.5798 
-8.70392 4.13667 0.171256 -7.56315 4.53288 0.668355 -7.49053 4.46853 -0.0166931 
-6.25057 5.20896 1.30588 -6.29176 5.20642 0.445344 -6.14311 4.96135 -0.113896 
-4.9682 5.95323 1.92571 -5.02684 5.94716 1.00136 -5.00562 5.81799 0.266613 
-4.82169 5.31404 -0.208245 -3.8073 6.47693 2.43705 -3.80936 6.46272 1.52452 
-3.83695 6.38754 0.684444 -3.77761 6.01485 0.0177483 -3.58285 5.44037 -0.447323 
-2.67358 6.73406 2.8771 -2.61236 6.76486 1.9832 -2.59757 6.74982 1.13201 
-2.60778 6.49295 0.302767 -2.54625 6.05386 -0.395362 -2.39019 5.67621 -0.907197 
-1.51979 6.85207 3.21732 -1.42495 6.98562 2.35834 -1.32688 7.11372 1.57041 
-1.30306 7.02535 0.733981 -1.33236 6.71426 -0.162735 -1.33213 6.39956 -0.927702 
[...]
POINT_DATA 1002
FIELD FieldData 4
_paraPhi 1 1002 double
6.2831853072 3.1415926536 6.2831853072 3.1415926536 4.7123889804 4.7123889804 1.5707963268 1.5707963268 3.6951670125 
5.7296109483 2.5880182947 0.5535743589 6.2831853072 6.2831853072 6.2831853072 6.2831853072 3.1415926536 3.1415926536 
3.1415926536 3.1415926536 3.1415926536 6.1053039672 5.898798347 5.6768734901 5.4599499503 5.2659633393 5.1032165617 
4.9713148346 4.8656852733 4.7809517865 0.17788134 0.38438696014 0.60631181711 0.82323535693 1.0172219679 1.1799687454 
1.3118704726 1.4175000338 1.5022335207 6.1892828907 6.1070320098 6.035312792 5.9728339911 5.9183214791 5.8706119594 
5.8286879411 5.7916808611 5.7588591896 0.093902416448 0.17615329733 0.2478725152 0.31035131605 0.36486382811 0.41257334776 
0.45449736604 0.4915044461 0.52432611754 3.3194739936 3.5259796137 3.7479044707 3.9648280105 4.1588146215 4.321561399 
4.4534631262 4.5590926874 4.6438261743 2.9637113136 2.7572056934 2.5352808365 2.3183572967 2.1243706857 1.9616239082 
1.829722181 1.7240926197 1.6393591329 3.23549507 3.3177459509 3.3894651688 3.4519439696 3.5064564817 3.5541660013 
3.5960900196 3.6330970997 3.6659187711 3.0476902371 2.9654393563 2.8937201384 2.8312413375 2.7767288255 2.7290193058 
2.6870952876 2.6500882075 2.617266536 6.2831853072 6.2831853072 6.2831853072 6.2831853072 3.1415926536 3.1415926536 
3.1415926536 3.1415926536 3.1415926536 6.1053039672 5.898798347 5.6768734901 5.4599499503 5.2659633393 5.1032165617 
4.9713148346 4.8656852733 4.7809517865 0.17788134 0.38438696014 0.60631181711 0.82323535693 1.0172219679 1.1799687454 
1.3118704726 1.4175000338 1.5022335207 6.1892828907 6.1070320098 6.035312792 5.9728339911 5.9183214791 5.8706119594 
5.8286879411 5.7916808611 5.7588591896 0.093902416448 0.17615329733 0.2478725152 0.31035131605 0.36486382811 0.41257334776 
0.45449736604 0.4915044461 0.52432611754 3.3194739936 3.5259796137 3.7479044707 3.9648280105 4.1588146215 4.321561399 
4.4534631262 4.5590926874 4.6438261743 2.9637113136 2.7572056934 2.5352808365 2.3183572967 2.1243706857 1.9616239082 
1.829722181 1.7240926197 1.6393591329 3.23549507 3.3177459509 3.3894651688 3.4519439696 3.5064564817 3.5541660013 
3.5960900196 3.6330970997 3.6659187711 3.0476902371 2.9654393563 2.8937201384 2.8312413375 2.7767288255 2.7290193058 
2.6870952876 2.6500882075 2.617266536 4.7123889804 4.7123889804 4.7123889804 4.7123889804 4.7123889804 4.7123889804 
4.7123889804 4.7123889804 4.7123889804 4.6087898617 4.4991390697 4.3857031936 4.2712800401 4.1588146215 4.0509635631 
3.94975894 3.8564636551 3.7716124825 4.8159880991 4.9256388911 5.0390747672 5.1534979207 5.2659633393 5.3738143976 
5.4750190208 5.5683143056 5.6531654782 4.6087898617 4.4991390697 4.3857031936 4.2712800401 4.1588146215 4.0509635631 
3.94975894 3.8564636551 3.7716124825 4.8159880991 4.9256388911 5.0390747672 5.1534979207 5.2659633393 5.3738143976 
5.4750190208 5.5683143056 5.6531654782 1.5707963268 1.5707963268 1.5707963268 1.5707963268 1.5707963268 1.5707963268 
1.5707963268 1.5707963268 1.5707963268 1.6743954455 1.7840462375 1.8974821136 2.0119052671 2.1243706857 2.232221744 
2.3334263672 2.426721652 2.5115728246 1.4671972081 1.3575464161 1.24411054 1.1296873865 1.0172219679 0.90937090954 
0.80816628637 0.71487100155 0.63001982895 1.6743954455 1.7840462375 1.8974821136 2.0119052671 2.1243706857 2.232221744 
2.3334263672 2.426721652 2.5115728246 1.4671972081 1.3575464161 1.24411054 1.1296873865 1.0172219679 0.90937090954 
0.80816628637 0.71487100155 0.63001982895 3.6007720849 3.4966939854 3.3839471039 3.2645756454 3.1415926536 3.0186096618 
2.8992382033 2.7864913217 2.6824132222 5.8240058758 5.9280839753 6.0408308569 6.1602023154 6.2831853072 0.12298299178 
0.2423544503 0.35510133185 0.45917943135 6.0560271438 5.7885595667 5.9702140275 5.5125918794 5.6029703303 5.7885595667 
5.2659633393 5.2659633393 5.2659633393 5.2659633393 5.0674903122 5.0120975802 4.9155579264 4.7123889804 4.1588146215 
4.9155579264 4.8353719722 4.7123889804 4.5092200343 4.1588146215 3.6362183941 4.8004512023 4.7123889804 4.5894059886 
4.4126803806 4.1588146215 3.8218076305 3.4545639333 4.7123889804 4.6243267584 4.5092200343 4.3572876485 4.1588146215 
3.9121860814 3.6362183941 3.368750817 6.0174235957 5.9434319871 5.8263323547 5.8809213739 5.7674481418 5.6279784266 
5.8278025282 5.718968232 5.5891129425 5.4372443565 5.7823484065 5.678536687 5.5575666702 5.4192596322 5.2659633393 
5.743164462 5.6444075337 5.5314983644 5.4046708639 5.2659633393 5.1195510325 5.7091357773 5.6152775188 5.5096229709 
5.3926039573 5.2659633393 5.1329233157 4.9978930058 5.6793730533 5.5901633916 5.4910209005 5.3824597928 5.2659633393 
5.1440684722 5.0201624502 4.8979782167 5.5683143056 5.4750190208 5.4750190208 5.3738143976 5.3738143976 5.3738143976 
5.2659633393 5.2659633393 5.2659633393 5.2659633393 5.1534979207 5.1534979207 5.1534979207 5.1534979207 5.1534979207 
5.0390747672 5.0390747672 5.0390747672 5.0390747672 5.0390747672 5.0390747672 4.9256388911 4.9256388911 4.9256388911 
4.9256388911 4.9256388911 4.9256388911 4.9256388911 4.8159880991 4.8159880991 4.8159880991 4.8159880991 4.8159880991 
4.8159880991 4.8159880991 4.8159880991 4.6087898617 4.6087898617 4.4991390697 4.6087898617 4.4991390697 4.3857031936 
4.6087898617 4.4991390697 4.3857031936 4.2712800401 4.6087898617 4.4991390697 4.3857031936 4.2712800401 4.1588146215 
4.6087898617 4.4991390697 4.3857031936 4.2712800401 4.1588146215 4.0509635631 4.6087898617 4.4991390697 4.3857031936 
4.2712800401 4.1588146215 4.0509635631 3.94975894 4.6087898617 4.4991390697 4.3857031936 4.2712800401 4.1588146215 
4.0509635631 3.94975894 3.8564636551 4.526799744 4.4046155105 4.426884955 4.2807094886 4.2918546451 4.3052269283 
4.1588146215 4.1588146215 4.1588146215 4.1588146215 4.042318168 4.0321740035 4.0201070968 4.0055183285 3.9875336042 
3.9337570603 3.9151549899 3.8932795963 3.8672112905 3.8356650183 3.7967995342 3.8346145692 3.809500442 3.7803704271 
3.7462412737 3.7058097288 3.657329819 3.5984456061 3.7454049075 3.7156421835 3.6816134988 3.6424295543 3.5969754326 
3.5438565869 3.4813459737 3.4073543651 3.5642842451 3.4524645613 3.5233842518 3.3320300872 3.403123212 3.4773852225 
3.20576226 3.2746326772 3.348015857 3.4255060145 3.0774230472 3.1415926536 3.2112816139 3.2864685043 3.3668817272 
2.95115522 3.00855263 3.0719036933 3.1415926536 3.2178377658 3.3005964304 2.8307207459 2.8800620952 2.9351694502 
2.9967168029 3.0653475414 3.1415926536 3.225752376 2.718901062 2.7598010554 2.8058000847 2.8576792927 2.91630358 
2.9825888767 3.0574329311 3.1415926536 3.5642842451 3.5233842518 3.4524645613 3.4773852225 3.403123212 3.3320300872 
3.4255060145 3.348015857 3.2746326772 3.20576226 3.3668817272 3.2864685043 3.2112816139 3.1415926536 3.0774230472 
3.3005964304 3.2178377658 3.1415926536 3.0719036933 3.00855263 2.95115522 3.225752376 3.1415926536 3.0653475414 
2.9967168029 2.9351694502 2.8800620952 2.8307207459 3.1415926536 3.0574329311 2.9825888767 2.91630358 2.8576792927 
2.8058000847 2.7598010554 2.718901062 4.526799744 4.426884955 4.4046155105 4.3052269283 4.2918546451 4.2807094886 
4.1588146215 4.1588146215 4.1588146215 4.1588146215 3.9875336042 4.0055183285 4.0201070968 4.0321740035 4.042318168 
3.7967995342 3.8356650183 3.8672112905 3.8932795963 3.9151549899 3.9337570603 3.5984456061 3.657329819 3.7058097288 
3.7462412737 3.7803704271 3.809500442 3.8346145692 3.4073543651 3.4813459737 3.5438565869 3.5969754326 3.6424295543 
3.6816134988 3.7156421835 3.7454049075 4.7123889804 4.8004512023 4.6243267584 4.9155579264 4.7123889804 4.5092200343 
5.0674903122 4.8353719722 4.5894059886 4.3572876485 5.2659633393 5.0120975802 4.7123889804 4.4126803806 4.1588146215 
5.5125918794 5.2659633393 4.9155579264 4.5092200343 4.1588146215 3.9121860814 5.7885595667 5.6029703303 5.2659633393 
4.7123889804 4.1588146215 3.8218076305 3.6362183941 6.0560271438 5.9702140275 5.7885595667 5.2659633393 4.1588146215 
3.6362183941 3.4545639333 3.368750817 0.22715816343 0.49462574053 0.3129712797 0.77059342779 0.68021497688 0.49462574053 
1.0172219679 1.0172219679 1.0172219679 1.0172219679 1.2156949949 1.271087727 1.3676273807 1.5707963268 2.1243706857 
1.3676273807 1.447813335 1.5707963268 1.7739652728 2.1243706857 2.6469669131 1.4827341049 1.5707963268 1.6937793186 
1.8705049266 2.1243706857 2.4613776767 2.8286213739 1.5707963268 1.6588585487 1.7739652728 1.9258976586 2.1243706857 
2.3709992258 2.6469669131 2.9144344902 1.7563855631 1.8785697967 1.8563003522 2.0024758186 1.9913306621 1.9779583789 
2.1243706857 2.1243706857 2.1243706857 2.1243706857 2.2408671392 2.2510113037 2.2630782103 2.2776669786 2.295651703 
2.3494282469 2.3680303173 2.3899057108 2.4159740166 2.4475202889 2.486385773 2.448570738 2.4736848652 2.5028148801 
2.5369440334 2.5773755784 2.6258554882 2.6847397011 2.5377803997 2.5675431237 2.6015718084 2.6407557529 2.6862098746 
2.7393287203 2.8018393335 2.8758309421 1.6743954455 1.6743954455 1.7840462375 1.6743954455 1.7840462375 1.8974821136 
1.6743954455 1.7840462375 1.8974821136 2.0119052671 1.6743954455 1.7840462375 1.8974821136 2.0119052671 2.1243706857 
1.6743954455 1.7840462375 1.8974821136 2.0119052671 2.1243706857 2.232221744 1.6743954455 1.7840462375 1.8974821136 
2.0119052671 2.1243706857 2.232221744 2.3334263672 1.6743954455 1.7840462375 1.8974821136 2.0119052671 2.1243706857 
2.232221744 2.3334263672 2.426721652 1.4671972081 1.3575464161 1.4671972081 1.24411054 1.3575464161 1.4671972081 
1.1296873865 1.24411054 1.3575464161 1.4671972081 1.0172219679 1.1296873865 1.24411054 1.3575464161 1.4671972081 
0.90937090954 1.0172219679 1.1296873865 1.24411054 1.3575464161 1.4671972081 0.80816628637 0.90937090954 1.0172219679 
1.1296873865 1.24411054 1.3575464161 1.4671972081 0.71487100155 0.80816628637 0.90937090954 1.0172219679 1.1296873865 
1.24411054 1.3575464161 1.4671972081 0.60381225391 0.57404952988 0.69302191562 0.54002084522 0.66790778838 0.79216440667 
0.50083690068 0.63877777351 0.77356233629 0.90072551443 0.45538277901 0.60464862014 0.75168694275 0.89058134991 1.0172219679 
0.40226393329 0.56421707518 0.72561863695 0.87851444325 1.0172219679 1.139116835 0.33975332011 0.51573716537 0.69407236469 
0.86392567495 1.0172219679 1.1502619915 1.2630228569 0.26576171152 0.45685295248 0.6552068806 0.84594095064 1.0172219679 
1.1636342747 1.2852923014 1.3852070904 0.22715816343 0.3129712797 0.49462574053 0.49462574053 0.68021497688 0.77059342779 
1.0172219679 1.0172219679 1.0172219679 1.0172219679 2.1243706857 1.5707963268 1.3676273807 1.271087727 1.2156949949 
2.6469669131 2.1243706857 1.7739652728 1.5707963268 1.447813335 1.3676273807 2.8286213739 2.4613776767 2.1243706857 
1.8705049266 1.6937793186 1.5707963268 1.4827341049 2.9144344902 2.6469669131 2.3709992258 2.1243706857 1.9258976586 
1.7739652728 1.6588585487 1.5707963268 1.7563855631 1.8563003522 1.8785697967 1.9779583789 1.9913306621 2.0024758186 
2.1243706857 2.1243706857 2.1243706857 2.1243706857 2.295651703 2.2776669786 2.2630782103 2.2510113037 2.2408671392 
2.486385773 2.4475202889 2.4159740166 2.3899057108 2.3680303173 2.3494282469 2.6847397011 2.6258554882 2.5773755784 
2.5369440334 2.5028148801 2.4736848652 2.448570738 2.8758309421 2.8018393335 2.7393287203 2.6862098746 2.6407557529 
2.6015718084 2.5675431237 2.5377803997 5.8604937156 5.901393709 5.9723133995 5.9473927383 6.0216547488 6.0927478736 
5.9992719463 6.0767621038 6.1501452836 6.2190157008 6.0578962336 6.1383094565 6.2134963469 0 0.064169606361 
6.1241815303 6.206940195 6.2831853072 0.069688960264 0.13304002361 0.19043743361 6.1990255847 0 0.07624511221 
0.14487585072 0.20642320337 0.26153055843 0.3108719077 0 0.084159722458 0.15900377685 0.22528907359 0.28391336087 
0.3357925689 0.38179159818 0.42269159155 5.8604937156 5.9723133995 5.901393709 6.0927478736 6.0216547488 5.9473927383 
6.2190157008 6.1501452836 6.0767621038 5.9992719463 0.064169606361 0 6.2134963469 6.1383094565 6.0578962336 
0.19043743361 0.13304002361 0.069688960264 6.2831853072 6.206940195 6.1241815303 0.3108719077 0.26153055843 0.20642320337 
0.14487585072 0.07624511221 6.2831853072 6.1990255847 0.42269159155 0.38179159818 0.3357925689 0.28391336087 0.22528907359 
0.15900377685 0.084159722458 0 5.6793730533 5.7091357773 5.5901633916 5.743164462 5.6152775188 5.4910209005 
5.7823484065 5.6444075337 5.5096229709 5.3824597928 5.8278025282 5.678536687 5.5314983644 5.3926039573 5.2659633393 
5.8809213739 5.718968232 5.5575666702 5.4046708639 5.2659633393 5.1440684722 5.9434319871 5.7674481418 5.5891129425 
5.4192596322 5.2659633393 5.1329233157 5.0201624502 6.0174235957 5.8263323547 5.6279784266 5.4372443565 5.2659633393 
5.1195510325 4.9978930058 4.8979782167 1.3852070904 1.2852923014 1.2630228569 1.1636342747 1.1502619915 1.139116835 
1.0172219679 1.0172219679 1.0172219679 1.0172219679 0.84594095064 0.86392567495 0.87851444325 0.89058134991 0.90072551443 
0.6552068806 0.69407236469 0.72561863695 0.75168694275 0.77356233629 0.79216440667 0.45685295248 0.51573716537 0.56421707518 
0.60464862014 0.63877777351 0.66790778838 0.69302191562 0.26576171152 0.33975332011 0.40226393329 0.45538277901 0.50083690068 
0.54002084522 0.57404952988 0.60381225391 
_paraPhiHalf 1 1002 double
0 3.1415926536 0 3.1415926536 1.5707963268 1.5707963268 1.5707963268 1.5707963268 2.5880182947 
0.5535743589 2.5880182947 0.5535743589 0 0 0 0 3.1415926536 3.1415926536 
3.1415926536 3.1415926536 3.1415926536 0.17788134 0.38438696014 0.60631181711 0.82323535693 1.0172219679 1.1799687454 
1.3118704726 1.4175000338 1.5022335207 0.17788134 0.38438696014 0.60631181711 0.82323535693 1.0172219679 1.1799687454 
1.3118704726 1.4175000338 1.5022335207 0.093902416448 0.17615329733 0.2478725152 0.31035131605 0.36486382811 0.41257334776 
0.45449736604 0.4915044461 0.52432611754 0.093902416448 0.17615329733 0.2478725152 0.31035131605 0.36486382811 0.41257334776 
0.45449736604 0.4915044461 0.52432611754 2.9637113136 2.7572056934 2.5352808365 2.3183572967 2.1243706857 1.9616239082 
1.829722181 1.7240926197 1.6393591329 2.9637113136 2.7572056934 2.5352808365 2.3183572967 2.1243706857 1.9616239082 
1.829722181 1.7240926197 1.6393591329 3.0476902371 2.9654393563 2.8937201384 2.8312413375 2.7767288255 2.7290193058 
2.6870952876 2.6500882075 2.617266536 3.0476902371 2.9654393563 2.8937201384 2.8312413375 2.7767288255 2.7290193058 
2.6870952876 2.6500882075 2.617266536 0 0 0 0 3.1415926536 3.1415926536 
3.1415926536 3.1415926536 3.1415926536 0.17788134 0.38438696014 0.60631181711 0.82323535693 1.0172219679 1.1799687454 
1.3118704726 1.4175000338 1.5022335207 0.17788134 0.38438696014 0.60631181711 0.82323535693 1.0172219679 1.1799687454 
1.3118704726 1.4175000338 1.5022335207 0.093902416448 0.17615329733 0.2478725152 0.31035131605 0.36486382811 0.41257334776 
0.45449736604 0.4915044461 0.52432611754 0.093902416448 0.17615329733 0.2478725152 0.31035131605 0.36486382811 0.41257334776 
0.45449736604 0.4915044461 0.52432611754 2.9637113136 2.7572056934 2.5352808365 2.3183572967 2.1243706857 1.9616239082 
1.829722181 1.7240926197 1.6393591329 2.9637113136 2.7572056934 2.5352808365 2.3183572967 2.1243706857 1.9616239082 
1.829722181 1.7240926197 1.6393591329 3.0476902371 2.9654393563 2.8937201384 2.8312413375 2.7767288255 2.7290193058 
2.6870952876 2.6500882075 2.617266536 3.0476902371 2.9654393563 2.8937201384 2.8312413375 2.7767288255 2.7290193058 
2.6870952876 2.6500882075 2.617266536 1.5707963268 1.5707963268 1.5707963268 1.5707963268 1.5707963268 1.5707963268 
1.5707963268 1.5707963268 1.5707963268 1.6743954455 1.7840462375 1.8974821136 2.0119052671 2.1243706857 2.232221744 
2.3334263672 2.426721652 2.5115728246 1.4671972081 1.3575464161 1.24411054 1.1296873865 1.0172219679 0.90937090954 
0.80816628637 0.71487100155 0.63001982895 1.6743954455 1.7840462375 1.8974821136 2.0119052671 2.1243706857 2.232221744 
2.3334263672 2.426721652 2.5115728246 1.4671972081 1.3575464161 1.24411054 1.1296873865 1.0172219679 0.90937090954 
0.80816628637 0.71487100155 0.63001982895 1.5707963268 1.5707963268 1.5707963268 1.5707963268 1.5707963268 1.5707963268 
1.5707963268 1.5707963268 1.5707963268 1.6743954455 1.7840462375 1.8974821136 2.0119052671 2.1243706857 2.232221744 
2.3334263672 2.426721652 2.5115728246 1.4671972081 1.3575464161 1.24411054 1.1296873865 1.0172219679 0.90937090954 
0.80816628637 0.71487100155 0.63001982895 1.6743954455 1.7840462375 1.8974821136 2.0119052671 2.1243706857 2.232221744 
2.3334263672 2.426721652 2.5115728246 1.4671972081 1.3575464161 1.24411054 1.1296873865 1.0172219679 0.90937090954 
0.80816628637 0.71487100155 0.63001982895 2.6824132222 2.7864913217 2.8992382033 3.0186096618 3.1415926536 3.0186096618 
2.8992382033 2.7864913217 2.6824132222 0.45917943135 0.35510133185 0.2423544503 0.12298299178 0 0.12298299178 
0.2423544503 0.35510133185 0.45917943135 0.22715816343 0.49462574053 0.3129712797 0.77059342779 0.68021497688 0.49462574053 
1.0172219679 1.0172219679 1.0172219679 1.0172219679 1.2156949949 1.271087727 1.3676273807 1.5707963268 2.1243706857 
1.3676273807 1.447813335 1.5707963268 1.7739652728 2.1243706857 2.6469669131 1.4827341049 1.5707963268 1.6937793186 
1.8705049266 2.1243706857 2.4613776767 2.8286213739 1.5707963268 1.6588585487 1.7739652728 1.9258976586 2.1243706857 
2.3709992258 2.6469669131 2.9144344902 0.26576171152 0.33975332011 0.45685295248 0.40226393329 0.51573716537 0.6552068806 
0.45538277901 0.56421707518 0.69407236469 0.84594095064 0.50083690068 0.60464862014 0.72561863695 0.86392567495 1.0172219679 
0.54002084522 0.63877777351 0.75168694275 0.87851444325 1.0172219679 1.1636342747 0.57404952988 0.66790778838 0.77356233629 
0.89058134991 1.0172219679 1.1502619915 1.2852923014 0.60381225391 0.69302191562 0.79216440667 0.90072551443 1.0172219679 
1.139116835 1.2630228569 1.3852070904 0.71487100155 0.80816628637 0.80816628637 0.90937090954 0.90937090954 0.90937090954 
1.0172219679 1.0172219679 1.0172219679 1.0172219679 1.1296873865 1.1296873865 1.1296873865 1.1296873865 1.1296873865 
1.24411054 1.24411054 1.24411054 1.24411054 1.24411054 1.24411054 1.3575464161 1.3575464161 1.3575464161 
1.3575464161 1.3575464161 1.3575464161 1.3575464161 1.4671972081 1.4671972081 1.4671972081 1.4671972081 1.4671972081 
1.4671972081 1.4671972081 1.4671972081 1.6743954455 1.6743954455 1.7840462375 1.6743954455 1.7840462375 1.8974821136 
1.6743954455 1.7840462375 1.8974821136 2.0119052671 1.6743954455 1.7840462375 1.8974821136 2.0119052671 2.1243706857 
1.6743954455 1.7840462375 1.8974821136 2.0119052671 2.1243706857 2.232221744 1.6743954455 1.7840462375 1.8974821136 
2.0119052671 2.1243706857 2.232221744 2.3334263672 1.6743954455 1.7840462375 1.8974821136 2.0119052671 2.1243706857 
2.232221744 2.3334263672 2.426721652 1.7563855631 1.8785697967 1.8563003522 2.0024758186 1.9913306621 1.9779583789 
2.1243706857 2.1243706857 2.1243706857 2.1243706857 2.2408671392 2.2510113037 2.2630782103 2.2776669786 2.295651703 
2.3494282469 2.3680303173 2.3899057108 2.4159740166 2.4475202889 2.486385773 2.448570738 2.4736848652 2.5028148801 
2.5369440334 2.5773755784 2.6258554882 2.6847397011 2.5377803997 2.5675431237 2.6015718084 2.6407557529 2.6862098746 
2.7393287203 2.8018393335 2.8758309421 2.718901062 2.8307207459 2.7598010554 2.95115522 2.8800620952 2.8058000847 
3.0774230472 3.00855263 2.9351694502 2.8576792927 3.0774230472 3.1415926536 3.0719036933 2.9967168029 2.91630358 
2.95115522 3.00855263 3.0719036933 3.1415926536 3.0653475414 2.9825888767 2.8307207459 2.8800620952 2.9351694502 
2.9967168029 3.0653475414 3.1415926536 3.0574329311 2.718901062 2.7598010554 2.8058000847 2.8576792927 2.91630358 
2.9825888767 3.0574329311 3.1415926536 2.718901062 2.7598010554 2.8307207459 2.8058000847 2.8800620952 2.95115522 
2.8576792927 2.9351694502 3.00855263 3.0774230472 2.91630358 2.9967168029 3.0719036933 3.1415926536 3.0774230472 
2.9825888767 3.0653475414 3.1415926536 3.0719036933 3.00855263 2.95115522 3.0574329311 3.1415926536 3.0653475414 