# vtk DataFile Version 5.1
vtk output
ASCII
DATASET POLYDATA
POINTS 1002 float
-5.80575 -0.270989 -3.02767 5.57188 -0.308216 -3.8418 -4.68667 -0.0403592 3.73587 
4.79311 0.529059 4.28351 0.0076626 6.78939 -2.87602 -0.363553 6.64167 3.3346 
-0.324589 -5.60315 -1.21398 -1.16641 -7.08767 2.7737 8.46993 3.74675 0.215951 
-9.09311 4.14811 -0.983704 11.5453 -5.22459 -1.81812 -9.13116 -4.62982 -0.380724 
-4.81069 -0.15189 -2.91865 -3.77999 0.00339821 -2.74661 -2.77058 0.0718225 -2.62081 
-1.66387 0.00933475 -2.79025 -0.315618 -0.0807106 -3.33789 1.15709 -0.112862 -3.93703 
2.49049 -0.132469 -4.18473 3.61164 -0.192417 -4.07301 4.62027 -0.265776 -3.89202 
-5.48259 0.284182 -3.01557 -5.07143 0.921232 -2.91614 -4.51758 1.67661 -2.85521 
-3.79948 2.51546 -2.93932 -2.94669 3.34022 -3.17679 -2.03664 4.12626 -3.50958 
-1.21458 4.91769 -3.78273 -0.622093 5.67898 -3.77445 -0.257665 6.3138 -3.418 
-5.47906 -0.759743 -2.86089 -5.10159 -1.27592 -2.61766 -4.70262 -1.85397 -2.43669 
-4.23303 -2.49576 -2.36614 -3.60358 -3.11902 -2.26058 -2.82053 -3.64397 -2.00383 
-2.0159 -4.10791 -1.67939 -1.32232 -4.59196 -1.4118 -0.77382 -5.10398 -1.24928 
-6.54713 0.0485525 -3.12414 -7.21044 0.474903 -3.21871 -7.78648 0.905989 -3.37826 
-8.34851 1.3228 -3.5881 -8.93177 1.90236 -3.68208 -9.43943 2.72801 -3.47635 
-9.73352 3.53216 -2.95591 -9.75418 4.00693 -2.26478 -9.52056 4.14972 -1.57115 
-6.59546 -0.646857 -3.01741 -7.35985 -1.02575 -2.99345 -8.00034 -1.44987 -3.05975 
-8.56488 -2.02671 -3.23844 -9.17265 -2.77268 -3.37705 -9.73661 -3.48725 -3.25341 
-10.0005 -3.96583 -2.7561 -9.88027 -4.239 -1.97157 -9.53067 -4.44547 -1.1182 
5.29337 0.300559 -3.99861 4.86931 0.983867 -3.95374 4.34082 1.71289 -3.75251 
3.77279 2.48377 -3.58598 3.16206 3.27559 -3.52747 2.48615 4.01539 -3.45155 
1.79397 4.67784 -3.29837 1.14489 5.3423 -3.14917 0.548398 6.06514 -3.03038 
5.14259 -0.858077 -3.5671 4.62711 -1.40604 -3.36183 4.15317 -1.97914 -3.40776 
3.73337 -2.60057 -3.57696 3.20715 -3.19862 -3.45127 2.48078 -3.68355 -2.89183 
1.67074 -4.11671 -2.25282 0.915942 -4.61649 -1.82871 0.251117 -5.15381 -1.53798 
6.35203 0.055839 -4.01535 7.06709 0.479491 -4.10679 7.68539 0.938029 -3.98345 
8.22135 1.46254 -3.63107 8.62401 2.09727 -3.1221 8.79651 2.74993 -2.5024 
8.76857 3.23625 -1.78976 8.68042 3.50281 -1.04206 8.59677 3.64499 -0.35157 
6.30546 -0.666966 -3.73392 7.11272 -1.02271 -3.67437 7.97257 -1.41558 -3.60717 
8.80198 -1.88986 -3.39631 9.50212 -2.39773 -2.99111 10.0931 -2.86604 -2.54743 
10.6769 -3.36056 -2.26593 11.2207 -3.98747 -2.15009 11.5474 -4.67531 -2.03962 
-3.98504 -0.0605059 4.03458 -3.23888 -0.0490203 4.41172 -2.44735 0.0266343 4.80507 
-1.60454 0.146517 5.16264 -0.681258 0.274225 5.48013 0.365302 0.417686 5.68787 
1.51638 0.56826 5.63437 2.6806 0.652438 5.2843 3.78071 0.625445 4.78092 
-4.3751 0.5581 3.74146 -4.00742 1.20317 3.70081 -3.55984 1.92481 3.63823 
-3.07369 2.72047 3.64151 -2.64034 3.53941 3.75604 -2.25114 4.33431 3.8704 
-1.80175 5.07545 3.84028 -1.28136 5.72255 3.68042 -0.784025 6.24402 3.49862 
-4.55086 -0.677214 3.8557 -4.41569 -1.39409 3.99966 -4.28948 -2.18002 4.24368 
-4.15572 -3.01581 4.55778 -3.98378 -3.87864 4.78415 -3.70514 -4.73849 4.76598 
-3.23929 -5.5363 4.4556 -2.5972 -6.19875 3.92507 -1.87888 -6.70168 3.32075 
-5.20726 0.358504 3.46858 -5.75085 0.779927 3.11044 -6.28024 1.20139 2.59976 
-6.78072 1.62449 1.92573 -7.26846 2.08608 1.21785 -7.75469 2.59062 0.666661 
-8.22073 3.06855 0.289506 -8.63171 3.46853 -0.0715516 -8.94042 3.81767 -0.511976 
-5.3238 -0.425599 3.57488 -5.99901 -0.893969 3.40733 -6.65762 -1.39083 3.19827 
-7.32277 -1.81186 2.97771 -8.03057 -2.16868 2.76043 -8.63864 -2.63034 2.40078 
-8.94341 -3.26017 1.76314 -8.99516 -3.88637 0.968275 -9.02331 -4.34063 0.233472 
4.47594 1.32893 4.96632 4.09496 2.1755 5.58582 3.64799 2.9008 5.85005 
3.18569 3.43836 5.67502 2.723 3.94599 5.31819 2.17673 4.56515 5.01294 
1.49587 5.19194 4.69035 0.771632 5.69964 4.24483 0.135528 6.14948 3.75371 
4.46434 -0.154055 3.97456 4.0986 -0.831883 3.76623 3.67826 -1.53336 3.6055 
3.12738 -2.34684 3.41923 2.42839 -3.25117 3.24775 1.68495 -4.09138 3.14846 
0.966842 -4.82759 3.07487 0.237338 -5.58215 2.97638 -0.502967 -6.38155 2.87033 
5.60649 0.889927 4.21705 6.45865 1.26991 4.11722 7.28872 1.64634 3.90965 
7.98811 1.97853 3.55668 8.47541 2.26438 3.04621 8.77129 2.56144 2.4007 
8.92038 2.89013 1.73386 8.9095 3.20045 1.16638 8.73749 3.473 0.688956 
5.63675 0.00297439 3.60836 6.60345 -0.530964 2.97677 7.65981 -1.1019 2.34619 
8.72334 -1.69716 1.61986 9.70066 -2.25184 0.840196 10.5372 -2.82157 0.171522 
11.1935 -3.5497 -0.352492 11.6033 -4.36244 -0.848892 11.7136 -4.97733 -1.36404 
-0.134251 7.46249 -2.3498 -0.228204 8.04592 -1.75207 -0.264713 8.45818 -1.14225 
-0.268289 8.75007 -0.453112 -0.26699 8.98677 0.441535 -0.292163 9.0236 1.44774 
-0.353569 8.65955 2.25917 -0.403508 7.97413 2.73721 -0.398636 7.24452 3.03367 
0.670143 6.74852 -2.43854 1.54162 6.73328 -2.09352 2.55318 6.77031 -1.86847 
3.55221 6.75474 -1.68325 4.49736 6.58267 -1.50607 5.44612 6.25013 -1.33155 
6.36042 5.75623 -1.05646 7.15 5.09847 -0.622431 7.8292 4.37816 -0.149577 
-0.671392 7.20235 -2.98957 -1.40966 7.45188 -2.93549 -2.31885 7.42986 -2.63042 
-3.50208 7.21284 -2.13613 -4.8746 6.95295 -1.66055 -6.16452 6.62299 -1.3953 
-7.18717 6.08828 -1.33213 -7.97577 5.38805 -1.30348 -8.61012 4.70594 -1.18577 
0.379705 6.59929 3.31759 1.32062 6.44843 3.13969 2.39535 6.23532 2.8706 
3.44418 5.98138 2.57646 4.38059 5.68002 2.207 5.26796 5.34568 1.71288 
6.17373 4.99605 1.20195 7.05762 4.61327 0.806545 7.83622 4.18653 0.510667 
-1.0301 6.92036 2.9962 -1.76245 7.02959 2.504 -2.66554 6.88589 1.95741 
-3.68299 6.61476 1.48829 -4.62883 6.37764 1.04232 -5.45497 6.09973 0.51083 
-6.31182 5.6227 4.94233e-05 -7.28157 5.01958 -0.358591 -8.25615 4.501 -0.643764 
-0.367696 -6.12111 -1.02363 -0.334923 -6.58085 -0.854899 -0.236576 -7.01284 -0.672293 
-0.15047 -7.51279 -0.361555 -0.146379 -8.04605 0.177079 -0.255563 -8.3931 0.865991 
-0.490061 -8.39983 1.50487 -0.793241 -8.11446 1.99888 -1.04286 -7.65066 2.4005 
0.465951 -5.86268 -1.52068 1.3515 -6.08224 -1.82903 2.33686 -6.10859 -1.85241 
3.48371 -5.85149 -1.48009 4.93471 -5.4974 -1.16679 6.69716 -5.38208 -1.42051 
8.46254 -5.56223 -2.003 9.86948 -5.74261 -2.30382 10.8453 -5.642 -2.15892 
-1.15035 -5.65888 -0.807697 -2.04942 -5.7173 -0.464806 -3.00443 -5.85059 -0.39542 
-3.9959 -6.021 -0.671792 -5.06174 -6.0636 -1.07663 -6.25184 -5.89679 -1.28081 
-7.44204 -5.63766 -1.18262 -8.36136 -5.39024 -0.926821 -8.88377 -5.08873 -0.651916 
-0.0432734 -7.04475 2.33537 1.18629 -6.94978 1.88806 2.53592 -6.76184 1.43254 
4.01796 -6.50185 0.985008 5.59426 -6.31571 0.503789 7.17781 -6.33554 -0.111489 
8.65404 -6.448 -0.817261 9.90731 -6.36159 -1.39262 10.8705 -5.92126 -1.7029 
-2.21465 -7.43246 2.9817 -3.2225 -7.64163 3.14814 -4.07286 -7.68951 3.18222 
-4.7402 -7.5357 2.94741 -5.33027 -7.09219 2.36364 -6.00946 -6.40926 1.58601 
-6.8539 -5.76827 0.913286 -7.75787 -5.35638 0.451364 -8.54285 -5.04627 0.063445 
9.26527 3.14655 0.13564 10.1209 2.58849 -0.0722121 10.9396 2.01262 -0.310852 
11.7422 1.24115 -0.517826 12.6182 0.16723 -0.810603 13.3587 -1.06969 -1.2247 
13.5275 -2.2477 -1.53346 13.0533 -3.31831 -1.62487 12.2936 -4.32736 -1.67496 
-9.77139 3.65772 -1.091 -10.3497 3.04203 -1.16936 -10.8749 2.16955 -1.12209 
-11.3897 1.14394 -0.982671 -11.648 0.241589 -0.929352 -11.3446 -0.509332 -0.979621 
-10.6418 -1.41218 -0.938372 -9.98198 -2.59569 -0.74544 -9.52539 -3.77727 -0.532388 
-4.46363 0.422047 -2.90477 -3.98898 1.09086 -2.89617 -3.38834 0.584342 -2.79438 
-3.31126 1.87271 -3.0452 -2.77507 1.27262 -3.00512 -2.23414 0.668651 -2.83581 
-2.47834 2.68984 -3.35834 -1.94869 2.03245 -3.41851 -1.4085 1.37236 -3.2806 
-0.889049 0.648634 -3.18449 -1.60877 3.46378 -3.6813 -1.10432 2.76315 -3.80484 
-0.510067 2.07151 -3.74533 0.0783408 1.3488 -3.63961 0.61291 0.58855 -3.72011 
-0.804822 4.20986 -3.87209 -0.364589 3.46033 -3.93673 0.208041 2.71601 -3.90932 
0.884724 1.98662 -3.83711 1.51351 1.25142 -3.90382 2.03618 0.527895 -4.09401 
-0.169025 4.92757 -3.83306 0.272329 4.15803 -3.82583 0.790707 3.38909 -3.77917 
1.4464 2.62286 -3.71804 2.14486 1.87403 -3.77127 2.75778 1.15107 -3.98387 
3.2444 0.455051 -4.14806 0.254328 5.55356 -3.52121 0.778071 4.79981 -3.54877 
1.33665 4.0764 -3.56003 1.96823 3.3335 -3.55334 2.63927 2.55684 -3.57048 
3.28085 1.79434 -3.72424 3.85041 1.06704 -3.95961 4.30593 0.371676 -4.04804 
-6.17768 0.66145 -3.04399 -6.77699 1.13044 -3.13031 -5.69187 1.37772 -2.91317 
-7.28857 1.60293 -3.38453 -6.22913 1.8979 -3.07009 -5.0744 2.21676 -2.83616 
-7.783 2.13016 -3.67389 -6.68995 2.4165 -3.41086 -5.57489 2.76213 -3.00728 
-4.30592 3.09586 -2.86427 -8.26673 2.86892 -3.65569 -7.09613 3.02899 -3.58411 
-5.98291 3.28289 -3.22854 -4.76421 3.61878 -2.92312 -3.37879 3.93702 -3.05807 
-8.65919 3.72362 -3.18342 -7.45067 3.82584 -3.24371 -6.28576 3.92686 -3.0911 
-5.10789 4.14638 -2.89537 -3.77319 4.49607 -2.99401 -2.39206 4.80794 -3.40961 
-8.87755 4.36327 -2.46326 -7.75828 4.61993 -2.53469 -6.5676 4.75628 -2.50971 
-5.36895 4.88005 -2.51878 -4.0875 5.15712 -2.75602 -2.75448 5.52981 -3.22708 
-1.56095 5.7432 -3.64978 -8.86623 4.64618 -1.76051 -7.97047 5.15159 -1.83601 
-6.90525 5.55623 -1.83956 -5.71146 5.80457 -1.92401 -4.40845 6.03376 -2.24709 
-3.09883 6.35554 -2.77986 -1.94326 6.61123 -3.27463 -1.01351 6.59136 -3.4932 
-7.80269 5.25015 -0.82904 -6.95226 5.96341 -0.459972 -7.30705 6.17361 -0.912418 
-6.10504 6.61087 0.0638182 -6.60745 7.01064 -0.460225 -6.60483 7.05304 -0.944954 
-5.18509 6.95777 0.682243 -5.72722 7.54477 0.126596 -5.85177 7.85739 -0.525003 
-5.45352 7.64319 -1.11039 -4.09528 7.14237 1.20146 -4.54952 7.71871 0.703543 
-4.74705 8.19495 -0.0445921 -4.48433 8.31986 -0.808191 -3.95898 7.94935 -1.48762 
-2.92665 7.42678 1.67018 -3.22475 7.9227 1.21886 -3.40286 8.3105 0.452712 
-3.29481 8.538 -0.417415 -2.95114 8.50583 -1.18772 -2.58756 8.11516 -1.92027 
-1.89754 7.68667 2.21853 -2.04685 8.27201 1.81313 -2.14722 8.61621 1.06542 
[...]
POINT_DATA 1002
FIELD FieldData 4
_paraPhi 1 1002 double
6.2831853072 3.1415926536 6.2831853072 3.1415926536 4.7123889804 4.7123889804 1.5707963268 1.5707963268 3.6951670125 
5.7296109483 2.5880182947 0.5535743589 6.2831853072 6.2831853072 6.2831853072 6.2831853072 3.1415926536 3.1415926536 
3.1415926536 3.1415926536 3.1415926536 6.1053039672 5.898798347 5.6768734901 5.4599499503 5.2659633393 5.1032165617 
4.9713148346 4.8656852733 4.7809517865 0.17788134 0.38438696014 0.60631181711 0.82323535693 1.0172219679 1.1799687454 
1.3118704726 1.4175000338 1.5022335207 6.1892828907 6.1070320098 6.035312792 5.9728339911 5.9183214791 5.8706119594 
5.8286879411 5.7916808611 5.7588591896 0.093902416448 0.17615329733 0.2478725152 0.31035131605 0.36486382811 0.41257334776 
0.45449736604 0.4915044461 0.52432611754 3.3194739936 3.5259796137 3.7479044707 3.9648280105 4.1588146215 4.321561399 
4.4534631262 4.5590926874 4.6438261743 2.9637113136 2.7572056934 2.5352808365 2.3183572967 2.1243706857 1.9616239082 
1.829722181 1.7240926197 1.6393591329 3.23549507 3.3177459509 3.3894651688 3.4519439696 3.5064564817 3.5541660013 
3.5960900196 3.6330970997 3.6659187711 3.0476902371 2.9654393563 2.8937201384 2.8312413375 2.7767288255 2.7290193058 
2.6870952876 2.6500882075 2.617266536 6.2831853072 6.2831853072 6.2831853072 6.2831853072 3.1415926536 3.1415926536 
3.1415926536 3.1415926536 3.1415926536 6.1053039672 5.898798347 5.6768734901 5.4599499503 5.2659633393 5.1032165617 
4.9713148346 4.8656852733 4.7809517865 0.17788134 0.38438696014 0.60631181711 0.82323535693 1.0172219679 1.1799687454 
1.3118704726 1.4175000338 1.5022335207 6.1892828907 6.1070320098 6.035312792 5.9728339911 5.9183214791 5.8706119594 
5.8286879411 5.7916808611 5.7588591896 0.093902416448 0.17615329733 0.2478725152 0.31035131605 0.36486382811 0.41257334776 
0.45449736604 0.4915044461 0.52432611754 3.3194739936 3.5259796137 3.7479044707 3.9648280105 4.1588146215 4.321561399 
4.4534631262 4.5590926874 4.6438261743 2.9637113136 2.7572056934 2.5352808365 2.3183572967 2.1243706857 1.9616239082 
1.829722181 1.7240926197 1.6393591329 3.23549507 3.3177459509 3.3894651688 3.4519439696 3.5064564817 3.5541660013 
3.5960900196 3.6330970997 3.6659187711 3.0476902371 2.9654393563 2.8937201384 2.8312413375 2.7767288255 2.7290193058 
2.6870952876 2.6500882075 2.617266536 4.7123889804 4.7123889804 4.7123889804 4.7123889804 4.7123889804 4.7123889804 
4.7123889804 4.7123889804 4.7123889804 4.6087898617 4.4991390697 4.3857031936 4.2712800401 4.1588146215 4.0509635631 
3.94975894 3.8564636551 3.7716124825 4.8159880991 4.9256388911 5.0390747672 5.1534979207 5.2659633393 5.3738143976 
5.4750190208 5.5683143056 5.6531654782 4.6087898617 4.4991390697 4.3857031936 4.2712800401 4.1588146215 4.0509635631 
3.94975894 3.8564636551 3.7716124825 4.8159880991 4.9256388911 5.0390747672 5.1534979207 5.2659633393 5.3738143976 
5.4750190208 5.5683143056 5.6531654782 1.5707963268 1.5707963268 1.5707963268 1.5707963268 1.5707963268 1.5707963268 
1.5707963268 1.5707963268 1.5707963268 1.6743954455 1.7840462375 1.8974821136 2.0119052671 2.1243706857 2.232221744 
2.3334263672 2.426721652 2.5115728246 1.4671972081 1.3575464161 1.24411054 1.1296873865 1.0172219679 0.90937090954 
0.80816628637 0.71487100155 0.63001982895 1.6743954455 1.7840462375 1.8974821136 2.0119052671 2.1243706857 2.232221744 
2.3334263672 2.426721652 2.5115728246 1.4671972081 1.3575464161 1.24411054 1.1296873865 1.0172219679 0.90937090954 
0.80816628637 0.71487100155 0.63001982895 3.6007720849 3.4966939854 3.3839471039 3.2645756454 3.1415926536 3.0186096618 
2.8992382033 2.7864913217 2.6824132222 5.8240058758 5.9280839753 6.0408308569 6.1602023154 6.2831853072 0.12298299178 
0.2423544503 0.35510133185 0.45917943135 6.0560271438 5.7885595667 5.9702140275 5.5125918794 5.6029703303 5.7885595667 
5.2659633393 5.2659633393 5.2659633393 5.2659633393 5.0674903122 5.0120975802 4.9155579264 4.7123889804 4.1588146215 
4.9155579264 4.8353719722 4.7123889804 4.5092200343 4.1588146215 3.6362183941 4.8004512023 4.7123889804 4.5894059886 
4.4126803806 4.1588146215 3.8218076305 3.4545639333 4.7123889804 4.6243267584 4.5092200343 4.3572876485 4.1588146215 
3.9121860814 3.6362183941 3.368750817 6.0174235957 5.9434319871 5.8263323547 5.8809213739 5.7674481418 5.6279784266 
5.8278025282 5.718968232 5.5891129425 5.4372443565 5.7823484065 5.678536687 5.5575666702 5.4192596322 5.2659633393 
5.743164462 5.6444075337 5.5314983644 5.4046708639 5.2659633393 5.1195510325 5.7091357773 5.6152775188 5.5096229709 
5.3926039573 5.2659633393 5.1329233157 4.9978930058 5.6793730533 5.5901633916 5.4910209005 5.3824597928 5.2659633393 
5.1440684722 5.0201624502 4.8979782167 5.5683143056 5.4750190208 5.4750190208 5.3738143976 5.3738143976 5.3738143976 
5.2659633393 5.2659633393 5.2659633393 5.2659633393 5.1534979207 5.1534979207 5.1534979207 5.1534979207 5.1534979207 
5.0390747672 5.0390747672 5.0390747672 5.0390747672 5.0390747672 5.0390747672 4.9256388911 4.9256388911 4.9256388911 
4.9256388911 4.9256388911 4.9256388911 4.9256388911 4.8159880991 4.8159880991 4.8159880991 4.8159880991 4.8159880991 
4.8159880991 4.8159880991 4.8159880991 4.6087898617 4.6087898617 4.4991390697 4.6087898617 4.4991390697 4.3857031936 
4.6087898617 4.4991390697 4.3857031936 4.2712800401 4.6087898617 4.4991390697 4.3857031936 4.2712800401 4.1588146215 
4.6087898617 4.4991390697 4.3857031936 4.2712800401 4.1588146215 4.0509635631 4.6087898617 4.4991390697 4.3857031936 
4.2712800401 4.1588146215 4.0509635631 3.94975894 4.6087898617 4.4991390697 4.3857031936 4.2712800401 4.1588146215 
4.0509635631 3.94975894 3.8564636551 4.526799744 4.4046155105 4.426884955 4.2807094886 4.2918546451 4.3052269283 
4.1588146215 4.1588146215 4.1588146215 4.1588146215 4.042318168 4.0321740035 4.0201070968 4.0055183285 3.9875336042 
3.9337570603 3.9151549899 3.8932795963 3.8672112905 3.8356650183 3.7967995342 3.8346145692 3.809500442 3.7803704271 
3.7462412737 3.7058097288 3.657329819 3.5984456061 3.7454049075 3.7156421835 3.6816134988 3.6424295543 3.5969754326 
3.5438565869 3.4813459737 3.4073543651 3.5642842451 3.4524645613 3.5233842518 3.3320300872 3.403123212 3.4773852225 
3.20576226 3.2746326772 3.348015857 3.4255060145 3.0774230472 3.1415926536 3.2112816139 3.2864685043 3.3668817272 
2.95115522 3.00855263 3.0719036933 3.1415926536 3.2178377658 3.3005964304 2.8307207459 2.8800620952 2.9351694502 
2.9967168029 3.0653475414 3.1415926536 3.225752376 2.718901062 2.7598010554 2.8058000847 2.8576792927 2.91630358 
2.9825888767 3.0574329311 3.1415926536 3.5642842451 3.5233842518 3.4524645613 3.4773852225 3.403123212 3.3320300872 
3.4255060145 3.348015857 3.2746326772 3.20576226 3.3668817272 3.2864685043 3.2112816139 3.1415926536 3.0774230472 
3.3005964304 3.2178377658 3.1415926536 3.0719036933 3.00855263 2.95115522 3.225752376 3.1415926536 3.0653475414 
2.9967168029 2.9351694502 2.8800620952 2.8307207459 3.1415926536 3.0574329311 2.9825888767 2.91630358 2.8576792927 
2.8058000847 2.7598010554 2.718901062 4.526799744 4.426884955 4.4046155105 4.3052269283 4.2918546451 4.2807094886 
4.1588146215 4.1588146215 4.1588146215 4.1588146215 3.9875336042 4.0055183285 4.0201070968 4.0321740035 4.042318168 
3.7967995342 3.8356650183 3.8672112905 3.8932795963 3.9151549899 3.9337570603 3.5984456061 3.657329819 3.7058097288 
3.7462412737 3.7803704271 3.809500442 3.8346145692 3.4073543651 3.4813459737 3.5438565869 3.5969754326 3.6424295543 
3.6816134988 3.7156421835 3.7454049075 4.7123889804 4.8004512023 4.6243267584 4.9155579264 4.7123889804 4.5092200343 
5.0674903122 4.8353719722 4.5894059886 4.3572876485 5.2659633393 5.0120975802 4.7123889804 4.4126803806 4.1588146215 
5.5125918794 5.2659633393 4.9155579264 4.5092200343 4.1588146215 3.9121860814 5.7885595667 5.6029703303 5.2659633393 
4.7123889804 4.1588146215 3.8218076305 3.6362183941 6.0560271438 5.9702140275 5.7885595667 5.2659633393 4.1588146215 
3.6362183941 3.4545639333 3.368750817 0.22715816343 0.49462574053 0.3129712797 0.77059342779 0.68021497688 0.49462574053 
1.0172219679 1.0172219679 1.0172219679 1.0172219679 1.2156949949 1.271087727 1.3676273807 1.5707963268 2.1243706857 
1.3676273807 1.447813335 1.5707963268 1.7739652728 2.1243706857 2.6469669131 1.4827341049 1.5707963268 1.6937793186 
1.8705049266 2.1243706857 2.4613776767 2.8286213739 1.5707963268 1.6588585487 1.7739652728 1.9258976586 2.1243706857 
2.3709992258 2.6469669131 2.9144344902 1.7563855631 1.8785697967 1.8563003522 2.0024758186 1.9913306621 1.9779583789 
2.1243706857 2.1243706857 2.1243706857 2.1243706857 2.2408671392 2.2510113037 2.2630782103 2.2776669786 2.295651703 
2.3494282469 2.3680303173 2.3899057108 2.4159740166 2.4475202889 2.486385773 2.448570738 2.4736848652 2.5028148801 
2.5369440334 2.5773755784 2.6258554882 2.6847397011 2.5377803997 2.5675431237 2.6015718084 2.6407557529 2.6862098746 
2.7393287203 2.8018393335 2.8758309421 1.6743954455 1.6743954455 1.7840462375 1.6743954455 1.7840462375 1.8974821136 
1.6743954455 1.7840462375 1.8974821136 2.0119052671 1.6743954455 1.7840462375 1.8974821136 2.0119052671 2.1243706857 
1.6743954455 1.7840462375 1.8974821136 2.0119052671 2.1243706857 2.232221744 1.6743954455 1.7840462375 1.8974821136 
2.0119052671 2.1243706857 2.232221744 2.3334263672 1.6743954455 1.7840462375 1.8974821136 2.0119052671 2.1243706857 
2.232221744 2.3334263672 2.426721652 1.4671972081 1.3575464161 1.4671972081 1.24411054 1.3575464161 1.4671972081 
1.1296873865 1.24411054 1.3575464161 1.4671972081 1.0172219679 1.1296873865 1.24411054 1.3575464161 1.4671972081 
0.90937090954 1.0172219679 1.1296873865 1.24411054 1.3575464161 1.4671972081 0.80816628637 0.90937090954 1.0172219679 
1.1296873865 1.24411054 1.3575464161 1.4671972081 0.71487100155 0.80816628637 0.90937090954 1.0172219679 1.1296873865 
1.24411054 1.3575464161 1.4671972081 0.60381225391 0.57404952988 0.69302191562 0.54002084522 0.66790778838 0.79216440667 
0.50083690068 0.63877777351 0.77356233629 0.90072551443 0.45538277901 0.60464862014 0.75168694275 0.89058134991 1.0172219679 
0.40226393329 0.56421707518 0.72561863695 0.87851444325 1.0172219679 1.139116835 0.33975332011 0.51573716537 0.69407236469 
0.86392567495 1.0172219679 1.1502619915 1.2630228569 0.26576171152 0.45685295248 0.6552068806 0.84594095064 1.0172219679 
1.1636342747 1.2852923014 1.3852070904 0.22715816343 0.3129712797 0.49462574053 0.49462574053 0.68021497688 0.77059342779 
1.0172219679 1.0172219679 1.0172219679 1.0172219679 2.1243706857 1.5707963268 1.3676273807 1.271087727 1.2156949949 
2.6469669131 2.1243706857 1.7739652728 1.5707963268 1.447813335 1.3676273807 2.8286213739 2.4613776767 2.1243706857 
1.8705049266 1.6937793186 1.5707963268 1.4827341049 2.9144344902 2.6469669131 2.3709992258 2.1243706857 1.9258976586 
1.7739652728 1.6588585487 1.5707963268 1.7563855631 1.8563003522 1.8785697967 1.9779583789 1.9913306621 2.0024758186 
2.1243706857 2.1243706857 2.1243706857 2.1243706857 2.295651703 2.2776669786 2.2630782103 2.2510113037 2.2408671392 
2.486385773 2.4475202889 2.4159740166 2.3899057108 2.3680303173 2.3494282469 2.6847397011 2.6258554882 2.5773755784 
2.5369440334 2.5028148801 2.4736848652 2.448570738 2.8758309421 2.8018393335 2.7393287203 2.6862098746 2.6407557529 
2.6015718084 2.5675431237 2.5377803997 5.8604937156 5.901393709 5.9723133995 5.9473927383 6.0216547488 6.0927478736 
5.9992719463 6.0767621038 6.1501452836 6.2190157008 6.0578962336 6.1383094565 6.2134963469 0 0.064169606361 
6.1241815303 6.206940195 6.2831853072 0.069688960264 0.13304002361 0.19043743361 6.1990255847 0 0.07624511221 
0.14487585072 0.20642320337 0.26153055843 0.3108719077 0 0.084159722458 0.15900377685 0.22528907359 0.28391336087 
0.3357925689 0.38179159818 0.42269159155 5.8604937156 5.9723133995 5.901393709 6.0927478736 6.0216547488 5.9473927383 
6.2190157008 6.1501452836 6.0767621038 5.9992719463 0.064169606361 0 6.2134963469 6.1383094565 6.0578962336 
0.19043743361 0.13304002361 0.069688960264 6.2831853072 6.206940195 6.1241815303 0.3108719077 0.26153055843 0.20642320337 
0.14487585072 0.07624511221 6.2831853072 6.1990255847 0.42269159155 0.38179159818 0.3357925689 0.28391336087 0.22528907359 
0.15900377685 0.084159722458 0 5.6793730533 5.7091357773 5.5901633916 5.743164462 5.6152775188 5.4910209005 
5.7823484065 5.6444075337 5.5096229709 5.3824597928 5.8278025282 5.678536687 5.5314983644 5.3926039573 5.2659633393 
5.8809213739 5.718968232 5.5575666702 5.4046708639 5.2659633393 5.1440684722 5.9434319871 5.7674481418 5.5891129425 
5.4192596322 5.2659633393 5.1329233157 5.0201624502 6.0174235957 5.8263323547 5.6279784266 5.4372443565 5.2659633393 
5.1195510325 4.9978930058 4.8979782167 1.3852070904 1.2852923014 1.2630228569 1.1636342747 1.1502619915 1.139116835 
1.0172219679 1.0172219679 1.0172219679 1.0172219679 0.84594095064 0.86392567495 0.87851444325 0.89058134991 0.90072551443 
0.6552068806 0.69407236469 0.72561863695 0.75168694275 0.77356233629 0.79216440667 0.45685295248 0.51573716537 0.56421707518 
0.60464862014 0.63877777351 0.66790778838 0.69302191562 0.26576171152 0.33975332011 0.40226393329 0.45538277901 0.50083690068 
0.54002084522 0.57404952988 0.60381225391 
_paraPhiHalf 1 1002 double
0 3.1415926536 0 3.1415926536 1.5707963268 1.5707963268 1.5707963268 1.5707963268 2.5880182947 
0.5535743589 2.5880182947 0.5535743589 0 0 0 0 3.1415926536 3.1415926536 
3.1415926536 3.1415926536 3.1415926536 0.17788134 0.38438696014 0.60631181711 0.82323535693 1.0172219679 1.1799687454 
1.3118704726 1.4175000338 1.5022335207 0.17788134 0.38438696014 0.60631181711 0.82323535693 1.0172219679 1.1799687454 
1.3118704726 1.4175000338 1.5022335207 0.093902416448 0.17615329733 0.2478725152 0.31035131605 0.36486382811 0.41257334776 
0.45449736604 0.4915044461 0.52432611754 0.093902416448 0.17615329733 0.2478725152 0.31035131605 0.36486382811 0.41257334776 
0.45449736604 0.4915044461 0.52432611754 2.9637113136 2.7572056934 2.5352808365 2.3183572967 2.1243706857 1.9616239082 
1.829722181 1.7240926197 1.6393591329 2.9637113136 2.7572056934 2.5352808365 2.3183572967 2.1243706857 1.9616239082 
1.829722181 1.7240926197 1.6393591329 3.0476902371 2.9654393563 2.8937201384 2.8312413375 2.7767288255 2.7290193058 
2.6870952876 2.6500882075 2.617266536 3.0476902371 2.9654393563 2.8937201384 2.8312413375 2.7767288255 2.7290193058 
2.6870952876 2.6500882075 2.617266536 0 0 0 0 3.1415926536 3.1415926536 
3.1415926536 3.1415926536 3.1415926536 0.17788134 0.38438696014 0.60631181711 0.82323535693 1.0172219679 1.1799687454 
1.3118704726 1.4175000338 1.5022335207 0.17788134 0.38438696014 0.60631181711 0.82323535693 1.0172219679 1.1799687454 
1.3118704726 1.4175000338 1.5022335207 0.093902416448 0.17615329733 0.2478725152 0.31035131605 0.36486382811 0.41257334776 
0.45449736604 0.4915044461 0.52432611754 0.093902416448 0.17615329733 0.2478725152 0.31035131605 0.36486382811 0.41257334776 
0.45449736604 0.4915044461 0.52432611754 2.9637113136 2.7572056934 2.5352808365 2.3183572967 2.1243706857 1.9616239082 
1.829722181 1.7240926197 1.6393591329 2.9637113136 2.7572056934 2.5352808365 2.3183572967 2.1243706857 1.9616239082 
1.829722181 1.7240926197 1.6393591329 3.0476902371 2.9654393563 2.8937201384 2.8312413375 2.7767288255 2.7290193058 
2.6870952876 2.6500882075 2.617266536 3.0476902371 2.9654393563 2.8937201384 2.8312413375 2.7767288255 2.7290193058 
2.6870952876 2.6500882075 2.617266536 1.5707963268 1.5707963268 1.5707963268 1.5707963268 1.5707963268 1.5707963268 
1.5707963268 1.5707963268 1.5707963268 1.6743954455 1.7840462375 1.8974821136 2.0119052671 2.1243706857 2.232221744 
2.3334263672 2.426721652 2.5115728246 1.4671972081 1.3575464161 1.24411054 1.1296873865 1.0172219679 0.90937090954 
0.80816628637 0.71487100155 0.63001982895 1.6743954455 1.7840462375 1.8974821136 2.0119052671 2.1243706857 2.232221744 
2.3334263672 2.426721652 2.5115728246 1.4671972081 1.3575464161 1.24411054 1.1296873865 1.0172219679 0.90937090954 
0.80816628637 0.71487100155 0.63001982895 1.5707963268 1.5707963268 1.5707963268 1.5707963268 1.5707963268 1.5707963268 
1.5707963268 1.5707963268 1.5707963268 1.6743954455 1.7840462375 1.8974821136 2.0119052671 2.1243706857 2.232221744 
2.3334263672 2.426721652 2.5115728246 1.4671972081 1.3575464161 1.24411054 1.1296873865 1.0172219679 0.90937090954 
0.80816628637 0.71487100155 0.63001982895 1.6743954455 1.7840462375 1.8974821136 2.0119052671 2.1243706857 2.232221744 
2.3334263672 2.426721652 2.5115728246 1.4671972081 1.3575464161 1.24411054 1.1296873865 1.0172219679 0.90937090954 
0.80816628637 0.71487100155 0.63001982895 2.6824132222 2.7864913217 2.8992382033 3.0186096618 3.1415926536 3.0186096618 
2.8992382033 2.7864913217 2.6824132222 0.45917943135 0.35510133185 0.2423544503 0.12298299178 0 0.12298299178 
0.2423544503 0.35510133185 0.45917943135 0.22715816343 0.49462574053 0.3129712797 0.77059342779 0.68021497688 0.49462574053 
1.0172219679 1.0172219679 1.0172219679 1.0172219679 1.2156949949 1.271087727 1.3676273807 1.5707963268 2.1243706857 
1.3676273807 1.447813335 1.5707963268 1.7739652728 2.1243706857 2.6469669131 1.4827341049 1.5707963268 1.6937793186 
1.8705049266 2.1243706857 2.4613776767 2.8286213739 1.5707963268 1.6588585487 1.7739652728 1.9258976586 2.1243706857 
2.3709992258 2.6469669131 2.9144344902 0.26576171152 0.33975332011 0.45685295248 0.40226393329 0.51573716537 0.6552068806 
0.45538277901 0.56421707518 0.69407236469 0.84594095064 0.50083690068 0.60464862014 0.72561863695 0.86392567495 1.0172219679 
0.54002084522 0.63877777351 0.75168694275 0.87851444325 1.0172219679 1.1636342747 0.57404952988 0.66790778838 0.77356233629 
0.89058134991 1.0172219679 1.1502619915 1.2852923014 0.60381225391 0.69302191562 0.79216440667 0.90072551443 1.0172219679 
1.139116835 1.2630228569 1.3852070904 0.71487100155 0.80816628637 0.80816628637 0.90937090954 0.90937090954 0.90937090954 
1.0172219679 1.0172219679 1.0172219679 1.0172219679 1.1296873865 1.1296873865 1.1296873865 1.1296873865 1.1296873865 
1.24411054 1.24411054 1.24411054 1.24411054 1.24411054 1.24411054 1.3575464161 1.3575464161 1.3575464161 
1.3575464161 1.3575464161 1.3575464161 1.3575464161 1.4671972081 1.4671972081 1.4671972081 1.4671972081 1.4671972081 
1.4671972081 1.4671972081 1.4671972081 1.6743954455 1.6743954455 1.7840462375 1.6743954455 1.7840462375 1.8974821136 
1.6743954455 1.7840462375 1.8974821136 2.0119052671 1.6743954455 1.7840462375 1.8974821136 2.0119052671 2.1243706857 
1.6743954455 1.7840462375 1.8974821136 2.0119052671 2.1243706857 2.232221744 1.6743954455 1.7840462375 1.8974821136 
2.0119052671 2.1243706857 2.232221744 2.3334263672 1.6743954455 1.7840462375 1.8974821136 2.0119052671 2.1243706857 
2.232221744 2.3334263672 2.426721652 1.7563855631 1.8785697967 1.8563003522 2.0024758186 1.9913306621 1.9779583789 
2.1243706857 2.1243706857 2.1243706857 2.1243706857 2.2408671392 2.2510113037 2.2630782103 2.2776669786 2.295651703 
2.3494282469 2.3680303173 2.3899057108 2.4159740166 2.4475202889 2.486385773 2.448570738 2.4736848652 2.5028148801 
2.5369440334 2.5773755784 2.6258554882 2.6847397011 2.5377803997 2.5675431237 2.6015718084 2.6407557529 2.6862098746 
2.7393287203 2.8018393335 2.8758309421 2.718901062 2.8307207459 2.7598010554 2.95115522 2.8800620952 2.8058000847 
3.0774230472 3.00855263 2.9351694502 2.8576792927 3.0774230472 3.1415926536 3.0719036933 2.9967168029 2.91630358 
2.95115522 3.00855263 3.0719036933 3.1415926536 3.0653475414 2.9825888767 2.8307207459 2.8800620952 2.9351694502 
2.9967168029 3.0653475414 3.1415926536 3.0574329311 2.718901062 2.7598010554 2.8058000847 2.8576792927 2.91630358 
2.9825888767 3.0574329311 3.1415926536 2.718901062 2.7598010554 2.8307207459 2.8058000847 2.8800620952 2.95115522 
2.8576792927 2.9351694502 3.00855263 3.0774230472 2.91630358 2.9967168029 3.0719036933 3.1415926536 3.0774230472 
2.9825888767 3.0653475414 3.1415926536 3.0719036933 3.00855263 2.95115522 3.0574329311 3.1415926536 3.0653475414 