# vtk DataFile Version 5.1
vtk output
ASCII
DATASET POLYDATA
POINTS 100 float
10.6512 29.4458 17.3137 10.671 29.4506 17.3132 10.7315 29.4636 17.3084 
10.8298 29.4856 17.299 10.9616 29.5178 17.2844 11.1213 29.5617 17.2642 
11.3025 29.6185 17.2376 11.4989 29.6891 17.2042 11.7047 29.7737 17.1636 
11.9149 29.8719 17.1158 12.1256 29.9823 17.0608 12.3346 30.1029 16.999 
12.5407 30.2311 16.931 12.7442 30.3638 16.8573 12.946 30.4983 16.7787 
13.1476 30.632 16.6957 13.3508 30.7629 16.6088 13.5568 30.89 16.5182 
13.7666 31.0131 16.4241 13.9803 31.1328 16.3261 14.1974 31.2508 16.2241 
14.4169 31.369 16.1177 14.6373 31.4895 16.0067 14.8569 31.6144 15.8908 
15.0745 31.7455 15.7703 15.289 31.8835 15.6456 15.5002 32.0288 15.5175 
15.7084 32.1805 15.387 15.9149 32.3374 15.2558 16.1211 32.4974 15.1253 
16.3292 32.6585 14.9973 16.541 32.8186 14.8733 16.7582 32.9761 14.7547 
16.9816 33.13 14.6425 17.2115 33.28 14.5373 17.4468 33.427 14.4391 
17.6859 33.5721 14.3474 17.9262 33.7175 14.2615 18.1644 33.8653 14.1799 
18.3973 34.0177 14.1013 18.6217 34.1763 14.024 18.835 34.3424 13.9464 
19.0355 34.5162 13.8672 19.2226 34.697 13.7852 19.3965 34.8834 13.6997 
19.5589 35.0731 13.6102 19.7121 35.2636 13.5168 19.8591 35.4524 13.4196 
20.0033 35.637 13.3192 20.1478 35.8157 13.2166 20.2954 35.9876 13.1124 
20.4482 36.1526 13.0079 20.6073 36.3117 12.9039 20.7733 36.4665 12.8014 
20.9456 36.6194 12.7015 21.123 36.7726 12.6051 21.3041 36.9286 12.5131 
21.4873 37.0894 12.4264 21.6709 37.2561 12.3457 21.8538 37.4293 12.272 
22.0352 37.6085 12.2058 22.215 37.7927 12.1478 22.3934 37.98 12.0982 
22.571 38.1686 12.0572 22.7486 38.3563 12.0247 22.9268 38.5416 12.0002 
23.1062 38.7231 11.9828 23.2867 38.9004 11.9715 23.4678 39.0736 11.9651 
23.6484 39.2434 11.962 23.8273 39.4109 11.9609 24.0027 39.5775 11.9604 
24.1731 39.7444 11.9592 24.337 39.9122 11.9565 24.4934 40.0813 11.9518 
24.6422 40.251 11.9446 24.7838 40.4202 11.9351 24.9194 40.587 11.9237 
25.0509 40.7494 11.9108 25.1807 40.905 11.8968 25.3113 41.0522 11.8824 
25.4452 41.1895 11.8677 25.5845 41.3166 11.8529 25.7306 41.434 11.8376 
25.8842 41.5431 11.8214 26.0448 41.6464 11.8036 26.2111 41.7465 11.7835 
26.3811 41.8464 11.7602 26.5519 41.9488 11.7332 26.7203 42.0553 11.7023 
26.8827 42.1668 11.6675 27.0359 42.2827 11.6295 27.1769 42.4009 11.5894 
27.3029 42.518 11.5486 27.4119 42.6295 11.509 27.5024 42.7304 11.4727 
27.5734 42.8154 11.4415 27.6243 42.8798 11.4174 27.6546 42.9196 11.4018 
27.6644 42.9323 11.3955 
LINES 2 100
OFFSETS vtktypeint64
0 100 
CONNECTIVITY vtktypeint64
0 1 2 3 4 5 6 7 8 
9 10 11 12 13 14 15 16 17 
18 19 20 21 22 23 24 25 26 
27 28 29 30 31 32 33 34 35 
36 37 38 39 40 41 42 43 44 
45 46 47 48 49 50 51 52 53 
54 55 56 57 58 59 60 61 62 
63 64 65 66 67 68 69 70 71 
72 73 74 75 76 77 78 79 80 
81 82 83 84 85 86 87 88 89 
90 91 92 93 94 95 96 97 98 
99 
POINT_DATA 100
FIELD FieldData 3
_theta 1 100 double
0 0.031733259127 0.063466518254 0.095199777382 0.12693303651 0.15866629564 0.19039955476 0.22213281389 0.25386607302 
0.28559933214 0.31733259127 0.3490658504 0.38079910953 0.41253236865 0.44426562778 0.47599888691 0.50773214603 0.53946540516 
0.57119866429 0.60293192342 0.63466518254 0.66639844167 0.6981317008 0.72986495992 0.76159821905 0.79333147818 0.82506473731 
0.85679799643 0.88853125556 0.92026451469 0.95199777382 0.98373103294 1.0154642921 1.0471975512 1.0789308103 1.1106640695 
1.1423973286 1.1741305877 1.2058638468 1.237597106 1.2693303651 1.3010636242 1.3327968833 1.3645301425 1.3962634016 
1.4279966607 1.4597299198 1.491463179 1.5231964381 1.5549296972 1.5866629564 1.6183962155 1.6501294746 1.6818627337 
1.7135959929 1.745329252 1.7770625111 1.8087957702 1.8405290294 1.8722622885 1.9039955476 1.9357288068 1.9674620659 
1.999195325 2.0309285841 2.0626618433 2.0943951024 2.1261283615 2.1578616206 2.1895948798 2.2213281389 2.253061398 
2.2847946572 2.3165279163 2.3482611754 2.3799944345 2.4117276937 2.4434609528 2.4751942119 2.506927471 2.5386607302 
2.5703939893 2.6021272484 2.6338605076 2.6655937667 2.6973270258 2.7290602849 2.7607935441 2.7925268032 2.8242600623 
2.8559933214 2.8877265806 2.9194598397 2.9511930988 2.982926358 3.0146596171 3.0463928762 3.0781261353 3.1098593945 
3.1415926536 
_radius 1 100 double
6.7990623652e-14 0.25436773732 0.50388382566 0.74440331526 0.972891401 1.1877529493 1.3889414758 1.5778428407 1.7569714279 
1.9295476206 2.0990345114 2.2686973034 2.4412215668 2.6184048368 2.8009331343 2.9882663756 3.1786661756 3.3693893563 
3.5570394538 3.7380305249 3.9090890534 4.0677097566 4.212489775 4.3432884288 4.4611906909 4.568286373 4.6673084081 
4.7611966183 4.8526623938 4.9438222132 5.0359471131 5.1293494531 5.2234066207 5.316707792 5.4073020961 5.4930189912 
5.5718211819 5.6421393267 5.7031323861 5.7548235989 5.7980813746 5.8344433214 5.8658128692 5.8940832214 5.9207564903 
5.946624806 5.9715670487 5.9944944257 6.0134555232 6.0258898623 6.02899844 6.0201799606 5.9974660046 5.9598842798 
5.9076904234 5.8424321614 5.7668370832 5.6845405365 5.5996907467 5.5164836111 5.438688195 5.3692231598 5.3098332741 
5.2608974167 5.2213822306 5.1889440695 5.1601742924 5.1309721723 5.0970111245 5.0542416467 4.999358713 4.9301614481 
4.8457507598 4.746541121 4.6340969888 4.5108332599 4.3796359662 4.2434617572 4.1049654193 3.9661902091 3.8283426342 
3.6916647834 3.5554125859 3.4179444093 3.2769179545 3.1295821469 2.973134163 2.8050936994 2.6236358952 2.4278294315 
2.2177472595 1.994443761 1.7598110795 1.5163344733 1.266769439 1.0137735658 0.75954681842 0.50555518738 0.25241660566 
1.0750444539e-13 
_area 1 100 double
0 0.19389459553 0.76089210395 1.6606276309 2.8369815604 4.2311793875 5.7942417079 7.4955987692 9.3264149014 
11.298117043 13.437815432 15.782277988 18.371200294 21.239642786 24.40959082 27.881634625 31.628808627 35.59476401 
39.697604295 43.839408907 47.920136663 51.853383866 55.580538018 59.0796418 62.366240858 65.485688989 68.499110529 
71.467191437 74.436205535 77.4292898 80.443972558 83.455296687 86.422874155 89.299697301 92.04043725 94.607532016 
96.974703324 99.128881883 101.07184455 102.82210174 104.41606029 105.90581636 107.35075739 108.80266209 110.28913017 
111.82601501 113.42013906 114.89123277 116.02587774 116.64525867 116.58175374 115.72427874 114.04027274 111.58245699 
108.48277972 104.93247085 101.15092601 97.352404654 93.72318543 90.412993251 87.534345047 85.162450214 83.331168826 
82.02421983 81.165936873 80.619615616 80.199841246 79.698615014 78.918713579 77.705498008 75.969782588 73.697014666 
70.941051273 67.804629809 64.412823635 60.888170917 57.334344775 53.829925623 50.428866114 47.161840607 44.03423193 
41.024154488 38.089508599 35.183525834 32.267268515 29.315108111 26.316438245 23.276349697 20.216155209 17.173512382 
14.20146164 11.365636489 8.7388739549 6.3927589445 4.3869784356 2.7595577586 1.5223498565 0.66467148323 0.16411096495 
1.1368683772e-13 
