# vtk DataFile Version 5.1
vtk output
ASCII
DATASET POLYDATA
POINTS 1002 float
-5.27281 0.351544 -4.73882 4.74318 0.109931 -3.09034 -5.74574 0.371919 4.31182 
5.17599 -0.154269 2.91464 0.0953804 6.73587 -2.81065 -0.0367223 7.65484 3.43464 
-0.132681 -7.44275 -3.32643 -0.546072 -6.79725 3.16007 9.82232 5.55526 0.901164 
-9.16322 3.48634 -0.19531 10.0284 -5.06325 -0.0608573 -9.49688 -4.99274 1.08521 
-4.4912 0.346784 -4.50599 -3.58916 0.300528 -4.29274 -2.58215 0.212625 -4.15542 
-1.50753 0.125479 -4.06139 -0.378157 0.0500375 -4.0001 0.803391 -0.0257808 -4.02832 
1.97496 -0.0553164 -4.05636 3.03568 0.00321101 -3.86795 3.94531 0.0890542 -3.46472 
-5.13446 1.02615 -4.74819 -4.92667 1.76006 -4.70697 -4.55624 2.50597 -4.62991 
-3.98069 3.20436 -4.57381 -3.32541 3.86551 -4.5746 -2.73416 4.55086 -4.51577 
-2.14839 5.24533 -4.21184 -1.44205 5.85745 -3.6839 -0.649541 6.34324 -3.1611 
-4.93903 -0.318534 -4.51633 -4.56317 -1.06978 -4.17521 -4.05805 -1.93586 -3.87347 
-3.38629 -2.91162 -3.85703 -2.67205 -3.93525 -4.05312 -2.07877 -4.92927 -4.05767 
-1.60121 -5.81624 -3.74816 -1.12532 -6.52717 -3.43682 -0.616627 -7.05209 -3.3353 
-5.97365 0.781066 -4.93362 -6.78101 1.31539 -5.05715 -7.69796 2.01108 -5.12506 
-8.64734 2.83107 -5.0431 -9.39547 3.5309 -4.58189 -9.71828 3.83304 -3.67267 
-9.67507 3.75473 -2.57978 -9.51036 3.56484 -1.60915 -9.34941 3.46643 -0.838269 
-5.80271 -0.0686077 -4.82726 -6.35203 -0.512556 -4.80065 -6.93734 -0.971909 -4.46899 
-7.55705 -1.47864 -3.67946 -8.15413 -2.03834 -2.57631 -8.64733 -2.60584 -1.5312 
-9.01449 -3.19403 -0.723755 -9.28436 -3.85653 -0.0511908 -9.45655 -4.51827 0.569845 
4.54496 0.740927 -3.37781 4.27711 1.43486 -3.57555 3.91202 2.12766 -3.54041 
3.47197 2.80982 -3.38979 3.01915 3.54564 -3.38662 2.57725 4.32084 -3.51434 
2.08373 5.01862 -3.51509 1.4695 5.60689 -3.31629 0.768372 6.16519 -3.05265 
4.42923 -0.492381 -3.07981 4.04085 -1.15821 -3.19432 3.53581 -1.8871 -3.26828 
2.97208 -2.69813 -3.24776 2.49268 -3.59946 -3.33726 2.11076 -4.51093 -3.6041 
1.66265 -5.31718 -3.76292 1.06697 -6.02042 -3.64642 0.428745 -6.71729 -3.43729 
5.45043 0.426856 -3.09741 6.27023 0.738856 -3.24886 7.12396 1.16282 -3.15552 
7.85097 1.76585 -2.53864 8.38871 2.41094 -1.72704 8.86876 2.94808 -1.20579 
9.38819 3.48849 -0.872218 9.81796 4.19714 -0.364356 9.97218 4.97175 0.310205 
5.36624 -0.305405 -2.81472 6.10096 -0.790225 -2.79136 6.92128 -1.3261 -2.93785 
7.71767 -1.88933 -2.80119 8.40889 -2.44785 -2.17421 9.00241 -2.96301 -1.52384 
9.49306 -3.43981 -1.25407 9.82837 -3.94278 -1.1037 9.99446 -4.50522 -0.697181 
-4.72028 0.33981 4.09503 -3.59366 0.301357 4.06929 -2.47303 0.364111 4.06891 
-1.43851 0.469138 3.74271 -0.423654 0.430508 3.10564 0.726268 0.229638 2.62792 
2.01335 0.0440782 2.55245 3.25222 -0.03901 2.67012 4.30158 -0.0862944 2.78806 
-5.43232 1.00659 4.49198 -5.02549 1.6693 4.61914 -4.53355 2.39305 4.60796 
-3.9667 3.19796 4.47772 -3.31183 4.03516 4.3532 -2.57121 4.84531 4.3277 
-1.81947 5.63047 4.33865 -1.14656 6.39469 4.22391 -0.56721 7.08801 3.90116 
-5.39867 -0.275168 3.98201 -4.98767 -0.973488 3.7967 -4.46075 -1.71146 3.73043 
-3.78145 -2.50805 3.49413 -3.01016 -3.42402 3.02101 -2.2597 -4.47044 2.79545 
-1.61572 -5.47744 3.13933 -1.13198 -6.20198 3.61553 -0.804091 -6.59 3.6405 
-6.5535 0.724454 4.71115 -7.35609 0.969897 4.89737 -8.09702 1.09258 4.61529 
-8.74999 1.25656 4.0238 -9.26614 1.65201 3.50582 -9.56887 2.20972 3.06229 
-9.65022 2.67666 2.40055 -9.5791 2.96421 1.49785 -9.40949 3.19679 0.583981 
-6.49632 -0.0972211 4.4188 -7.21538 -0.691841 4.5488 -7.89566 -1.28551 4.56411 
-8.57338 -1.78855 4.29954 -9.26973 -2.33067 3.74688 -9.89834 -3.08842 3.16237 
-10.2829 -3.94557 2.75714 -10.3043 -4.59826 2.39161 -9.99693 -4.91503 1.83115 
4.87994 0.449532 2.84266 4.50246 1.1088 2.77878 4.00217 1.84793 2.68641 
3.39424 2.69852 2.56431 2.74614 3.63506 2.59821 2.09843 4.56084 2.96703 
1.45166 5.41991 3.4891 0.839762 6.23841 3.79029 0.332881 7.0105 3.73197 
4.88622 -0.721451 2.88106 4.48571 -1.36053 2.80116 4.04152 -2.06314 2.65717 
3.60756 -2.81879 2.45566 3.09508 -3.60295 2.20863 2.37223 -4.36049 1.96645 
1.49266 -5.04095 1.8919 0.649867 -5.64916 2.14152 -0.0330666 -6.22749 2.64952 
5.82105 0.143552 3.02701 6.50903 0.529933 3.12027 7.28119 1.05717 3.13511 
8.03476 1.63947 3.03362 8.57886 2.15876 2.80391 8.90611 2.73887 2.47921 
9.20057 3.58772 2.13851 9.53086 4.56621 1.80929 9.77492 5.28753 1.41935 
5.9124 -0.592111 3.07783 6.78954 -1.08744 3.26776 7.73683 -1.61809 3.35403 
8.65964 -2.21303 3.19112 9.57647 -2.95956 2.82086 10.4594 -3.81143 2.42794 
11.0209 -4.5149 2.03901 11.0132 -4.89177 1.49901 10.5725 -5.02041 0.752394 
0.135101 7.37175 -2.49161 0.148324 8.13465 -2.12192 0.116409 8.92231 -1.6745 
0.113095 9.49483 -1.10437 0.253711 9.68046 -0.354731 0.479851 9.55022 0.53658 
0.561374 9.25836 1.41424 0.404052 8.84208 2.17845 0.150436 8.2902 2.84813 
1.2053 6.73361 -2.77491 2.3806 6.75765 -2.82087 3.60944 6.91339 -2.78653 
4.83529 7.14716 -2.59335 5.96062 7.15744 -2.28752 6.95979 6.79399 -1.8565 
7.8848 6.34864 -1.21106 8.7192 6.10322 -0.407583 9.37433 5.92966 0.344489 
-0.978811 7.06724 -2.7778 -2.05762 7.28787 -2.79497 -3.12893 7.32194 -2.77898 
-4.23287 7.2361 -2.67535 -5.30697 7.09486 -2.48952 -6.20187 6.75488 -2.20344 
-6.93305 6.05013 -1.78196 -7.66421 5.09785 -1.26503 -8.44039 4.18642 -0.728262 
0.726917 7.72538 3.09774 1.64702 7.64743 2.72138 2.74637 7.46866 2.41559 
3.92775 7.17994 2.12804 5.07376 6.78607 1.71944 6.18923 6.47704 1.27085 
7.31325 6.42079 1.03197 8.36599 6.4305 1.02822 9.21713 6.17075 1.03695 
-0.708186 7.78461 3.2906 -1.52025 7.64862 2.9549 -2.5081 7.35621 2.53045 
-3.5601 7.138 2.19192 -4.52482 6.98725 1.9276 -5.44469 6.58012 1.53926 
-6.46004 5.76362 0.992199 -7.52075 4.80233 0.472652 -8.44632 4.01653 0.0937089 
-0.202157 -8.12045 -3.17544 -0.35089 -8.79586 -2.69666 -0.536267 -9.37532 -1.83242 
-0.633534 -9.70686 -0.79875 -0.577351 -9.642 0.110036 -0.489197 -9.18485 0.840704 
-0.512603 -8.52236 1.54598 -0.60182 -7.85935 2.27237 -0.623809 -7.28622 2.86496 
0.704631 -7.34734 -3.34123 1.63813 -7.25684 -3.24984 2.59482 -7.04413 -2.81508 
3.63133 -6.59824 -2.05875 4.8927 -6.12002 -1.42357 6.29227 -5.95156 -1.26121 
7.50667 -6.03901 -1.32415 8.41412 -5.99057 -1.15516 9.20064 -5.61804 -0.665496 
-0.898788 -7.98687 -3.39253 -1.64191 -8.43177 -3.56666 -2.4573 -8.47676 -3.51453 
-3.41488 -8.07492 -2.94788 -4.43913 -7.55945 -2.07984 -5.42417 -7.15505 -1.4018 
-6.40056 -6.69556 -0.988806 -7.44085 -6.06376 -0.502357 -8.50824 -5.43719 0.236816 
0.10803 -6.68147 2.24685 1.13173 -6.73405 1.63958 2.5935 -6.89585 1.68246 
4.25664 -6.93376 2.10265 5.71877 -6.77107 2.21177 6.82601 -6.6276 1.76309 
7.7386 -6.59739 1.1309 8.60142 -6.42239 0.636859 9.39119 -5.88013 0.265561 
-1.11743 -7.29165 3.92175 -1.67784 -7.73448 4.26569 -2.28035 -7.80532 3.86617 
-2.98129 -7.31698 2.88338 -3.90903 -6.54743 1.86747 -5.15434 -6.00043 1.20858 
-6.5576 -5.81395 0.919339 -7.81963 -5.71781 0.879511 -8.78936 -5.45777 0.97652 
10.3658 4.58525 1.00285 11.0356 3.34351 1.05521 11.851 2.07375 1.14541 
12.5692 0.893681 1.22991 12.9031 -0.265346 1.1236 12.8202 -1.36455 0.797389 
12.4245 -2.29248 0.466727 11.7648 -3.15499 0.264033 10.9166 -4.10505 0.112792 
-9.96641 2.88407 -0.0103264 -10.7998 2.21701 0.246946 -11.7131 1.39552 0.618381 
-12.611 0.505429 1.0812 -13.1434 -0.425218 1.53441 -13.021 -1.52843 1.89103 
-12.3456 -2.72988 2.08208 -11.4243 -3.72836 2.00467 -10.4537 -4.42911 1.6278 
-4.24596 1.02347 -4.49809 -3.9259 1.76015 -4.41113 -3.22522 0.955795 -4.2661 
-3.45147 2.50531 -4.32583 -2.79375 1.68971 -4.17016 -2.12379 0.867249 -4.10796 
-2.81347 3.18365 -4.34851 -2.24041 2.44601 -4.14528 -1.60844 1.62613 -4.04639 
-0.992351 0.815138 -4.0028 -2.12918 3.8156 -4.41503 -1.57038 3.1357 -4.25693 
-1.00063 2.40628 -4.08595 -0.416624 1.5973 -3.95409 0.184328 0.770413 -3.93686 
-1.45918 4.48287 -4.2839 -0.84265 3.78767 -4.30353 -0.29765 3.11173 -4.18263 
0.241552 2.36156 -3.94647 0.812428 1.54383 -3.82356 1.41332 0.714868 -3.91685 
-0.739362 5.15627 -3.87164 -0.0699388 4.46339 -4.06537 0.48441 3.77631 -4.11341 
0.982869 3.04024 -3.91397 1.50837 2.26437 -3.69828 2.06878 1.48009 -3.71394 
2.60319 0.707375 -3.84802 0.0354263 5.72704 -3.38894 0.728425 5.09749 -3.64991 
1.30801 4.43136 -3.82178 1.78457 3.68491 -3.74929 2.25677 2.90958 -3.56467 
2.76277 2.17511 -3.5431 3.24936 1.45881 -3.64707 3.64989 0.745561 -3.63973 
-5.87987 1.52286 -4.96063 -6.6905 2.0981 -5.13817 -5.64487 2.30133 -4.94085 
-7.54354 2.79565 -5.17356 -6.36263 2.86317 -5.05992 -5.16478 3.06135 -4.84352 
-8.31138 3.53579 -4.86095 -7.06602 3.48019 -4.82924 -5.77258 3.6214 -4.78696 
-4.51225 3.81569 -4.72571 -8.75197 4.06396 -4.10096 -7.61571 4.06816 -4.16977 
-6.38517 4.20998 -4.27732 -5.12939 4.49086 -4.53294 -3.90858 4.62366 -4.64574 
-8.79934 4.23228 -3.09361 -7.83451 4.47195 -3.31271 -6.82581 4.74179 -3.51934 
-5.74284 5.15306 -3.96953 -4.5836 5.44709 -4.40131 -3.37845 5.43355 -4.45291 
-8.67647 4.19003 -2.1469 -7.8046 4.70769 -2.53417 -6.97407 5.18384 -2.85633 
-6.10704 5.69466 -3.31428 -5.09841 6.11827 -3.85041 -3.95367 6.25628 -4.10957 
-2.7155 6.112 -3.96903 -8.56583 4.15182 -1.37914 -7.73838 4.90606 -1.88266 
-6.97036 5.6233 -2.33184 -6.20196 6.2009 -2.75196 -5.2869 6.60297 -3.16751 
-4.21624 6.82039 -3.46261 -3.0635 6.82397 -3.4896 -1.85869 6.63169 -3.31831 
-7.66164 4.98412 -0.445796 -6.71144 6.04178 -0.0183425 -6.90842 6.17909 -0.990536 
-5.6747 7.01593 0.557617 -6.0087 7.30091 -0.512086 -6.19756 7.19421 -1.47507 
-4.64845 7.51853 1.07812 -4.96606 7.97699 0.0686425 -5.24626 8.05697 -0.928442 
-5.31911 7.65999 -1.77884 -3.58673 7.62651 1.43005 -3.79103 8.12498 0.512256 
-4.06015 8.41361 -0.393946 -4.16078 8.23455 -1.16901 -4.16132 7.72727 -1.90399 
-2.45072 7.78134 1.78253 -2.52416 8.20371 0.874395 -2.74724 8.57995 -0.0372284 
-2.88964 8.65641 -0.737443 -2.88644 8.31328 -1.31268 -2.94933 7.79269 -1.99946 
-1.38358 8.11627 2.23422 -1.32328 8.50842 1.35246 -1.47342 8.87946 0.370936 
[...]
POINT_DATA 1002
FIELD FieldData 4
_paraPhi 1 1002 double
6.2831853072 3.1415926536 6.2831853072 3.1415926536 4.7123889804 4.7123889804 1.5707963268 1.5707963268 3.6951670125 
5.7296109483 2.5880182947 0.5535743589 6.2831853072 6.2831853072 6.2831853072 6.2831853072 3.1415926536 3.1415926536 
3.1415926536 3.1415926536 3.1415926536 6.1053039672 5.898798347 5.6768734901 5.4599499503 5.2659633393 5.1032165617 
4.9713148346 4.8656852733 4.7809517865 0.17788134 0.38438696014 0.60631181711 0.82323535693 1.0172219679 1.1799687454 
1.3118704726 1.4175000338 1.5022335207 6.1892828907 6.1070320098 6.035312792 5.9728339911 5.9183214791 5.8706119594 
5.8286879411 5.7916808611 5.7588591896 0.093902416448 0.17615329733 0.2478725152 0.31035131605 0.36486382811 0.41257334776 
0.45449736604 0.4915044461 0.52432611754 3.3194739936 3.5259796137 3.7479044707 3.9648280105 4.1588146215 4.321561399 
4.4534631262 4.5590926874 4.6438261743 2.9637113136 2.7572056934 2.5352808365 2.3183572967 2.1243706857 1.9616239082 
1.829722181 1.7240926197 1.6393591329 3.23549507 3.3177459509 3.3894651688 3.4519439696 3.5064564817 3.5541660013 
3.5960900196 3.6330970997 3.6659187711 3.0476902371 2.9654393563 2.8937201384 2.8312413375 2.7767288255 2.7290193058 
2.6870952876 2.6500882075 2.617266536 6.2831853072 6.2831853072 6.2831853072 6.2831853072 3.1415926536 3.1415926536 
3.1415926536 3.1415926536 3.1415926536 6.1053039672 5.898798347 5.6768734901 5.4599499503 5.2659633393 5.1032165617 
4.9713148346 4.8656852733 4.7809517865 0.17788134 0.38438696014 0.60631181711 0.82323535693 1.0172219679 1.1799687454 
1.3118704726 1.4175000338 1.5022335207 6.1892828907 6.1070320098 6.035312792 5.9728339911 5.9183214791 5.8706119594 
5.8286879411 5.7916808611 5.7588591896 0.093902416448 0.17615329733 0.2478725152 0.31035131605 0.36486382811 0.41257334776 
0.45449736604 0.4915044461 0.52432611754 3.3194739936 3.5259796137 3.7479044707 3.9648280105 4.1588146215 4.321561399 
4.4534631262 4.5590926874 4.6438261743 2.9637113136 2.7572056934 2.5352808365 2.3183572967 2.1243706857 1.9616239082 
1.829722181 1.7240926197 1.6393591329 3.23549507 3.3177459509 3.3894651688 3.4519439696 3.5064564817 3.5541660013 
3.5960900196 3.6330970997 3.6659187711 3.0476902371 2.9654393563 2.8937201384 2.8312413375 2.7767288255 2.7290193058 
2.6870952876 2.6500882075 2.617266536 4.7123889804 4.7123889804 4.7123889804 4.7123889804 4.7123889804 4.7123889804 
4.7123889804 4.7123889804 4.7123889804 4.6087898617 4.4991390697 4.3857031936 4.2712800401 4.1588146215 4.0509635631 
3.94975894 3.8564636551 3.7716124825 4.8159880991 4.9256388911 5.0390747672 5.1534979207 5.2659633393 5.3738143976 
5.4750190208 5.5683143056 5.6531654782 4.6087898617 4.4991390697 4.3857031936 4.2712800401 4.1588146215 4.0509635631 
3.94975894 3.8564636551 3.7716124825 4.8159880991 4.9256388911 5.0390747672 5.1534979207 5.2659633393 5.3738143976 
5.4750190208 5.5683143056 5.6531654782 1.5707963268 1.5707963268 1.5707963268 1.5707963268 1.5707963268 1.5707963268 
1.5707963268 1.5707963268 1.5707963268 1.6743954455 1.7840462375 1.8974821136 2.0119052671 2.1243706857 2.232221744 
2.3334263672 2.426721652 2.5115728246 1.4671972081 1.3575464161 1.24411054 1.1296873865 1.0172219679 0.90937090954 
0.80816628637 0.71487100155 0.63001982895 1.6743954455 1.7840462375 1.8974821136 2.0119052671 2.1243706857 2.232221744 
2.3334263672 2.426721652 2.5115728246 1.4671972081 1.3575464161 1.24411054 1.1296873865 1.0172219679 0.90937090954 
0.80816628637 0.71487100155 0.63001982895 3.6007720849 3.4966939854 3.3839471039 3.2645756454 3.1415926536 3.0186096618 
2.8992382033 2.7864913217 2.6824132222 5.8240058758 5.9280839753 6.0408308569 6.1602023154 6.2831853072 0.12298299178 
0.2423544503 0.35510133185 0.45917943135 6.0560271438 5.7885595667 5.9702140275 5.5125918794 5.6029703303 5.7885595667 
5.2659633393 5.2659633393 5.2659633393 5.2659633393 5.0674903122 5.0120975802 4.9155579264 4.7123889804 4.1588146215 
4.9155579264 4.8353719722 4.7123889804 4.5092200343 4.1588146215 3.6362183941 4.8004512023 4.7123889804 4.5894059886 
4.4126803806 4.1588146215 3.8218076305 3.4545639333 4.7123889804 4.6243267584 4.5092200343 4.3572876485 4.1588146215 
3.9121860814 3.6362183941 3.368750817 6.0174235957 5.9434319871 5.8263323547 5.8809213739 5.7674481418 5.6279784266 
5.8278025282 5.718968232 5.5891129425 5.4372443565 5.7823484065 5.678536687 5.5575666702 5.4192596322 5.2659633393 
5.743164462 5.6444075337 5.5314983644 5.4046708639 5.2659633393 5.1195510325 5.7091357773 5.6152775188 5.5096229709 
5.3926039573 5.2659633393 5.1329233157 4.9978930058 5.6793730533 5.5901633916 5.4910209005 5.3824597928 5.2659633393 
5.1440684722 5.0201624502 4.8979782167 5.5683143056 5.4750190208 5.4750190208 5.3738143976 5.3738143976 5.3738143976 
5.2659633393 5.2659633393 5.2659633393 5.2659633393 5.1534979207 5.1534979207 5.1534979207 5.1534979207 5.1534979207 
5.0390747672 5.0390747672 5.0390747672 5.0390747672 5.0390747672 5.0390747672 4.9256388911 4.9256388911 4.9256388911 
4.9256388911 4.9256388911 4.9256388911 4.9256388911 4.8159880991 4.8159880991 4.8159880991 4.8159880991 4.8159880991 
4.8159880991 4.8159880991 4.8159880991 4.6087898617 4.6087898617 4.4991390697 4.6087898617 4.4991390697 4.3857031936 
4.6087898617 4.4991390697 4.3857031936 4.2712800401 4.6087898617 4.4991390697 4.3857031936 4.2712800401 4.1588146215 
4.6087898617 4.4991390697 4.3857031936 4.2712800401 4.1588146215 4.0509635631 4.6087898617 4.4991390697 4.3857031936 
4.2712800401 4.1588146215 4.0509635631 3.94975894 4.6087898617 4.4991390697 4.3857031936 4.2712800401 4.1588146215 
4.0509635631 3.94975894 3.8564636551 4.526799744 4.4046155105 4.426884955 4.2807094886 4.2918546451 4.3052269283 
4.1588146215 4.1588146215 4.1588146215 4.1588146215 4.042318168 4.0321740035 4.0201070968 4.0055183285 3.9875336042 
3.9337570603 3.9151549899 3.8932795963 3.8672112905 3.8356650183 3.7967995342 3.8346145692 3.809500442 3.7803704271 
3.7462412737 3.7058097288 3.657329819 3.5984456061 3.7454049075 3.7156421835 3.6816134988 3.6424295543 3.5969754326 
3.5438565869 3.4813459737 3.4073543651 3.5642842451 3.4524645613 3.5233842518 3.3320300872 3.403123212 3.4773852225 
3.20576226 3.2746326772 3.348015857 3.4255060145 3.0774230472 3.1415926536 3.2112816139 3.2864685043 3.3668817272 
2.95115522 3.00855263 3.0719036933 3.1415926536 3.2178377658 3.3005964304 2.8307207459 2.8800620952 2.9351694502 
2.9967168029 3.0653475414 3.1415926536 3.225752376 2.718901062 2.7598010554 2.8058000847 2.8576792927 2.91630358 
2.9825888767 3.0574329311 3.1415926536 3.5642842451 3.5233842518 3.4524645613 3.4773852225 3.403123212 3.3320300872 
3.4255060145 3.348015857 3.2746326772 3.20576226 3.3668817272 3.2864685043 3.2112816139 3.1415926536 3.0774230472 
3.3005964304 3.2178377658 3.1415926536 3.0719036933 3.00855263 2.95115522 3.225752376 3.1415926536 3.0653475414 
2.9967168029 2.9351694502 2.8800620952 2.8307207459 3.1415926536 3.0574329311 2.9825888767 2.91630358 2.8576792927 
2.8058000847 2.7598010554 2.718901062 4.526799744 4.426884955 4.4046155105 4.3052269283 4.2918546451 4.2807094886 
4.1588146215 4.1588146215 4.1588146215 4.1588146215 3.9875336042 4.0055183285 4.0201070968 4.0321740035 4.042318168 
3.7967995342 3.8356650183 3.8672112905 3.8932795963 3.9151549899 3.9337570603 3.5984456061 3.657329819 3.7058097288 
3.7462412737 3.7803704271 3.809500442 3.8346145692 3.4073543651 3.4813459737 3.5438565869 3.5969754326 3.6424295543 
3.6816134988 3.7156421835 3.7454049075 4.7123889804 4.8004512023 4.6243267584 4.9155579264 4.7123889804 4.5092200343 
5.0674903122 4.8353719722 4.5894059886 4.3572876485 5.2659633393 5.0120975802 4.7123889804 4.4126803806 4.1588146215 
5.5125918794 5.2659633393 4.9155579264 4.5092200343 4.1588146215 3.9121860814 5.7885595667 5.6029703303 5.2659633393 
4.7123889804 4.1588146215 3.8218076305 3.6362183941 6.0560271438 5.9702140275 5.7885595667 5.2659633393 4.1588146215 
3.6362183941 3.4545639333 3.368750817 0.22715816343 0.49462574053 0.3129712797 0.77059342779 0.68021497688 0.49462574053 
1.0172219679 1.0172219679 1.0172219679 1.0172219679 1.2156949949 1.271087727 1.3676273807 1.5707963268 2.1243706857 
1.3676273807 1.447813335 1.5707963268 1.7739652728 2.1243706857 2.6469669131 1.4827341049 1.5707963268 1.6937793186 
1.8705049266 2.1243706857 2.4613776767 2.8286213739 1.5707963268 1.6588585487 1.7739652728 1.9258976586 2.1243706857 
2.3709992258 2.6469669131 2.9144344902 1.7563855631 1.8785697967 1.8563003522 2.0024758186 1.9913306621 1.9779583789 
2.1243706857 2.1243706857 2.1243706857 2.1243706857 2.2408671392 2.2510113037 2.2630782103 2.2776669786 2.295651703 
2.3494282469 2.3680303173 2.3899057108 2.4159740166 2.4475202889 2.486385773 2.448570738 2.4736848652 2.5028148801 
2.5369440334 2.5773755784 2.6258554882 2.6847397011 2.5377803997 2.5675431237 2.6015718084 2.6407557529 2.6862098746 
2.7393287203 2.8018393335 2.8758309421 1.6743954455 1.6743954455 1.7840462375 1.6743954455 1.7840462375 1.8974821136 
1.6743954455 1.7840462375 1.8974821136 2.0119052671 1.6743954455 1.7840462375 1.8974821136 2.0119052671 2.1243706857 
1.6743954455 1.7840462375 1.8974821136 2.0119052671 2.1243706857 2.232221744 1.6743954455 1.7840462375 1.8974821136 
2.0119052671 2.1243706857 2.232221744 2.3334263672 1.6743954455 1.7840462375 1.8974821136 2.0119052671 2.1243706857 
2.232221744 2.3334263672 2.426721652 1.4671972081 1.3575464161 1.4671972081 1.24411054 1.3575464161 1.4671972081 
1.1296873865 1.24411054 1.3575464161 1.4671972081 1.0172219679 1.1296873865 1.24411054 1.3575464161 1.4671972081 
0.90937090954 1.0172219679 1.1296873865 1.24411054 1.3575464161 1.4671972081 0.80816628637 0.90937090954 1.0172219679 
1.1296873865 1.24411054 1.3575464161 1.4671972081 0.71487100155 0.80816628637 0.90937090954 1.0172219679 1.1296873865 
1.24411054 1.3575464161 1.4671972081 0.60381225391 0.57404952988 0.69302191562 0.54002084522 0.66790778838 0.79216440667 
0.50083690068 0.63877777351 0.77356233629 0.90072551443 0.45538277901 0.60464862014 0.75168694275 0.89058134991 1.0172219679 
0.40226393329 0.56421707518 0.72561863695 0.87851444325 1.0172219679 1.139116835 0.33975332011 0.51573716537 0.69407236469 
0.86392567495 1.0172219679 1.1502619915 1.2630228569 0.26576171152 0.45685295248 0.6552068806 0.84594095064 1.0172219679 
1.1636342747 1.2852923014 1.3852070904 0.22715816343 0.3129712797 0.49462574053 0.49462574053 0.68021497688 0.77059342779 
1.0172219679 1.0172219679 1.0172219679 1.0172219679 2.1243706857 1.5707963268 1.3676273807 1.271087727 1.2156949949 
2.6469669131 2.1243706857 1.7739652728 1.5707963268 1.447813335 1.3676273807 2.8286213739 2.4613776767 2.1243706857 
1.8705049266 1.6937793186 1.5707963268 1.4827341049 2.9144344902 2.6469669131 2.3709992258 2.1243706857 1.9258976586 
1.7739652728 1.6588585487 1.5707963268 1.7563855631 1.8563003522 1.8785697967 1.9779583789 1.9913306621 2.0024758186 
2.1243706857 2.1243706857 2.1243706857 2.1243706857 2.295651703 2.2776669786 2.2630782103 2.2510113037 2.2408671392 
2.486385773 2.4475202889 2.4159740166 2.3899057108 2.3680303173 2.3494282469 2.6847397011 2.6258554882 2.5773755784 
2.5369440334 2.5028148801 2.4736848652 2.448570738 2.8758309421 2.8018393335 2.7393287203 2.6862098746 2.6407557529 
2.6015718084 2.5675431237 2.5377803997 5.8604937156 5.901393709 5.9723133995 5.9473927383 6.0216547488 6.0927478736 
5.9992719463 6.0767621038 6.1501452836 6.2190157008 6.0578962336 6.1383094565 6.2134963469 0 0.064169606361 
6.1241815303 6.206940195 6.2831853072 0.069688960264 0.13304002361 0.19043743361 6.1990255847 0 0.07624511221 
0.14487585072 0.20642320337 0.26153055843 0.3108719077 0 0.084159722458 0.15900377685 0.22528907359 0.28391336087 
0.3357925689 0.38179159818 0.42269159155 5.8604937156 5.9723133995 5.901393709 6.0927478736 6.0216547488 5.9473927383 
6.2190157008 6.1501452836 6.0767621038 5.9992719463 0.064169606361 0 6.2134963469 6.1383094565 6.0578962336 
0.19043743361 0.13304002361 0.069688960264 6.2831853072 6.206940195 6.1241815303 0.3108719077 0.26153055843 0.20642320337 
0.14487585072 0.07624511221 6.2831853072 6.1990255847 0.42269159155 0.38179159818 0.3357925689 0.28391336087 0.22528907359 
0.15900377685 0.084159722458 0 5.6793730533 5.7091357773 5.5901633916 5.743164462 5.6152775188 5.4910209005 
5.7823484065 5.6444075337 5.5096229709 5.3824597928 5.8278025282 5.678536687 5.5314983644 5.3926039573 5.2659633393 
5.8809213739 5.718968232 5.5575666702 5.4046708639 5.2659633393 5.1440684722 5.9434319871 5.7674481418 5.5891129425 
5.4192596322 5.2659633393 5.1329233157 5.0201624502 6.0174235957 5.8263323547 5.6279784266 5.4372443565 5.2659633393 
5.1195510325 4.9978930058 4.8979782167 1.3852070904 1.2852923014 1.2630228569 1.1636342747 1.1502619915 1.139116835 
1.0172219679 1.0172219679 1.0172219679 1.0172219679 0.84594095064 0.86392567495 0.87851444325 0.89058134991 0.90072551443 
0.6552068806 0.69407236469 0.72561863695 0.75168694275 0.77356233629 0.79216440667 0.45685295248 0.51573716537 0.56421707518 
0.60464862014 0.63877777351 0.66790778838 0.69302191562 0.26576171152 0.33975332011 0.40226393329 0.45538277901 0.50083690068 
0.54002084522 0.57404952988 0.60381225391 
_paraPhiHalf 1 1002 double
0 3.1415926536 0 3.1415926536 1.5707963268 1.5707963268 1.5707963268 1.5707963268 2.5880182947 
0.5535743589 2.5880182947 0.5535743589 0 0 0 0 3.1415926536 3.1415926536 
3.1415926536 3.1415926536 3.1415926536 0.17788134 0.38438696014 0.60631181711 0.82323535693 1.0172219679 1.1799687454 
1.3118704726 1.4175000338 1.5022335207 0.17788134 0.38438696014 0.60631181711 0.82323535693 1.0172219679 1.1799687454 
1.3118704726 1.4175000338 1.5022335207 0.093902416448 0.17615329733 0.2478725152 0.31035131605 0.36486382811 0.41257334776 
0.45449736604 0.4915044461 0.52432611754 0.093902416448 0.17615329733 0.2478725152 0.31035131605 0.36486382811 0.41257334776 
0.45449736604 0.4915044461 0.52432611754 2.9637113136 2.7572056934 2.5352808365 2.3183572967 2.1243706857 1.9616239082 
1.829722181 1.7240926197 1.6393591329 2.9637113136 2.7572056934 2.5352808365 2.3183572967 2.1243706857 1.9616239082 
1.829722181 1.7240926197 1.6393591329 3.0476902371 2.9654393563 2.8937201384 2.8312413375 2.7767288255 2.7290193058 
2.6870952876 2.6500882075 2.617266536 3.0476902371 2.9654393563 2.8937201384 2.8312413375 2.7767288255 2.7290193058 
2.6870952876 2.6500882075 2.617266536 0 0 0 0 3.1415926536 3.1415926536 
3.1415926536 3.1415926536 3.1415926536 0.17788134 0.38438696014 0.60631181711 0.82323535693 1.0172219679 1.1799687454 
1.3118704726 1.4175000338 1.5022335207 0.17788134 0.38438696014 0.60631181711 0.82323535693 1.0172219679 1.1799687454 
1.3118704726 1.4175000338 1.5022335207 0.093902416448 0.17615329733 0.2478725152 0.31035131605 0.36486382811 0.41257334776 
0.45449736604 0.4915044461 0.52432611754 0.093902416448 0.17615329733 0.2478725152 0.31035131605 0.36486382811 0.41257334776 
0.45449736604 0.4915044461 0.52432611754 2.9637113136 2.7572056934 2.5352808365 2.3183572967 2.1243706857 1.9616239082 
1.829722181 1.7240926197 1.6393591329 2.9637113136 2.7572056934 2.5352808365 2.3183572967 2.1243706857 1.9616239082 
1.829722181 1.7240926197 1.6393591329 3.0476902371 2.9654393563 2.8937201384 2.8312413375 2.7767288255 2.7290193058 
2.6870952876 2.6500882075 2.617266536 3.0476902371 2.9654393563 2.8937201384 2.8312413375 2.7767288255 2.7290193058 
2.6870952876 2.6500882075 2.617266536 1.5707963268 1.5707963268 1.5707963268 1.5707963268 1.5707963268 1.5707963268 
1.5707963268 1.5707963268 1.5707963268 1.6743954455 1.7840462375 1.8974821136 2.0119052671 2.1243706857 2.232221744 
2.3334263672 2.426721652 2.5115728246 1.4671972081 1.3575464161 1.24411054 1.1296873865 1.0172219679 0.90937090954 
0.80816628637 0.71487100155 0.63001982895 1.6743954455 1.7840462375 1.8974821136 2.0119052671 2.1243706857 2.232221744 
2.3334263672 2.426721652 2.5115728246 1.4671972081 1.3575464161 1.24411054 1.1296873865 1.0172219679 0.90937090954 
0.80816628637 0.71487100155 0.63001982895 1.5707963268 1.5707963268 1.5707963268 1.5707963268 1.5707963268 1.5707963268 
1.5707963268 1.5707963268 1.5707963268 1.6743954455 1.7840462375 1.8974821136 2.0119052671 2.1243706857 2.232221744 
2.3334263672 2.426721652 2.5115728246 1.4671972081 1.3575464161 1.24411054 1.1296873865 1.0172219679 0.90937090954 
0.80816628637 0.71487100155 0.63001982895 1.6743954455 1.7840462375 1.8974821136 2.0119052671 2.1243706857 2.232221744 
2.3334263672 2.426721652 2.5115728246 1.4671972081 1.3575464161 1.24411054 1.1296873865 1.0172219679 0.90937090954 
0.80816628637 0.71487100155 0.63001982895 2.6824132222 2.7864913217 2.8992382033 3.0186096618 3.1415926536 3.0186096618 
2.8992382033 2.7864913217 2.6824132222 0.45917943135 0.35510133185 0.2423544503 0.12298299178 0 0.12298299178 
0.2423544503 0.35510133185 0.45917943135 0.22715816343 0.49462574053 0.3129712797 0.77059342779 0.68021497688 0.49462574053 
1.0172219679 1.0172219679 1.0172219679 1.0172219679 1.2156949949 1.271087727 1.3676273807 1.5707963268 2.1243706857 
1.3676273807 1.447813335 1.5707963268 1.7739652728 2.1243706857 2.6469669131 1.4827341049 1.5707963268 1.6937793186 
1.8705049266 2.1243706857 2.4613776767 2.8286213739 1.5707963268 1.6588585487 1.7739652728 1.9258976586 2.1243706857 
2.3709992258 2.6469669131 2.9144344902 0.26576171152 0.33975332011 0.45685295248 0.40226393329 0.51573716537 0.6552068806 
0.45538277901 0.56421707518 0.69407236469 0.84594095064 0.50083690068 0.60464862014 0.72561863695 0.86392567495 1.0172219679 
0.54002084522 0.63877777351 0.75168694275 0.87851444325 1.0172219679 1.1636342747 0.57404952988 0.66790778838 0.77356233629 
0.89058134991 1.0172219679 1.1502619915 1.2852923014 0.60381225391 0.69302191562 0.79216440667 0.90072551443 1.0172219679 
1.139116835 1.2630228569 1.3852070904 0.71487100155 0.80816628637 0.80816628637 0.90937090954 0.90937090954 0.90937090954 
1.0172219679 1.0172219679 1.0172219679 1.0172219679 1.1296873865 1.1296873865 1.1296873865 1.1296873865 1.1296873865 
1.24411054 1.24411054 1.24411054 1.24411054 1.24411054 1.24411054 1.3575464161 1.3575464161 1.3575464161 
1.3575464161 1.3575464161 1.3575464161 1.3575464161 1.4671972081 1.4671972081 1.4671972081 1.4671972081 1.4671972081 
1.4671972081 1.4671972081 1.4671972081 1.6743954455 1.6743954455 1.7840462375 1.6743954455 1.7840462375 1.8974821136 
1.6743954455 1.7840462375 1.8974821136 2.0119052671 1.6743954455 1.7840462375 1.8974821136 2.0119052671 2.1243706857 
1.6743954455 1.7840462375 1.8974821136 2.0119052671 2.1243706857 2.232221744 1.6743954455 1.7840462375 1.8974821136 
2.0119052671 2.1243706857 2.232221744 2.3334263672 1.6743954455 1.7840462375 1.8974821136 2.0119052671 2.1243706857 
2.232221744 2.3334263672 2.426721652 1.7563855631 1.8785697967 1.8563003522 2.0024758186 1.9913306621 1.9779583789 
2.1243706857 2.1243706857 2.1243706857 2.1243706857 2.2408671392 2.2510113037 2.2630782103 2.2776669786 2.295651703 
2.3494282469 2.3680303173 2.3899057108 2.4159740166 2.4475202889 2.486385773 2.448570738 2.4736848652 2.5028148801 
2.5369440334 2.5773755784 2.6258554882 2.6847397011 2.5377803997 2.5675431237 2.6015718084 2.6407557529 2.6862098746 
2.7393287203 2.8018393335 2.8758309421 2.718901062 2.8307207459 2.7598010554 2.95115522 2.8800620952 2.8058000847 
3.0774230472 3.00855263 2.9351694502 2.8576792927 3.0774230472 3.1415926536 3.0719036933 2.9967168029 2.91630358 
2.95115522 3.00855263 3.0719036933 3.1415926536 3.0653475414 2.9825888767 2.8307207459 2.8800620952 2.9351694502 
2.9967168029 3.0653475414 3.1415926536 3.0574329311 2.718901062 2.7598010554 2.8058000847 2.8576792927 2.91630358 
2.9825888767 3.0574329311 3.1415926536 2.718901062 2.7598010554 2.8307207459 2.8058000847 2.8800620952 2.95115522 
2.8576792927 2.9351694502 3.00855263 3.0774230472 2.91630358 2.9967168029 3.0719036933 3.1415926536 3.0774230472 
2.9825888767 3.0653475414 3.1415926536 3.0719036933 3.00855263 2.95115522 3.0574329311 3.1415926536 3.0653475414 