# vtk DataFile Version 5.1
vtk output
ASCII
DATASET POLYDATA
POINTS 100 float
7.2444 24.9656 17.0843 7.26576 24.9687 17.0722 7.32722 24.9782 17.0419 
7.42635 24.995 16.9934 7.55938 25.0202 16.9267 7.72151 25.0554 16.8421 
7.90736 25.1021 16.74 8.11139 25.1616 16.6213 8.32833 25.235 16.4873 
8.55356 25.3227 16.34 8.78338 25.4248 16.1818 9.01506 25.5406 16.0156 
9.24692 25.6693 15.8447 9.47812 25.8098 15.6724 9.70847 25.961 15.5021 
9.93815 26.1219 15.3369 10.1674 26.2922 15.1796 10.3962 26.4718 15.0321 
10.6241 26.6613 14.8957 10.8502 26.8617 14.771 11.0732 27.0744 14.6576 
11.2911 27.3006 14.5547 11.502 27.5415 14.4608 11.7041 27.798 14.374 
11.8957 28.0699 14.2924 12.076 28.3564 14.2139 12.2447 28.6559 14.1368 
12.4027 28.9657 14.0595 12.5515 29.2826 13.9808 12.6935 29.6028 13.8999 
12.8316 29.9225 13.8163 12.9691 30.238 13.7297 13.1088 30.5463 13.6398 
13.2534 30.8449 13.5466 13.4049 31.1325 13.4498 13.5643 31.4086 13.3491 
13.7316 31.6736 13.2441 13.906 31.9288 13.1343 14.0858 32.1761 13.0191 
14.2688 32.4174 12.898 14.4524 32.655 12.7708 14.6341 32.8905 12.6374 
14.8117 33.1255 12.4981 14.9836 33.3608 12.3539 15.1489 33.5968 12.2057 
15.3076 33.8334 12.0551 15.4602 34.0702 11.904 15.6082 34.3068 11.7542 
15.7534 34.5425 11.6077 15.8977 34.7772 11.4663 16.0431 35.0107 11.3313 
16.1912 35.2435 11.2039 16.3433 35.476 11.0846 16.5 35.7088 10.9734 
16.6612 35.9427 10.8698 16.8263 36.178 10.7729 16.9944 36.4149 10.6816 
17.1641 36.6531 10.5945 17.3338 36.8919 10.5102 17.5023 37.1301 10.4274 
17.6682 37.3667 10.3451 17.8309 37.6002 10.2626 17.9897 37.8297 10.1792 
18.1446 38.0545 10.095 18.2958 38.2748 10.0102 18.4436 38.4915 9.92516 
18.5886 38.706 9.84059 18.7314 38.9205 9.75724 18.8723 39.1375 9.67589 
19.0116 39.3593 9.59731 19.1494 39.588 9.52222 19.2856 39.8248 9.45118 
19.4201 40.0698 9.38467 19.5526 40.322 9.32301 19.683 40.5787 9.26635 
19.8112 40.8364 9.21469 19.9372 41.0905 9.16787 20.0613 41.3361 9.1255 
20.184 41.5685 9.087 20.3057 41.7836 9.05157 20.4268 41.9787 9.01817 
20.5478 42.1527 8.98557 20.6687 42.3064 8.95236 20.7895 42.4427 8.91707 
20.9097 42.5661 8.87819 21.0284 42.6822 8.83439 21.1445 42.7974 8.78455 
21.2567 42.9178 8.72799 21.3636 43.0484 8.66455 21.4636 43.1926 8.59468 
21.5555 43.3517 8.5195 21.6382 43.5242 8.44081 21.7109 43.7061 8.361 
21.7731 43.8907 8.28294 21.8249 44.07 8.20982 21.8663 44.2346 8.14486 
21.8977 44.3751 8.09118 21.9195 44.4828 8.05146 21.9322 44.5507 8.02777 
21.9361 44.5744 8.02141 
LINES 2 100
OFFSETS vtktypeint64
0 100 
CONNECTIVITY vtktypeint64
0 1 2 3 4 5 6 7 8 
9 10 11 12 13 14 15 16 17 
18 19 20 21 22 23 24 25 26 
27 28 29 30 31 32 33 34 35 
36 37 38 39 40 41 42 43 44 
45 46 47 48 49 50 51 52 53 
54 55 56 57 58 59 60 61 62 
63 64 65 66 67 68 69 70 71 
72 73 74 75 76 77 78 79 80 
81 82 83 84 85 86 87 88 89 
90 91 92 93 94 95 96 97 98 
99 
POINT_DATA 100
FIELD FieldData 3
_theta 1 100 double
0 0.031733259127 0.063466518254 0.095199777382 0.12693303651 0.15866629564 0.19039955476 0.22213281389 0.25386607302 
0.28559933214 0.31733259127 0.3490658504 0.38079910953 0.41253236865 0.44426562778 0.47599888691 0.50773214603 0.53946540516 
0.57119866429 0.60293192342 0.63466518254 0.66639844167 0.6981317008 0.72986495992 0.76159821905 0.79333147818 0.82506473731 
0.85679799643 0.88853125556 0.92026451469 0.95199777382 0.98373103294 1.0154642921 1.0471975512 1.0789308103 1.1106640695 
1.1423973286 1.1741305877 1.2058638468 1.237597106 1.2693303651 1.3010636242 1.3327968833 1.3645301425 1.3962634016 
1.4279966607 1.4597299198 1.491463179 1.5231964381 1.5549296972 1.5866629564 1.6183962155 1.6501294746 1.6818627337 
1.7135959929 1.745329252 1.7770625111 1.8087957702 1.8405290294 1.8722622885 1.9039955476 1.9357288068 1.9674620659 
1.999195325 2.0309285841 2.0626618433 2.0943951024 2.1261283615 2.1578616206 2.1895948798 2.2213281389 2.253061398 
2.2847946572 2.3165279163 2.3482611754 2.3799944345 2.4117276937 2.4434609528 2.4751942119 2.506927471 2.5386607302 
2.5703939893 2.6021272484 2.6338605076 2.6655937667 2.6973270258 2.7290602849 2.7607935441 2.7925268032 2.8242600623 
2.8559933214 2.8877265806 2.9194598397 2.9511930988 2.982926358 3.0146596171 3.0463928762 3.0781261353 3.1098593945 
3.1415926536 
_radius 1 100 double
3.879621898e-14 0.31669677749 0.63087754733 0.94016884453 1.2423112697 1.5351575515 1.8166373296 2.0847192296 2.3374105632 
2.5728282188 2.7893527214 2.9858483146 3.1619050404 3.3180429841 3.4558191513 3.5777940453 3.6873436327 3.7883359333 
3.8847218599 3.9801095459 4.0773945591 4.1785037423 4.2842829596 4.3945290374 4.5081437253 4.6233770185 4.7381260847 
4.8502577847 4.9579220258 5.0598198533 5.1553889706 5.2448754298 5.3292750085 5.4101482181 5.4893338 5.5686025981 
5.6493047562 5.7320675184 5.816597382 5.901627274 5.9850265776 6.0640627488 6.1357748683 6.1973987925 6.2467746311 
6.2826707876 6.3049736011 6.3147152288 6.3139401409 6.3054358483 6.292370177 6.2778834553 6.2646822193 6.2546767407 
6.2487016239 6.2463569319 6.2460027694 6.2449271101 6.2396815142 6.226545999 6.2020534689 6.1634876504 6.1092723367 
6.0391915831 5.9544127592 5.8573186905 5.7511846457 5.6397552927 5.5267827653 5.4155806592 5.3086363762 5.2073141423 
5.111677478 5.0204588903 4.9311963376 4.8405334094 4.7446460752 4.6397266216 4.5224407736 4.3902848317 4.2418012983 
4.0766503072 3.895565304 3.700234948 3.4931465623 3.2774035423 3.0564987728 2.8340021309 2.6131211153 2.3961366722 
2.1838029405 1.9749005379 1.7661850612 1.5529053661 1.3298640913 1.0927471028 0.8393135496 0.57009634696 0.28845267966 
8.2527484896e-14 
_area 1 100 double
0 0.31489579891 1.2503096644 2.7791295937 4.8581735711 7.4300933712 10.424416523 13.757410591 17.331717748 
21.037804045 24.759299847 28.382973656 31.811982111 34.979263594 37.857369856 40.461878943 42.847348151 45.096737388 
47.306640904 49.571205799 51.967462035 54.544348665 57.317139673 60.267967062 63.351745513 66.505794367 69.661305327 
72.755042299 75.739706806 78.591321102 81.312220764 83.929076834 86.486554668 89.038167686 91.636161728 94.321972119 
97.118324032 100.02361551 103.00888328 106.01749786 108.96775665 111.75860711 114.27876655 116.41929069 118.08882353 
119.22968663 119.83365823 119.9701442 119.92096379 119.81533416 119.67831156 119.51728694 119.35549512 119.22005121 
119.13404341 119.09617281 119.00678549 118.75639746 118.25567893 117.26458883 115.6406261 113.43558906 110.70856177 
107.52631828 103.96442225 100.0234939 95.811169274 91.498867125 87.263748295 83.25494948 79.574448551 76.270016906 
73.338433652 70.73685879 68.388511082 66.158869879 63.870472523 61.360957858 58.517131311 55.286971931 51.679699776 
47.756505121 43.614642048 39.368818317 35.133837653 31.011329922 27.081790251 23.401628863 20.003840099 16.900464169 
14.085467263 11.538088533 9.2284366971 7.1274134424 5.2205413693 3.5211505021 2.0758997193 0.9574681027 0.24510822775 
1.1368683772e-13 
