# vtk DataFile Version 5.1
vtk output
ASCII
DATASET POLYDATA
POINTS 1002 float
12.0051 36.5624 15.6492 19.8591 41.3107 13.4915 13.9595 31.9444 6.97202 
21.3711 39.5744 7.68112 20.9787 34.5456 17.1659 21.9623 31.9355 11.1088 
12.3917 43.9622 11.4733 14.6282 42.0131 6.80281 27.6532 39.0518 12.2532 
11.73 30.082 14.0036 21.3455 47.0534 8.94569 7.92363 35.7124 10.0342 
12.587 37.242 15.7209 13.323 37.9128 15.712 14.2576 38.5935 15.629 
15.3132 39.2338 15.4459 16.3194 39.6873 15.0756 17.1733 39.9058 14.4882 
17.9001 40.0613 13.8697 18.5703 40.3501 13.4919 19.2245 40.7982 13.4196 
12.46 36.4463 15.9774 13.1172 36.2776 16.1035 14.1047 35.9388 16.0008 
15.4483 35.4589 15.9037 16.9024 35.0611 16.144 18.0818 34.8945 16.7298 
18.8718 34.8467 17.296 19.5075 34.7556 17.5339 20.2125 34.6241 17.4392 
11.9326 37.1707 15.3031 11.8495 37.9514 14.9826 11.7964 38.912 14.7791 
11.7907 39.936 14.5999 11.8109 40.8778 14.2429 11.8701 41.6632 13.6809 
12.0051 42.2965 13.0747 12.1798 42.8454 12.5197 12.3152 43.3933 11.9926 
11.6792 35.7232 15.7427 11.2839 34.7482 15.748 10.834 33.752 15.7101 
10.361 32.836 15.7599 9.95762 31.9321 15.9264 9.79138 31.0032 16.0206 
9.97981 30.2805 15.8255 10.472 29.98 15.321 11.1043 29.9969 14.6576 
11.436 36.2031 15.2723 10.8269 35.8572 14.8137 10.1406 35.6073 14.4076 
9.41922 35.4835 14.0799 8.76312 35.4269 13.6582 8.24232 35.3944 13.0149 
7.88354 35.4163 12.2456 7.71542 35.5039 11.478 7.74605 35.6141 10.7364 
19.9591 40.7243 13.753 20.1582 39.9108 13.8669 20.4825 38.9064 13.9741 
20.8469 38.008 14.3951 21.1299 37.5264 15.2853 21.2896 37.3109 16.3534 
21.3317 36.891 17.1366 21.2586 36.1169 17.4462 21.1144 35.2521 17.3948 
19.3658 41.5168 13.0949 18.7006 41.763 12.7025 17.804 42.0079 12.378 
16.8194 42.2604 12.1826 15.937 42.6443 12.1484 15.1683 43.1911 12.1954 
14.4263 43.6936 12.1762 13.6939 43.9555 12.0297 13.0058 44.0029 11.7858 
20.5876 41.5522 13.7836 21.4908 41.811 14.008 22.5727 41.9558 14.0745 
23.7574 41.9597 14.0542 24.9527 41.9175 14.0738 26.0415 41.7525 14.0786 
26.8604 41.2184 13.8923 27.3348 40.3558 13.4631 27.5573 39.5417 12.881 
20.2082 41.9334 13.2535 20.5453 42.5834 12.89 20.8079 43.3475 12.583 
21.007 44.2183 12.4193 21.2219 45.0007 12.1473 21.4469 45.5535 11.526 
21.5631 45.9886 10.7455 21.5261 46.4344 10.101 21.4252 46.8273 9.56407 
14.7533 32.4765 6.95007 15.5069 33.2309 7.12429 16.1818 34.1465 7.39796 
16.8957 35.0876 7.57053 17.7856 35.9587 7.56132 18.7599 36.7734 7.48314 
19.6073 37.574 7.44978 20.2779 38.3371 7.4774 20.8523 39.0083 7.55722 
14.6331 31.8203 7.24475 15.3118 31.7835 7.70737 16.0808 31.7169 8.23756 
16.9659 31.5883 8.71982 17.8764 31.4937 9.1688 18.7804 31.4897 9.62824 
19.7374 31.5254 10.0556 20.682 31.5842 10.4164 21.4416 31.7158 10.7526 
13.7284 32.5212 6.80152 13.4616 33.4145 6.81094 13.2366 34.6304 6.96902 
13.1197 35.9513 7.07441 13.137 37.0926 6.96405 13.3222 37.9991 6.75988 
13.6727 38.8706 6.70067 14.077 39.8769 6.79507 14.4068 40.9762 6.86266 
13.58 31.4105 7.23672 13.1614 30.8744 7.56268 12.7187 30.3671 7.95733 
12.2956 30.0322 8.57422 11.956 29.9511 9.53563 11.732 30.0197 10.6864 
11.6096 30.1029 11.7297 11.5739 30.1538 12.5616 11.6202 30.1515 13.2881 
12.9762 31.8974 7.03997 11.9173 32.0449 7.2616 10.9223 32.3129 7.5097 
10.0825 32.6287 7.74136 9.43303 33.029 8.04418 8.979 33.5351 8.43621 
8.65872 34.0615 8.81986 8.37504 34.5736 9.17437 8.10869 35.1258 9.57182 
21.4567 38.9305 8.03828 21.5667 38.1277 8.3068 21.6898 37.1621 8.51711 
21.7938 36.1719 8.77323 21.8869 35.3046 9.13778 22.0071 34.5196 9.56174 
22.12 33.7143 9.95574 22.141 32.9537 10.3018 22.0641 32.3626 10.6656 
20.9426 39.8856 7.20994 20.4055 40.3031 6.81102 19.7965 40.7743 6.51927 
19.1552 41.1692 6.24739 18.4089 41.4153 5.93791 17.4824 41.5785 5.73149 
16.5168 41.7497 5.81168 15.7362 41.9195 6.14338 15.1575 42.018 6.5234 
21.9108 39.7651 8.11085 22.4594 40.0221 8.58511 23.0487 40.2994 9.0344 
23.7451 40.4915 9.47719 24.5818 40.4952 9.94403 25.471 40.2815 10.3633 
26.2575 39.9075 10.687 26.8715 39.4965 11.0395 27.3357 39.1878 11.5691 
21.6383 40.2773 7.48849 21.8817 41.0704 7.27577 21.9654 42.063 7.20106 
21.8249 43.2332 7.32821 21.6545 44.3423 7.46239 21.7209 45.2131 7.446 
21.9557 45.9244 7.48307 22.03 46.5416 7.82712 21.7868 46.9485 8.39882 
21.3836 34.1882 16.7264 21.7209 33.9193 16.2276 21.944 33.6133 15.7564 
22.158 33.0609 15.2828 22.4248 32.3421 14.7555 22.5911 31.8433 14.1509 
22.5282 31.7375 13.4204 22.3364 31.8176 12.5721 22.1487 31.8816 11.7503 
21.8601 34.9912 17.0523 22.7918 35.6094 16.9922 23.6368 36.2626 16.801 
24.3181 36.7907 16.2478 24.9698 37.1772 15.4193 25.8248 37.5425 14.6617 
26.8422 37.9461 14.0866 27.6416 38.3332 13.5123 27.9034 38.6817 12.859 
20.4113 34.0083 17.0876 19.8746 33.4751 16.8727 19.2985 32.7787 16.429 
18.5591 31.8936 15.997 17.5891 30.9962 15.8891 16.4004 30.2914 15.9619 
15.0734 29.8994 15.7886 13.767 29.8283 15.2578 12.6368 29.9492 14.5971 
22.4862 32.4627 11.1748 23.1222 33.1146 11.2994 23.842 33.9195 11.5318 
24.5335 34.8325 11.7443 25.1932 35.8152 11.732 25.9918 36.8355 11.5369 
26.9256 37.7133 11.442 27.6446 38.2645 11.6036 27.8584 38.6086 11.9265 
21.6261 31.3539 11.3767 21.2705 30.6884 11.6452 20.7074 30.1265 11.9392 
19.7503 29.9185 12.3005 18.4219 29.9903 12.6756 16.9301 30.0125 12.9713 
15.4652 29.9261 13.2053 14.1095 29.9242 13.4513 12.8699 30.0262 13.7244 
12.0724 44.3169 10.8859 11.8445 44.6663 10.1629 11.8778 44.8203 9.33219 
12.2021 44.6482 8.51525 12.6413 44.2397 7.86597 13.05 43.8007 7.43534 
13.4637 43.415 7.15971 13.9177 43.0215 6.97886 14.3328 42.5537 6.87041 
12.8618 44.5394 11.1263 13.5357 44.982 10.7022 14.542 45.2911 10.3035 
15.8432 45.6434 10.0226 17.1169 46.1049 9.79372 18.0418 46.4943 9.51393 
18.7118 46.7155 9.24449 19.4723 46.8802 9.08708 20.4203 47.0289 9.01311 
11.7837 43.4986 11.3997 11.1782 42.9742 11.2729 10.6234 42.3429 11.1587 
10.1801 41.3954 11.0696 9.80606 40.1429 10.9749 9.36587 39.012 10.8603 
8.82846 38.2575 10.7005 8.33446 37.5999 10.466 8.02791 36.7331 10.2088 
15.1529 42.9987 6.4465 15.7368 43.8609 6.0145 16.4577 44.5635 5.72705 
17.3232 45.2655 5.59551 18.2046 46.0503 5.48432 18.9438 46.7229 5.53155 
19.5387 47.0925 6.07871 20.115 47.2067 7.09358 20.7357 47.1809 8.15168 
13.8634 41.3191 6.95569 12.8547 40.637 6.77501 11.6734 40.0957 6.37471 
10.5619 39.6298 6.16468 9.7546 39.0505 6.49834 9.25616 38.3497 7.27564 
8.89164 37.6856 8.11612 8.53806 37.0818 8.81917 8.20094 36.4304 9.43334 
27.0647 39.8337 12.1167 26.4779 41.0046 11.9537 26.1957 42.3713 11.6802 
26.0267 43.5238 11.2668 25.4574 44.2724 10.7855 24.465 44.8731 10.3322 
23.5335 45.5826 9.94261 22.8467 46.2959 9.60435 22.1667 46.7995 9.28385 
10.5087 30.0583 13.8378 9.18882 29.8802 13.6201 7.92061 29.8041 13.2701 
7.06744 30.224 12.802 6.87423 31.1226 12.3508 7.13742 32.0275 11.9619 
7.45504 32.7365 11.5119 7.65186 33.5291 10.9536 7.78073 34.5812 10.4193 
13.22 37.1649 16.0078 14.0897 37.0378 16.1085 14.1883 37.8765 16.0013 
15.2611 36.6854 16.0078 15.2608 37.7806 16.1447 15.3214 38.5761 15.9649 
16.6726 36.101 15.9236 16.5117 37.3566 16.026 16.4613 38.4123 16.1149 
16.424 39.1416 15.7572 18.0285 35.5571 16.135 17.843 36.6196 15.8099 
17.615 37.8056 15.8614 17.4456 38.7599 15.7573 17.3205 39.4144 15.1992 
19.027 35.2974 16.6322 19.0228 36.0081 15.8756 18.7727 36.97 15.4999 
18.4247 37.9638 15.3593 18.1689 38.8079 14.9986 18.024 39.4835 14.4098 
19.7147 35.2635 17.1298 19.8887 35.8486 16.3615 19.8192 36.5079 15.614 
19.481 37.2237 15.1001 19.0768 38.0175 14.6694 18.7966 38.8609 14.2105 
18.6564 39.6574 13.8068 20.368 35.2711 17.3956 20.5642 35.9863 17.0011 
20.6443 36.6036 16.3124 20.4939 37.0447 15.4915 20.1493 37.528 14.7167 
19.7571 38.2897 14.1457 19.4591 39.2318 13.8263 19.2998 40.1037 13.6368 
12.1398 35.5309 16.0341 11.7996 34.4543 16.0069 12.9008 35.217 16.0584 
11.4511 33.3915 15.983 12.7543 34.0603 15.9931 14.115 34.7771 15.9099 
11.1226 32.4261 16.0463 12.6298 33.0318 15.979 14.2212 33.7303 15.8821 
15.659 34.4456 15.9721 10.9345 31.4644 16.1459 12.5051 32.0979 16.0309 
14.2795 32.8896 15.8708 15.8573 33.7188 16.0347 17.092 34.4102 16.4756 
11.0426 30.5771 16.1192 12.5049 31.1226 16.1156 14.2709 31.9851 15.8949 
15.9345 33.014 15.9311 17.1911 33.9094 16.4974 18.1064 34.4864 17.127 
11.4623 30.039 15.8315 12.7638 30.2981 16.112 14.3615 30.9603 16.0217 
15.9761 31.9976 15.8518 17.2635 33.0994 16.1663 18.1574 33.9228 16.9206 
18.8486 34.3992 17.4728 12.0486 29.9041 15.28 13.2383 29.8909 15.8373 
14.6559 30.1953 16.0771 16.1262 30.9318 15.9531 17.3977 31.9573 15.9187 
18.3352 32.9615 16.3753 19.0106 33.6943 17.0348 19.6 34.1736 17.4004 
13.9696 29.8942 14.3344 15.426 29.9129 14.0314 15.2929 29.8767 15.013 
16.9369 30.0387 13.725 16.8541 30.0713 14.6555 16.6415 30.0775 15.5369 
18.4152 30.074 13.4511 18.3061 30.234 14.2756 18.0774 30.3493 15.1502 
17.8173 30.5002 15.7372 19.7631 29.9408 13.1856 19.6004 30.135 13.9828 
19.3067 30.4355 14.7667 19.0307 30.7266 15.4373 18.8069 31.1483 15.8006 
20.8207 29.99 12.893 20.7115 30.0059 13.7589 20.4059 30.3004 14.4867 
20.0926 30.8048 15.1419 19.8807 31.362 15.6575 19.6457 32.003 16.0271 
21.4741 30.4879 12.5577 21.5172 30.3146 13.4872 21.3596 30.377 14.2444 
21.0816 30.8602 14.8661 20.8435 31.5926 15.4294 20.6344 32.2756 15.9107 
20.3085 32.8761 16.3675 21.8398 31.2194 12.1666 21.9961 31.0453 13.0814 
22.0514 30.9403 13.9041 21.9326 31.2012 14.5548 21.6957 31.8948 15.1198 
21.4677 32.6552 15.6372 21.2177 33.1892 16.1111 20.8481 33.5875 16.601 
22.2368 34.6595 16.5161 22.4388 34.432 15.9485 23.0906 35.264 16.3125 
22.5611 34.1163 15.4359 23.1473 34.9939 15.6424 23.8566 35.8832 15.9841 
22.8119 33.541 14.9184 23.2315 34.6087 15.0657 23.8443 35.5328 15.2399 
24.5242 36.4189 15.4274 23.1118 32.9155 14.3063 23.5481 34.0429 14.4684 
23.9658 35.0884 14.6007 24.5443 36.0507 14.7038 25.2486 36.8943 14.7573 
23.1615 32.5719 13.5594 23.8175 33.5381 13.7288 24.297 34.5803 13.9004 
24.7013 35.644 14.0031 25.3411 36.6244 14.0628 26.1829 37.3809 14.1024 
[...]
POINT_DATA 1002
FIELD FieldData 4
_paraPhi 1 1002 double
6.2831853072 3.1415926536 6.2831853072 3.1415926536 4.7123889804 4.7123889804 1.5707963268 1.5707963268 3.6951670125 
5.7296109483 2.5880182947 0.5535743589 6.2831853072 6.2831853072 6.2831853072 6.2831853072 3.1415926536 3.1415926536 
3.1415926536 3.1415926536 3.1415926536 6.1053039672 5.898798347 5.6768734901 5.4599499503 5.2659633393 5.1032165617 
4.9713148346 4.8656852733 4.7809517865 0.17788134 0.38438696014 0.60631181711 0.82323535693 1.0172219679 1.1799687454 
1.3118704726 1.4175000338 1.5022335207 6.1892828907 6.1070320098 6.035312792 5.9728339911 5.9183214791 5.8706119594 
5.8286879411 5.7916808611 5.7588591896 0.093902416448 0.17615329733 0.2478725152 0.31035131605 0.36486382811 0.41257334776 
0.45449736604 0.4915044461 0.52432611754 3.3194739936 3.5259796137 3.7479044707 3.9648280105 4.1588146215 4.321561399 
4.4534631262 4.5590926874 4.6438261743 2.9637113136 2.7572056934 2.5352808365 2.3183572967 2.1243706857 1.9616239082 
1.829722181 1.7240926197 1.6393591329 3.23549507 3.3177459509 3.3894651688 3.4519439696 3.5064564817 3.5541660013 
3.5960900196 3.6330970997 3.6659187711 3.0476902371 2.9654393563 2.8937201384 2.8312413375 2.7767288255 2.7290193058 
2.6870952876 2.6500882075 2.617266536 6.2831853072 6.2831853072 6.2831853072 6.2831853072 3.1415926536 3.1415926536 
3.1415926536 3.1415926536 3.1415926536 6.1053039672 5.898798347 5.6768734901 5.4599499503 5.2659633393 5.1032165617 
4.9713148346 4.8656852733 4.7809517865 0.17788134 0.38438696014 0.60631181711 0.82323535693 1.0172219679 1.1799687454 
1.3118704726 1.4175000338 1.5022335207 6.1892828907 6.1070320098 6.035312792 5.9728339911 5.9183214791 5.8706119594 
5.8286879411 5.7916808611 5.7588591896 0.093902416448 0.17615329733 0.2478725152 0.31035131605 0.36486382811 0.41257334776 
0.45449736604 0.4915044461 0.52432611754 3.3194739936 3.5259796137 3.7479044707 3.9648280105 4.1588146215 4.321561399 
4.4534631262 4.5590926874 4.6438261743 2.9637113136 2.7572056934 2.5352808365 2.3183572967 2.1243706857 1.9616239082 
1.829722181 1.7240926197 1.6393591329 3.23549507 3.3177459509 3.3894651688 3.4519439696 3.5064564817 3.5541660013 
3.5960900196 3.6330970997 3.6659187711 3.0476902371 2.9654393563 2.8937201384 2.8312413375 2.7767288255 2.7290193058 
2.6870952876 2.6500882075 2.617266536 4.7123889804 4.7123889804 4.7123889804 4.7123889804 4.7123889804 4.7123889804 
4.7123889804 4.7123889804 4.7123889804 4.6087898617 4.4991390697 4.3857031936 4.2712800401 4.1588146215 4.0509635631 
3.94975894 3.8564636551 3.7716124825 4.8159880991 4.9256388911 5.0390747672 5.1534979207 5.2659633393 5.3738143976 
5.4750190208 5.5683143056 5.6531654782 4.6087898617 4.4991390697 4.3857031936 4.2712800401 4.1588146215 4.0509635631 
3.94975894 3.8564636551 3.7716124825 4.8159880991 4.9256388911 5.0390747672 5.1534979207 5.2659633393 5.3738143976 
5.4750190208 5.5683143056 5.6531654782 1.5707963268 1.5707963268 1.5707963268 1.5707963268 1.5707963268 1.5707963268 
1.5707963268 1.5707963268 1.5707963268 1.6743954455 1.7840462375 1.8974821136 2.0119052671 2.1243706857 2.232221744 
2.3334263672 2.426721652 2.5115728246 1.4671972081 1.3575464161 1.24411054 1.1296873865 1.0172219679 0.90937090954 
0.80816628637 0.71487100155 0.63001982895 1.6743954455 1.7840462375 1.8974821136 2.0119052671 2.1243706857 2.232221744 
2.3334263672 2.426721652 2.5115728246 1.4671972081 1.3575464161 1.24411054 1.1296873865 1.0172219679 0.90937090954 
0.80816628637 0.71487100155 0.63001982895 3.6007720849 3.4966939854 3.3839471039 3.2645756454 3.1415926536 3.0186096618 
2.8992382033 2.7864913217 2.6824132222 5.8240058758 5.9280839753 6.0408308569 6.1602023154 6.2831853072 0.12298299178 
0.2423544503 0.35510133185 0.45917943135 6.0560271438 5.7885595667 5.9702140275 5.5125918794 5.6029703303 5.7885595667 
5.2659633393 5.2659633393 5.2659633393 5.2659633393 5.0674903122 5.0120975802 4.9155579264 4.7123889804 4.1588146215 
4.9155579264 4.8353719722 4.7123889804 4.5092200343 4.1588146215 3.6362183941 4.8004512023 4.7123889804 4.5894059886 
4.4126803806 4.1588146215 3.8218076305 3.4545639333 4.7123889804 4.6243267584 4.5092200343 4.3572876485 4.1588146215 
3.9121860814 3.6362183941 3.368750817 6.0174235957 5.9434319871 5.8263323547 5.8809213739 5.7674481418 5.6279784266 
5.8278025282 5.718968232 5.5891129425 5.4372443565 5.7823484065 5.678536687 5.5575666702 5.4192596322 5.2659633393 
5.743164462 5.6444075337 5.5314983644 5.4046708639 5.2659633393 5.1195510325 5.7091357773 5.6152775188 5.5096229709 
5.3926039573 5.2659633393 5.1329233157 4.9978930058 5.6793730533 5.5901633916 5.4910209005 5.3824597928 5.2659633393 
5.1440684722 5.0201624502 4.8979782167 5.5683143056 5.4750190208 5.4750190208 5.3738143976 5.3738143976 5.3738143976 
5.2659633393 5.2659633393 5.2659633393 5.2659633393 5.1534979207 5.1534979207 5.1534979207 5.1534979207 5.1534979207 
5.0390747672 5.0390747672 5.0390747672 5.0390747672 5.0390747672 5.0390747672 4.9256388911 4.9256388911 4.9256388911 
4.9256388911 4.9256388911 4.9256388911 4.9256388911 4.8159880991 4.8159880991 4.8159880991 4.8159880991 4.8159880991 
4.8159880991 4.8159880991 4.8159880991 4.6087898617 4.6087898617 4.4991390697 4.6087898617 4.4991390697 4.3857031936 
4.6087898617 4.4991390697 4.3857031936 4.2712800401 4.6087898617 4.4991390697 4.3857031936 4.2712800401 4.1588146215 
4.6087898617 4.4991390697 4.3857031936 4.2712800401 4.1588146215 4.0509635631 4.6087898617 4.4991390697 4.3857031936 
4.2712800401 4.1588146215 4.0509635631 3.94975894 4.6087898617 4.4991390697 4.3857031936 4.2712800401 4.1588146215 
4.0509635631 3.94975894 3.8564636551 4.526799744 4.4046155105 4.426884955 4.2807094886 4.2918546451 4.3052269283 
4.1588146215 4.1588146215 4.1588146215 4.1588146215 4.042318168 4.0321740035 4.0201070968 4.0055183285 3.9875336042 
3.9337570603 3.9151549899 3.8932795963 3.8672112905 3.8356650183 3.7967995342 3.8346145692 3.809500442 3.7803704271 
3.7462412737 3.7058097288 3.657329819 3.5984456061 3.7454049075 3.7156421835 3.6816134988 3.6424295543 3.5969754326 
3.5438565869 3.4813459737 3.4073543651 3.5642842451 3.4524645613 3.5233842518 3.3320300872 3.403123212 3.4773852225 
3.20576226 3.2746326772 3.348015857 3.4255060145 3.0774230472 3.1415926536 3.2112816139 3.2864685043 3.3668817272 
2.95115522 3.00855263 3.0719036933 3.1415926536 3.2178377658 3.3005964304 2.8307207459 2.8800620952 2.9351694502 
2.9967168029 3.0653475414 3.1415926536 3.225752376 2.718901062 2.7598010554 2.8058000847 2.8576792927 2.91630358 
2.9825888767 3.0574329311 3.1415926536 3.5642842451 3.5233842518 3.4524645613 3.4773852225 3.403123212 3.3320300872 
3.4255060145 3.348015857 3.2746326772 3.20576226 3.3668817272 3.2864685043 3.2112816139 3.1415926536 3.0774230472 
3.3005964304 3.2178377658 3.1415926536 3.0719036933 3.00855263 2.95115522 3.225752376 3.1415926536 3.0653475414 
2.9967168029 2.9351694502 2.8800620952 2.8307207459 3.1415926536 3.0574329311 2.9825888767 2.91630358 2.8576792927 
2.8058000847 2.7598010554 2.718901062 4.526799744 4.426884955 4.4046155105 4.3052269283 4.2918546451 4.2807094886 
4.1588146215 4.1588146215 4.1588146215 4.1588146215 3.9875336042 4.0055183285 4.0201070968 4.0321740035 4.042318168 
3.7967995342 3.8356650183 3.8672112905 3.8932795963 3.9151549899 3.9337570603 3.5984456061 3.657329819 3.7058097288 
3.7462412737 3.7803704271 3.809500442 3.8346145692 3.4073543651 3.4813459737 3.5438565869 3.5969754326 3.6424295543 
3.6816134988 3.7156421835 3.7454049075 4.7123889804 4.8004512023 4.6243267584 4.9155579264 4.7123889804 4.5092200343 
5.0674903122 4.8353719722 4.5894059886 4.3572876485 5.2659633393 5.0120975802 4.7123889804 4.4126803806 4.1588146215 
5.5125918794 5.2659633393 4.9155579264 4.5092200343 4.1588146215 3.9121860814 5.7885595667 5.6029703303 5.2659633393 
4.7123889804 4.1588146215 3.8218076305 3.6362183941 6.0560271438 5.9702140275 5.7885595667 5.2659633393 4.1588146215 
3.6362183941 3.4545639333 3.368750817 0.22715816343 0.49462574053 0.3129712797 0.77059342779 0.68021497688 0.49462574053 
1.0172219679 1.0172219679 1.0172219679 1.0172219679 1.2156949949 1.271087727 1.3676273807 1.5707963268 2.1243706857 
1.3676273807 1.447813335 1.5707963268 1.7739652728 2.1243706857 2.6469669131 1.4827341049 1.5707963268 1.6937793186 
1.8705049266 2.1243706857 2.4613776767 2.8286213739 1.5707963268 1.6588585487 1.7739652728 1.9258976586 2.1243706857 
2.3709992258 2.6469669131 2.9144344902 1.7563855631 1.8785697967 1.8563003522 2.0024758186 1.9913306621 1.9779583789 
2.1243706857 2.1243706857 2.1243706857 2.1243706857 2.2408671392 2.2510113037 2.2630782103 2.2776669786 2.295651703 
2.3494282469 2.3680303173 2.3899057108 2.4159740166 2.4475202889 2.486385773 2.448570738 2.4736848652 2.5028148801 
2.5369440334 2.5773755784 2.6258554882 2.6847397011 2.5377803997 2.5675431237 2.6015718084 2.6407557529 2.6862098746 
2.7393287203 2.8018393335 2.8758309421 1.6743954455 1.6743954455 1.7840462375 1.6743954455 1.7840462375 1.8974821136 
1.6743954455 1.7840462375 1.8974821136 2.0119052671 1.6743954455 1.7840462375 1.8974821136 2.0119052671 2.1243706857 
1.6743954455 1.7840462375 1.8974821136 2.0119052671 2.1243706857 2.232221744 1.6743954455 1.7840462375 1.8974821136 
2.0119052671 2.1243706857 2.232221744 2.3334263672 1.6743954455 1.7840462375 1.8974821136 2.0119052671 2.1243706857 
2.232221744 2.3334263672 2.426721652 1.4671972081 1.3575464161 1.4671972081 1.24411054 1.3575464161 1.4671972081 
1.1296873865 1.24411054 1.3575464161 1.4671972081 1.0172219679 1.1296873865 1.24411054 1.3575464161 1.4671972081 
0.90937090954 1.0172219679 1.1296873865 1.24411054 1.3575464161 1.4671972081 0.80816628637 0.90937090954 1.0172219679 
1.1296873865 1.24411054 1.3575464161 1.4671972081 0.71487100155 0.80816628637 0.90937090954 1.0172219679 1.1296873865 
1.24411054 1.3575464161 1.4671972081 0.60381225391 0.57404952988 0.69302191562 0.54002084522 0.66790778838 0.79216440667 
0.50083690068 0.63877777351 0.77356233629 0.90072551443 0.45538277901 0.60464862014 0.75168694275 0.89058134991 1.0172219679 
0.40226393329 0.56421707518 0.72561863695 0.87851444325 1.0172219679 1.139116835 0.33975332011 0.51573716537 0.69407236469 
0.86392567495 1.0172219679 1.1502619915 1.2630228569 0.26576171152 0.45685295248 0.6552068806 0.84594095064 1.0172219679 
1.1636342747 1.2852923014 1.3852070904 0.22715816343 0.3129712797 0.49462574053 0.49462574053 0.68021497688 0.77059342779 
1.0172219679 1.0172219679 1.0172219679 1.0172219679 2.1243706857 1.5707963268 1.3676273807 1.271087727 1.2156949949 
2.6469669131 2.1243706857 1.7739652728 1.5707963268 1.447813335 1.3676273807 2.8286213739 2.4613776767 2.1243706857 
1.8705049266 1.6937793186 1.5707963268 1.4827341049 2.9144344902 2.6469669131 2.3709992258 2.1243706857 1.9258976586 
1.7739652728 1.6588585487 1.5707963268 1.7563855631 1.8563003522 1.8785697967 1.9779583789 1.9913306621 2.0024758186 
2.1243706857 2.1243706857 2.1243706857 2.1243706857 2.295651703 2.2776669786 2.2630782103 2.2510113037 2.2408671392 
2.486385773 2.4475202889 2.4159740166 2.3899057108 2.3680303173 2.3494282469 2.6847397011 2.6258554882 2.5773755784 
2.5369440334 2.5028148801 2.4736848652 2.448570738 2.8758309421 2.8018393335 2.7393287203 2.6862098746 2.6407557529 
2.6015718084 2.5675431237 2.5377803997 5.8604937156 5.901393709 5.9723133995 5.9473927383 6.0216547488 6.0927478736 
5.9992719463 6.0767621038 6.1501452836 6.2190157008 6.0578962336 6.1383094565 6.2134963469 0 0.064169606361 
6.1241815303 6.206940195 6.2831853072 0.069688960264 0.13304002361 0.19043743361 6.1990255847 0 0.07624511221 
0.14487585072 0.20642320337 0.26153055843 0.3108719077 0 0.084159722458 0.15900377685 0.22528907359 0.28391336087 
0.3357925689 0.38179159818 0.42269159155 5.8604937156 5.9723133995 5.901393709 6.0927478736 6.0216547488 5.9473927383 
6.2190157008 6.1501452836 6.0767621038 5.9992719463 0.064169606361 0 6.2134963469 6.1383094565 6.0578962336 
0.19043743361 0.13304002361 0.069688960264 6.2831853072 6.206940195 6.1241815303 0.3108719077 0.26153055843 0.20642320337 
0.14487585072 0.07624511221 6.2831853072 6.1990255847 0.42269159155 0.38179159818 0.3357925689 0.28391336087 0.22528907359 
0.15900377685 0.084159722458 0 5.6793730533 5.7091357773 5.5901633916 5.743164462 5.6152775188 5.4910209005 
5.7823484065 5.6444075337 5.5096229709 5.3824597928 5.8278025282 5.678536687 5.5314983644 5.3926039573 5.2659633393 
5.8809213739 5.718968232 5.5575666702 5.4046708639 5.2659633393 5.1440684722 5.9434319871 5.7674481418 5.5891129425 
5.4192596322 5.2659633393 5.1329233157 5.0201624502 6.0174235957 5.8263323547 5.6279784266 5.4372443565 5.2659633393 
5.1195510325 4.9978930058 4.8979782167 1.3852070904 1.2852923014 1.2630228569 1.1636342747 1.1502619915 1.139116835 
1.0172219679 1.0172219679 1.0172219679 1.0172219679 0.84594095064 0.86392567495 0.87851444325 0.89058134991 0.90072551443 
0.6552068806 0.69407236469 0.72561863695 0.75168694275 0.77356233629 0.79216440667 0.45685295248 0.51573716537 0.56421707518 
0.60464862014 0.63877777351 0.66790778838 0.69302191562 0.26576171152 0.33975332011 0.40226393329 0.45538277901 0.50083690068 
0.54002084522 0.57404952988 0.60381225391 
_paraPhiHalf 1 1002 double
0 3.1415926536 0 3.1415926536 1.5707963268 1.5707963268 1.5707963268 1.5707963268 2.5880182947 
0.5535743589 2.5880182947 0.5535743589 0 0 0 0 3.1415926536 3.1415926536 
3.1415926536 3.1415926536 3.1415926536 0.17788134 0.38438696014 0.60631181711 0.82323535693 1.0172219679 1.1799687454 
1.3118704726 1.4175000338 1.5022335207 0.17788134 0.38438696014 0.60631181711 0.82323535693 1.0172219679 1.1799687454 
1.3118704726 1.4175000338 1.5022335207 0.093902416448 0.17615329733 0.2478725152 0.31035131605 0.36486382811 0.41257334776 
0.45449736604 0.4915044461 0.52432611754 0.093902416448 0.17615329733 0.2478725152 0.31035131605 0.36486382811 0.41257334776 
0.45449736604 0.4915044461 0.52432611754 2.9637113136 2.7572056934 2.5352808365 2.3183572967 2.1243706857 1.9616239082 
1.829722181 1.7240926197 1.6393591329 2.9637113136 2.7572056934 2.5352808365 2.3183572967 2.1243706857 1.9616239082 
1.829722181 1.7240926197 1.6393591329 3.0476902371 2.9654393563 2.8937201384 2.8312413375 2.7767288255 2.7290193058 
2.6870952876 2.6500882075 2.617266536 3.0476902371 2.9654393563 2.8937201384 2.8312413375 2.7767288255 2.7290193058 
2.6870952876 2.6500882075 2.617266536 0 0 0 0 3.1415926536 3.1415926536 
3.1415926536 3.1415926536 3.1415926536 0.17788134 0.38438696014 0.60631181711 0.82323535693 1.0172219679 1.1799687454 
1.3118704726 1.4175000338 1.5022335207 0.17788134 0.38438696014 0.60631181711 0.82323535693 1.0172219679 1.1799687454 
1.3118704726 1.4175000338 1.5022335207 0.093902416448 0.17615329733 0.2478725152 0.31035131605 0.36486382811 0.41257334776 
0.45449736604 0.4915044461 0.52432611754 0.093902416448 0.17615329733 0.2478725152 0.31035131605 0.36486382811 0.41257334776 
0.45449736604 0.4915044461 0.52432611754 2.9637113136 2.7572056934 2.5352808365 2.3183572967 2.1243706857 1.9616239082 
1.829722181 1.7240926197 1.6393591329 2.9637113136 2.7572056934 2.5352808365 2.3183572967 2.1243706857 1.9616239082 
1.829722181 1.7240926197 1.6393591329 3.0476902371 2.9654393563 2.8937201384 2.8312413375 2.7767288255 2.7290193058 
2.6870952876 2.6500882075 2.617266536 3.0476902371 2.9654393563 2.8937201384 2.8312413375 2.7767288255 2.7290193058 
2.6870952876 2.6500882075 2.617266536 1.5707963268 1.5707963268 1.5707963268 1.5707963268 1.5707963268 1.5707963268 
1.5707963268 1.5707963268 1.5707963268 1.6743954455 1.7840462375 1.8974821136 2.0119052671 2.1243706857 2.232221744 
2.3334263672 2.426721652 2.5115728246 1.4671972081 1.3575464161 1.24411054 1.1296873865 1.0172219679 0.90937090954 
0.80816628637 0.71487100155 0.63001982895 1.6743954455 1.7840462375 1.8974821136 2.0119052671 2.1243706857 2.232221744 
2.3334263672 2.426721652 2.5115728246 1.4671972081 1.3575464161 1.24411054 1.1296873865 1.0172219679 0.90937090954 
0.80816628637 0.71487100155 0.63001982895 1.5707963268 1.5707963268 1.5707963268 1.5707963268 1.5707963268 1.5707963268 
1.5707963268 1.5707963268 1.5707963268 1.6743954455 1.7840462375 1.8974821136 2.0119052671 2.1243706857 2.232221744 
2.3334263672 2.426721652 2.5115728246 1.4671972081 1.3575464161 1.24411054 1.1296873865 1.0172219679 0.90937090954 
0.80816628637 0.71487100155 0.63001982895 1.6743954455 1.7840462375 1.8974821136 2.0119052671 2.1243706857 2.232221744 
2.3334263672 2.426721652 2.5115728246 1.4671972081 1.3575464161 1.24411054 1.1296873865 1.0172219679 0.90937090954 
0.80816628637 0.71487100155 0.63001982895 2.6824132222 2.7864913217 2.8992382033 3.0186096618 3.1415926536 3.0186096618 
2.8992382033 2.7864913217 2.6824132222 0.45917943135 0.35510133185 0.2423544503 0.12298299178 0 0.12298299178 
0.2423544503 0.35510133185 0.45917943135 0.22715816343 0.49462574053 0.3129712797 0.77059342779 0.68021497688 0.49462574053 
1.0172219679 1.0172219679 1.0172219679 1.0172219679 1.2156949949 1.271087727 1.3676273807 1.5707963268 2.1243706857 
1.3676273807 1.447813335 1.5707963268 1.7739652728 2.1243706857 2.6469669131 1.4827341049 1.5707963268 1.6937793186 
1.8705049266 2.1243706857 2.4613776767 2.8286213739 1.5707963268 1.6588585487 1.7739652728 1.9258976586 2.1243706857 
2.3709992258 2.6469669131 2.9144344902 0.26576171152 0.33975332011 0.45685295248 0.40226393329 0.51573716537 0.6552068806 
0.45538277901 0.56421707518 0.69407236469 0.84594095064 0.50083690068 0.60464862014 0.72561863695 0.86392567495 1.0172219679 
0.54002084522 0.63877777351 0.75168694275 0.87851444325 1.0172219679 1.1636342747 0.57404952988 0.66790778838 0.77356233629 
0.89058134991 1.0172219679 1.1502619915 1.2852923014 0.60381225391 0.69302191562 0.79216440667 0.90072551443 1.0172219679 
1.139116835 1.2630228569 1.3852070904 0.71487100155 0.80816628637 0.80816628637 0.90937090954 0.90937090954 0.90937090954 
1.0172219679 1.0172219679 1.0172219679 1.0172219679 1.1296873865 1.1296873865 1.1296873865 1.1296873865 1.1296873865 
1.24411054 1.24411054 1.24411054 1.24411054 1.24411054 1.24411054 1.3575464161 1.3575464161 1.3575464161 
1.3575464161 1.3575464161 1.3575464161 1.3575464161 1.4671972081 1.4671972081 1.4671972081 1.4671972081 1.4671972081 
1.4671972081 1.4671972081 1.4671972081 1.6743954455 1.6743954455 1.7840462375 1.6743954455 1.7840462375 1.8974821136 
1.6743954455 1.7840462375 1.8974821136 2.0119052671 1.6743954455 1.7840462375 1.8974821136 2.0119052671 2.1243706857 
1.6743954455 1.7840462375 1.8974821136 2.0119052671 2.1243706857 2.232221744 1.6743954455 1.7840462375 1.8974821136 
2.0119052671 2.1243706857 2.232221744 2.3334263672 1.6743954455 1.7840462375 1.8974821136 2.0119052671 2.1243706857 
2.232221744 2.3334263672 2.426721652 1.7563855631 1.8785697967 1.8563003522 2.0024758186 1.9913306621 1.9779583789 
2.1243706857 2.1243706857 2.1243706857 2.1243706857 2.2408671392 2.2510113037 2.2630782103 2.2776669786 2.295651703 
2.3494282469 2.3680303173 2.3899057108 2.4159740166 2.4475202889 2.486385773 2.448570738 2.4736848652 2.5028148801 
2.5369440334 2.5773755784 2.6258554882 2.6847397011 2.5377803997 2.5675431237 2.6015718084 2.6407557529 2.6862098746 
2.7393287203 2.8018393335 2.8758309421 2.718901062 2.8307207459 2.7598010554 2.95115522 2.8800620952 2.8058000847 
3.0774230472 3.00855263 2.9351694502 2.8576792927 3.0774230472 3.1415926536 3.0719036933 2.9967168029 2.91630358 
2.95115522 3.00855263 3.0719036933 3.1415926536 3.0653475414 2.9825888767 2.8307207459 2.8800620952 2.9351694502 
2.9967168029 3.0653475414 3.1415926536 3.0574329311 2.718901062 2.7598010554 2.8058000847 2.8576792927 2.91630358 
2.9825888767 3.0574329311 3.1415926536 2.718901062 2.7598010554 2.8307207459 2.8058000847 2.8800620952 2.95115522 
2.8576792927 2.9351694502 3.00855263 3.0774230472 2.91630358 2.9967168029 3.0719036933 3.1415926536 3.0774230472 
2.9825888767 3.0653475414 3.1415926536 3.0719036933 3.00855263 2.95115522 3.0574329311 3.1415926536 3.0653475414 