# vtk DataFile Version 5.1
vtk output
ASCII
DATASET POLYDATA
POINTS 100 float
8.09907 29.5012 17.1128 8.11229 29.5147 17.1133 8.15119 29.5562 17.1192 
8.21481 29.6236 17.1293 8.30164 29.7135 17.1422 8.40964 29.8218 17.1561 
8.5364 29.9438 17.1686 8.67926 30.0747 17.1775 8.83546 30.2102 17.1804 
9.00231 30.3466 17.1754 9.17731 30.4811 17.1608 9.35828 30.6119 17.1353 
9.54344 30.7383 17.0981 9.7315 30.8606 17.0489 9.92168 30.9796 16.988 
10.1137 31.0968 16.9156 10.3075 31.2135 16.8326 10.5039 31.3311 16.74 
10.7033 31.4508 16.6386 10.9069 31.5729 16.5297 11.1153 31.6975 16.4143 
11.3296 31.8242 16.2935 11.5504 31.952 16.1683 11.778 32.0799 16.0401 
12.0125 32.2067 15.9099 12.2536 32.3317 15.779 12.5008 32.4543 15.6488 
12.7532 32.5744 15.5206 13.0097 32.6924 15.3959 13.2689 32.8091 15.2761 
13.5295 32.9256 15.1623 13.79 33.0434 15.0555 14.049 33.1637 14.9564 
14.3053 33.2878 14.8654 14.5577 33.4167 14.7824 14.8052 33.5508 14.707 
15.0472 33.6905 14.6383 15.283 33.8356 14.5754 15.5125 33.9857 14.5169 
15.7354 34.1401 14.4615 15.9519 34.2983 14.4078 16.1623 34.4596 14.3547 
16.3671 34.6238 14.3012 16.567 34.7905 14.2466 16.7628 34.9597 14.1905 
16.9554 35.1314 14.1327 17.146 35.3059 14.0734 17.3356 35.4831 14.0129 
17.5255 35.663 13.9515 17.7167 35.8451 13.8897 17.9103 36.0288 13.8279 
18.1072 36.2132 13.7662 18.3082 36.3971 13.7049 18.5136 36.5793 13.6439 
18.7235 36.7587 13.5834 18.938 36.9343 13.5233 19.1564 37.1055 13.4635 
19.3781 37.2721 13.4041 19.6023 37.4346 13.3453 19.8279 37.5935 13.2874 
20.0539 37.7502 13.2308 20.2793 37.906 13.1762 20.5032 38.0621 13.1241 
20.725 38.2198 13.0752 20.9442 38.3798 13.03 21.1605 38.5423 12.989 
21.3739 38.707 12.9524 21.5845 38.8728 12.9203 21.7924 39.0382 12.8925 
21.9978 39.2016 12.8688 22.2007 39.3612 12.8487 22.4009 39.5153 12.8319 
22.5979 39.6629 12.8178 22.791 39.8035 12.8061 22.9794 39.9374 12.7965 
23.1619 40.0659 12.789 23.3373 40.1908 12.7835 23.5042 40.3143 12.7803 
23.6617 40.439 12.7793 23.8088 40.5673 12.7806 23.9451 40.701 12.7843 
24.0704 40.8412 12.7899 24.1853 40.988 12.7971 24.2905 41.1401 12.8049 
24.3873 41.2955 12.8125 24.477 41.451 12.8187 24.5612 41.6029 12.8223 
24.6413 41.747 12.8222 24.7187 41.8795 12.8177 24.7942 41.9972 12.808 
24.8681 42.0975 12.7933 24.9402 42.1794 12.7738 25.0097 42.2427 12.7507 
25.0755 42.2888 12.7252 25.1359 42.3201 12.699 25.189 42.3394 12.6742 
25.2328 42.3502 12.6526 25.2657 42.3557 12.636 25.2863 42.3584 12.6259 
25.2936 42.3602 12.6232 
LINES 2 100
OFFSETS vtktypeint64
0 100 
CONNECTIVITY vtktypeint64
0 1 2 3 4 5 6 7 8 
9 10 11 12 13 14 15 16 17 
18 19 20 21 22 23 24 25 26 
27 28 29 30 31 32 33 34 35 
36 37 38 39 40 41 42 43 44 
45 46 47 48 49 50 51 52 53 
54 55 56 57 58 59 60 61 62 
63 64 65 66 67 68 69 70 71 
72 73 74 75 76 77 78 79 80 
81 82 83 84 85 86 87 88 89 
90 91 92 93 94 95 96 97 98 
99 
POINT_DATA 100
FIELD FieldData 3
_theta 1 100 double
0 0.031733259127 0.063466518254 0.095199777382 0.12693303651 0.15866629564 0.19039955476 0.22213281389 0.25386607302 
0.28559933214 0.31733259127 0.3490658504 0.38079910953 0.41253236865 0.44426562778 0.47599888691 0.50773214603 0.53946540516 
0.57119866429 0.60293192342 0.63466518254 0.66639844167 0.6981317008 0.72986495992 0.76159821905 0.79333147818 0.82506473731 
0.85679799643 0.88853125556 0.92026451469 0.95199777382 0.98373103294 1.0154642921 1.0471975512 1.0789308103 1.1106640695 
1.1423973286 1.1741305877 1.2058638468 1.237597106 1.2693303651 1.3010636242 1.3327968833 1.3645301425 1.3962634016 
1.4279966607 1.4597299198 1.491463179 1.5231964381 1.5549296972 1.5866629564 1.6183962155 1.6501294746 1.6818627337 
1.7135959929 1.745329252 1.7770625111 1.8087957702 1.8405290294 1.8722622885 1.9039955476 1.9357288068 1.9674620659 
1.999195325 2.0309285841 2.0626618433 2.0943951024 2.1261283615 2.1578616206 2.1895948798 2.2213281389 2.253061398 
2.2847946572 2.3165279163 2.3482611754 2.3799944345 2.4117276937 2.4434609528 2.4751942119 2.506927471 2.5386607302 
2.5703939893 2.6021272484 2.6338605076 2.6655937667 2.6973270258 2.7290602849 2.7607935441 2.7925268032 2.8242600623 
2.8559933214 2.8877265806 2.9194598397 2.9511930988 2.982926358 3.0146596171 3.0463928762 3.0781261353 3.1098593945 
3.1415926536 
_radius 1 100 double
4.4515374804e-14 0.22979098991 0.4570534487 0.67998615124 0.89813569933 1.1124420872 1.3247680703 1.5371013614 1.7507473574 
1.9658025143 2.1810479456 2.3942250224 2.6025435653 2.8032543293 2.9941526158 3.1739281137 3.3423214017 3.500087238 
3.6487976584 3.7905412306 3.9275847338 4.0620575624 4.1956998818 4.3296917556 4.464562581 4.6001732245 4.735764037 
4.8700633413 5.0014484452 5.1281450006 5.2484435785 5.3609074127 5.4645438251 5.5589145103 5.644166996 5.7209810674 
5.7904382311 5.853836118 5.9124789819 5.9674773607 6.0195848648 6.0690910742 6.1157802925 6.158958152 6.197541334 
6.230198948 6.2555276106 6.2722376269 6.2793265811 6.2762192513 6.2628576562 6.2397307935 6.2078400256 6.1686035952 
6.1237121501 6.0749547219 6.0240388607 5.9724277224 5.921211134 5.8710199211 5.8219869121 5.7737557356 5.7255378574 
5.6762157144 5.6244838215 5.5690122183 5.5086109126 5.4423722692 5.3697708959 5.2907065218 5.2054833716 5.1147285037 
5.019260671 4.9199295214 4.8174508627 4.7122652825 4.604442906 4.4936465219 4.3791515864 4.2599100089 4.1346400823 
4.0019285989 3.8603390882 3.7085256317 3.5453505799 3.3699977649 3.1820656087 2.9816221427 2.769208552 2.545787852 
2.3126468255 2.0712684491 1.823196381 1.5699123731 1.3127426314 1.0528016386 0.79097376503 0.52792673212 0.26414849853 
5.4951616609e-14 
_area 1 100 double
0 0.15227686725 0.60240525474 1.333487342 2.3266133363 3.5704033095 5.0678947842 6.8376405059 8.9067716096 
11.296043256 14.00242985 16.989165883 20.189312579 23.52029085 26.902250939 30.273941992 33.602295643 36.884362109 
40.142332963 43.414047353 46.742147892 50.164502866 53.706992144 57.378424286 61.16715746 65.039779442 68.942920547 
72.809006486 76.565531486 80.146125902 83.501195346 86.606354164 89.467232699 92.117454395 94.60467752 96.971366481 
99.249605172 101.46563048 103.63960928 105.78078941 107.88230153 109.91806503 111.84278655 113.59520837 115.10431039 
116.29768887 117.11068963 117.49441281 117.42090737 116.8848587 115.90242337 114.50879041 112.75576269 110.7093109 
108.44614642 106.04888915 103.60048385 101.1789483 98.854179438 96.736330632 94.893163869 93.291304127 91.853105388 
90.489690908 89.111500574 87.631504746 85.97848079 84.10757842 82.003443393 79.677263103 77.160409423 74.496849197 
71.735438463 68.922488585 66.095284287 63.27780467 60.479664552 57.698149661 54.921887766 52.134078096 49.313859252 
46.436143141 43.472079513 40.392683482 37.176090835 33.815926308 30.327269278 26.748208943 23.137109603 19.566959627 
16.118359606 12.872276009 9.9032184298 7.2733491372 5.028171189 3.1945691027 1.7818319183 0.78578928741 0.19537768975 
4.1132284295e-13 
