# vtk DataFile Version 5.1
vtk output
ASCII
DATASET POLYDATA
POINTS 1002 float
-5.66626 -0.226175 -2.64066 5.56078 0.0646692 -4.03134 -5.37969 0.0608915 3.43679 
5.79805 0.0547112 4.59716 -0.317869 5.87975 -1.95313 -0.257035 6.25303 2.49106 
-0.360085 -6.38616 -2.05876 -0.71758 -7.14076 3.59192 9.88586 4.16524 -0.259491 
-10.1808 4.97627 -0.163391 10.6499 -3.58434 -1.66283 -9.26083 -5.13008 -0.239758 
-4.71419 -0.304876 -2.34371 -3.71621 -0.323111 -2.21345 -2.72463 -0.330249 -2.26881 
-1.61199 -0.285551 -2.54052 -0.279129 -0.0950602 -3.03348 1.12398 0.124294 -3.55499 
2.39631 0.139404 -3.84317 3.52063 -0.00661219 -3.90185 4.56852 -0.0640929 -3.93382 
-5.4253 0.361064 -2.58489 -5.09263 1.00711 -2.54509 -4.6403 1.71355 -2.45246 
-4.09005 2.39468 -2.25921 -3.47793 3.00034 -2.0726 -2.81505 3.64275 -2.05745 
-2.12093 4.39132 -2.18762 -1.44805 5.09146 -2.26468 -0.843323 5.57888 -2.1694 
-5.29782 -0.89166 -2.47921 -4.92505 -1.57938 -2.2838 -4.58912 -2.25863 -2.07654 
-4.19183 -2.93609 -2.01955 -3.62623 -3.6216 -2.22918 -2.95794 -4.24881 -2.47857 
-2.29396 -4.76064 -2.45017 -1.62635 -5.24174 -2.20945 -0.953665 -5.79762 -2.04766 
-6.39251 0.307516 -3.00333 -6.99809 0.906705 -3.36014 -7.49899 1.45701 -3.50416 
-8.0774 1.94848 -3.3286 -8.83087 2.49471 -2.96693 -9.55677 3.11204 -2.56258 
-10.0042 3.67025 -2.05361 -10.1775 4.12333 -1.38931 -10.2166 4.54891 -0.707175 
-6.34694 -0.524867 -2.96345 -6.98324 -0.902426 -3.33712 -7.61661 -1.45098 -3.58173 
-8.42712 -2.18186 -3.56978 -9.37891 -2.92496 -3.3848 -10.0311 -3.52682 -3.10966 
-10.0706 -4.04822 -2.61586 -9.734 -4.56141 -1.83441 -9.42251 -4.96332 -0.963158 
5.34276 0.518312 -3.85623 5.0499 1.08857 -3.57023 4.56701 1.77696 -3.35268 
3.88087 2.48067 -3.22434 3.15832 3.12772 -3.08227 2.52881 3.75809 -2.91128 
1.90386 4.3955 -2.73607 1.1711 4.98152 -2.50891 0.38751 5.4718 -2.22099 
5.15392 -0.492142 -3.95139 4.70502 -1.09379 -3.71075 4.2226 -1.7305 -3.47166 
3.69581 -2.35644 -3.45326 3.08103 -2.94438 -3.49618 2.34524 -3.53624 -3.17897 
1.54303 -4.20803 -2.52148 0.792093 -4.97528 -2.00834 0.162479 -5.74629 -1.90878 
6.42001 0.588663 -4.11483 7.294 1.18951 -4.11615 8.09638 1.72132 -3.87201 
8.77969 2.10545 -3.41805 9.37781 2.47569 -3.01167 9.90709 3.01329 -2.73355 
10.2616 3.63311 -2.33959 10.3331 4.06631 -1.68057 10.1639 4.205 -0.916277 
6.3478 -0.0901543 -4.03959 7.25093 -0.384243 -3.81219 8.14425 -0.898328 -3.4311 
8.84237 -1.49656 -3.08702 9.35118 -1.99678 -2.88579 9.89015 -2.44798 -2.78038 
10.5053 -2.96172 -2.67342 10.935 -3.42041 -2.47867 10.9653 -3.63121 -2.13887 
-4.47178 -0.0384554 3.51557 -3.49065 -0.12781 3.62006 -2.44102 -0.239646 3.90479 
-1.28046 -0.420774 4.31177 -0.0374526 -0.556645 4.53823 1.22651 -0.453105 4.41687 
2.50389 -0.173635 4.18582 3.74902 0.0243941 4.16443 4.85833 0.0590303 4.36884 
-5.08799 0.683748 3.34783 -4.74518 1.3805 3.20351 -4.32446 2.10612 3.09711 
-3.82798 2.80664 3.12866 -3.32662 3.46726 3.25094 -2.86597 4.11872 3.24607 
-2.3633 4.76949 2.99509 -1.71882 5.36858 2.66594 -0.972069 5.86381 2.4892 
-5.09728 -0.594841 3.52564 -4.74058 -1.29041 3.51415 -4.30222 -2.0394 3.43083 
-3.80471 -2.81358 3.38646 -3.26497 -3.5475 3.41098 -2.68288 -4.25213 3.42375 
-2.08963 -5.01039 3.43334 -1.54881 -5.81132 3.51835 -1.09611 -6.54313 3.62146 
-6.06679 0.543059 3.22222 -6.74262 1.05395 2.88531 -7.41982 1.57661 2.53231 
-8.13998 2.14175 2.29792 -8.851 2.7668 2.12292 -9.42021 3.39656 1.79579 
-9.81658 3.96118 1.27804 -10.099 4.42561 0.738889 -10.2473 4.76611 0.276373 
-6.07674 -0.25473 3.3123 -6.71665 -0.611909 3.02816 -7.21455 -1.03155 2.68688 
-7.57864 -1.53394 2.384 -7.89884 -2.10431 2.02533 -8.23729 -2.70919 1.5077 
-8.58159 -3.34872 0.964874 -8.88929 -4.01983 0.550756 -9.12347 -4.64799 0.195975 
5.55344 0.575748 4.51 5.14327 1.09004 4.29005 4.55455 1.6704 3.98571 
3.8857 2.40066 3.67558 3.23675 3.21164 3.418 2.56933 3.95932 3.24214 
1.82483 4.62692 3.11969 1.06689 5.2538 2.96641 0.37498 5.80662 2.74196 
5.38096 -0.53837 4.46864 4.82501 -1.23087 4.36534 4.11277 -2.00377 4.42518 
3.27115 -2.86949 4.64019 2.39198 -3.82533 4.85922 1.56577 -4.78043 4.92977 
0.830732 -5.62236 4.78618 0.205743 -6.3045 4.45668 -0.301006 -6.81305 4.03153 
6.58763 0.439195 4.68935 7.483 0.911514 4.58469 8.46579 1.41785 4.25641 
9.32772 1.85335 3.67599 9.82312 2.17524 2.80968 9.96857 2.4328 1.84018 
9.98894 2.71222 1.11251 10.0085 3.10162 0.684977 9.9915 3.62016 0.28924 
6.4715 -0.240746 4.62931 7.21124 -0.470323 4.34742 8.02883 -0.636003 3.67581 
8.84498 -0.82181 2.78323 9.50826 -1.11125 1.90805 9.94966 -1.51561 1.10627 
10.2514 -2.00181 0.318189 10.5005 -2.53428 -0.44456 10.6636 -3.07616 -1.11557 
-0.423176 6.24294 -1.59158 -0.520342 6.61089 -1.16115 -0.57629 7.11097 -0.801056 
-0.620688 7.75777 -0.48337 -0.677839 8.27489 0.0371408 -0.675671 8.31535 0.841451 
-0.550409 7.87986 1.63655 -0.374691 7.27538 2.13642 -0.266436 6.72861 2.3644 
0.663802 5.97164 -1.97996 1.79033 6.21944 -2.23527 2.94255 6.40374 -2.43265 
4.0542 6.19975 -2.229 5.15352 5.70256 -1.7734 6.25994 5.39458 -1.51635 
7.34683 5.39742 -1.45369 8.365 5.31687 -1.2234 9.23292 4.86959 -0.750481 
-1.22563 6.16873 -2.00406 -2.10665 6.50547 -2.20208 -3.14958 6.64642 -2.19126 
-4.44509 6.45263 -1.79767 -5.71059 6.1653 -1.35787 -6.68872 6.11404 -1.19109 
-7.59002 6.20893 -1.10147 -8.62999 6.08932 -0.835429 -9.59099 5.62273 -0.474424 
0.791058 6.34443 2.67667 1.78124 6.39678 2.61741 2.70762 6.32994 2.11797 
3.72202 6.09054 1.43241 4.93871 5.76904 1.02129 6.24074 5.50134 0.9026 
7.41852 5.26536 0.734197 8.39259 4.95523 0.406154 9.20028 4.56567 0.0531913 
-1.35272 6.4454 2.24682 -2.5431 6.63066 2.17582 -3.7623 6.77431 2.30312 
-5.02035 6.90868 2.38341 -6.33143 7.12938 2.15306 -7.56416 7.36103 1.63516 
-8.547 7.29003 1.03731 -9.26496 6.73159 0.519096 -9.79641 5.85955 0.133447 
-0.35858 -7.08632 -2.17517 -0.423217 -7.77209 -2.09673 -0.53612 -8.36412 -1.69044 
-0.61507 -8.79417 -1.00387 -0.607781 -8.98352 -0.177827 -0.576764 -8.87684 0.720203 
-0.605593 -8.53142 1.6492 -0.676599 -8.08233 2.49645 -0.721372 -7.61497 3.15103 
0.475034 -6.47823 -2.01991 1.43581 -6.20026 -1.84555 2.6852 -5.70392 -1.48299 
4.17212 -5.5032 -1.27751 5.60585 -5.84505 -1.55397 6.82589 -6.23428 -2.05245 
7.93442 -6.04053 -2.28524 8.99593 -5.26311 -2.17254 9.92509 -4.33897 -1.92373 
-1.25459 -6.45063 -2.23333 -2.39237 -6.3483 -2.47625 -3.71856 -6.38612 -2.71687 
-4.9563 -6.77226 -2.73555 -5.93359 -7.23376 -2.35185 -6.82187 -7.3044 -1.72382 
-7.78339 -6.92461 -1.16807 -8.64316 -6.36158 -0.775554 -9.14358 -5.76786 -0.47227 
-0.0941237 -7.46311 3.62188 0.683751 -7.5583 3.36409 1.71021 -7.2996 2.85022 
2.95298 -6.69761 2.25867 4.34667 -5.93215 1.67875 5.85652 -5.21519 1.02105 
7.35687 -4.64138 0.241093 8.67268 -4.20112 -0.547448 9.75515 -3.86145 -1.20341 
-1.40745 -6.98236 3.19519 -2.34338 -6.78424 2.75739 -3.46015 -6.70073 2.34881 
-4.47505 -6.69184 1.97335 -5.32118 -6.52021 1.56924 -6.32051 -6.13739 1.15513 
-7.55313 -5.7996 0.829939 -8.585 -5.63839 0.5665 -9.1002 -5.47775 0.223806 
10.6074 3.4232 -0.198163 11.355 2.68785 -0.203924 12.2116 1.97222 -0.28638 
13.1593 1.08718 -0.419472 13.9066 -0.0781348 -0.611708 14.0476 -1.26967 -0.901684 
13.4985 -2.13911 -1.24914 12.5655 -2.66421 -1.53183 11.5742 -3.08409 -1.66744 
-10.4878 4.07819 -0.16237 -10.5347 3.26917 -0.203175 -10.4864 2.45976 -0.331355 
-10.5874 1.46482 -0.514178 -10.724 0.315987 -0.675357 -10.4976 -0.828875 -0.766895 
-9.91155 -1.98724 -0.763506 -9.42379 -3.19389 -0.648584 -9.27277 -4.29423 -0.450182 
-4.46184 0.28255 -2.33372 -4.11322 0.947627 -2.33863 -3.47342 0.235392 -2.29073 
-3.57796 1.70333 -2.30783 -3.03904 0.920393 -2.41203 -2.39763 0.229102 -2.51883 
-2.90443 2.4588 -2.23773 -2.31541 1.75632 -2.54462 -1.72869 1.00048 -2.84824 
-1.06025 0.379833 -3.00087 -2.2268 3.14208 -2.19688 -1.50506 2.58399 -2.62591 
-0.800675 1.91461 -3.12647 -0.163024 1.25667 -3.42355 0.473802 0.669122 -3.50221 
-1.57648 3.80114 -2.22033 -0.82015 3.26316 -2.59608 0.0107298 2.6974 -3.16553 
0.752458 2.10315 -3.56671 1.37798 1.47653 -3.67274 1.92181 0.798814 -3.71154 
-0.902416 4.4532 -2.26148 -0.188859 3.84761 -2.49953 0.614486 3.26836 -2.95669 
1.39308 2.70304 -3.36193 2.10138 2.10054 -3.49557 2.70656 1.39242 -3.51071 
3.17059 0.643144 -3.66308 -0.222399 5.02152 -2.26581 0.498951 4.42319 -2.45901 
1.22856 3.80297 -2.75004 1.91752 3.19173 -3.05134 2.62069 2.58257 -3.21816 
3.32937 1.90161 -3.25696 3.90909 1.15393 -3.37927 4.29648 0.471305 -3.66956 
-6.11416 0.949452 -2.92383 -6.67936 1.61134 -3.22388 -5.7058 1.65906 -2.81872 
-7.16732 2.29167 -3.28019 -6.25933 2.39867 -3.00618 -5.21605 2.37583 -2.59287 
-7.72585 3.00063 -3.08791 -6.78808 3.23563 -3.00683 -5.80928 3.13484 -2.66909 
-4.66573 2.98269 -2.27222 -8.35962 3.71283 -2.8239 -7.30706 4.12016 -2.93659 
-6.36891 4.05546 -2.71437 -5.24176 3.73389 -2.34401 -3.98919 3.57476 -2.09464 
-8.8908 4.301 -2.48113 -7.74235 4.84522 -2.8224 -6.80373 4.96621 -2.7652 
-5.74414 4.68837 -2.46445 -4.4351 4.41837 -2.26679 -3.19006 4.3649 -2.20239 
-9.22996 4.73606 -1.90564 -8.05895 5.29197 -2.42341 -7.08411 5.55549 -2.58148 
-6.13551 5.4972 -2.4217 -4.86851 5.36403 -2.35265 -3.51869 5.30806 -2.41653 
-2.41087 5.24018 -2.37731 -9.447 5.15279 -1.16088 -8.33756 5.64109 -1.67093 
-7.3092 5.86127 -1.95755 -6.43057 5.88833 -1.96092 -5.31748 5.95979 -2.04481 
-3.94601 6.09982 -2.33038 -2.72378 6.09469 -2.4652 -1.76054 5.87085 -2.32008 
-9.09918 6.52343 -0.0645409 -8.52028 7.26555 0.427101 -8.09946 6.76116 -0.263225 
-7.73676 7.62211 0.936996 -7.48688 7.24684 0.298036 -7.06217 6.56942 -0.386933 
-6.64338 7.6494 1.4134 -6.59488 7.60602 0.702662 -6.32952 6.99715 0.111371 
-6.02995 6.40894 -0.563512 -5.35027 7.59449 1.77625 -5.41492 7.98485 1.00824 
-5.26302 7.699 0.323236 -5.05298 7.04971 -0.301801 -4.7951 6.63433 -1.04435 
-4.04469 7.51105 1.92174 -4.16703 8.25425 1.28183 -4.06811 8.4726 0.504627 
-3.87529 7.98388 -0.220123 -3.68314 7.32939 -0.911623 -3.44061 6.94468 -1.62053 
-2.75088 7.30145 1.948 -2.9296 8.14025 1.51835 -2.94177 8.76562 0.804337 
[...]
POINT_DATA 1002
FIELD FieldData 4
_paraPhi 1 1002 double
6.2831853072 3.1415926536 6.2831853072 3.1415926536 4.7123889804 4.7123889804 1.5707963268 1.5707963268 3.6951670125 
5.7296109483 2.5880182947 0.5535743589 6.2831853072 6.2831853072 6.2831853072 6.2831853072 3.1415926536 3.1415926536 
3.1415926536 3.1415926536 3.1415926536 6.1053039672 5.898798347 5.6768734901 5.4599499503 5.2659633393 5.1032165617 
4.9713148346 4.8656852733 4.7809517865 0.17788134 0.38438696014 0.60631181711 0.82323535693 1.0172219679 1.1799687454 
1.3118704726 1.4175000338 1.5022335207 6.1892828907 6.1070320098 6.035312792 5.9728339911 5.9183214791 5.8706119594 
5.8286879411 5.7916808611 5.7588591896 0.093902416448 0.17615329733 0.2478725152 0.31035131605 0.36486382811 0.41257334776 
0.45449736604 0.4915044461 0.52432611754 3.3194739936 3.5259796137 3.7479044707 3.9648280105 4.1588146215 4.321561399 
4.4534631262 4.5590926874 4.6438261743 2.9637113136 2.7572056934 2.5352808365 2.3183572967 2.1243706857 1.9616239082 
1.829722181 1.7240926197 1.6393591329 3.23549507 3.3177459509 3.3894651688 3.4519439696 3.5064564817 3.5541660013 
3.5960900196 3.6330970997 3.6659187711 3.0476902371 2.9654393563 2.8937201384 2.8312413375 2.7767288255 2.7290193058 
2.6870952876 2.6500882075 2.617266536 6.2831853072 6.2831853072 6.2831853072 6.2831853072 3.1415926536 3.1415926536 
3.1415926536 3.1415926536 3.1415926536 6.1053039672 5.898798347 5.6768734901 5.4599499503 5.2659633393 5.1032165617 
4.9713148346 4.8656852733 4.7809517865 0.17788134 0.38438696014 0.60631181711 0.82323535693 1.0172219679 1.1799687454 
1.3118704726 1.4175000338 1.5022335207 6.1892828907 6.1070320098 6.035312792 5.9728339911 5.9183214791 5.8706119594 
5.8286879411 5.7916808611 5.7588591896 0.093902416448 0.17615329733 0.2478725152 0.31035131605 0.36486382811 0.41257334776 
0.45449736604 0.4915044461 0.52432611754 3.3194739936 3.5259796137 3.7479044707 3.9648280105 4.1588146215 4.321561399 
4.4534631262 4.5590926874 4.6438261743 2.9637113136 2.7572056934 2.5352808365 2.3183572967 2.1243706857 1.9616239082 
1.829722181 1.7240926197 1.6393591329 3.23549507 3.3177459509 3.3894651688 3.4519439696 3.5064564817 3.5541660013 
3.5960900196 3.6330970997 3.6659187711 3.0476902371 2.9654393563 2.8937201384 2.8312413375 2.7767288255 2.7290193058 
2.6870952876 2.6500882075 2.617266536 4.7123889804 4.7123889804 4.7123889804 4.7123889804 4.7123889804 4.7123889804 
4.7123889804 4.7123889804 4.7123889804 4.6087898617 4.4991390697 4.3857031936 4.2712800401 4.1588146215 4.0509635631 
3.94975894 3.8564636551 3.7716124825 4.8159880991 4.9256388911 5.0390747672 5.1534979207 5.2659633393 5.3738143976 
5.4750190208 5.5683143056 5.6531654782 4.6087898617 4.4991390697 4.3857031936 4.2712800401 4.1588146215 4.0509635631 
3.94975894 3.8564636551 3.7716124825 4.8159880991 4.9256388911 5.0390747672 5.1534979207 5.2659633393 5.3738143976 
5.4750190208 5.5683143056 5.6531654782 1.5707963268 1.5707963268 1.5707963268 1.5707963268 1.5707963268 1.5707963268 
1.5707963268 1.5707963268 1.5707963268 1.6743954455 1.7840462375 1.8974821136 2.0119052671 2.1243706857 2.232221744 
2.3334263672 2.426721652 2.5115728246 1.4671972081 1.3575464161 1.24411054 1.1296873865 1.0172219679 0.90937090954 
0.80816628637 0.71487100155 0.63001982895 1.6743954455 1.7840462375 1.8974821136 2.0119052671 2.1243706857 2.232221744 
2.3334263672 2.426721652 2.5115728246 1.4671972081 1.3575464161 1.24411054 1.1296873865 1.0172219679 0.90937090954 
0.80816628637 0.71487100155 0.63001982895 3.6007720849 3.4966939854 3.3839471039 3.2645756454 3.1415926536 3.0186096618 
2.8992382033 2.7864913217 2.6824132222 5.8240058758 5.9280839753 6.0408308569 6.1602023154 6.2831853072 0.12298299178 
0.2423544503 0.35510133185 0.45917943135 6.0560271438 5.7885595667 5.9702140275 5.5125918794 5.6029703303 5.7885595667 
5.2659633393 5.2659633393 5.2659633393 5.2659633393 5.0674903122 5.0120975802 4.9155579264 4.7123889804 4.1588146215 
4.9155579264 4.8353719722 4.7123889804 4.5092200343 4.1588146215 3.6362183941 4.8004512023 4.7123889804 4.5894059886 
4.4126803806 4.1588146215 3.8218076305 3.4545639333 4.7123889804 4.6243267584 4.5092200343 4.3572876485 4.1588146215 
3.9121860814 3.6362183941 3.368750817 6.0174235957 5.9434319871 5.8263323547 5.8809213739 5.7674481418 5.6279784266 
5.8278025282 5.718968232 5.5891129425 5.4372443565 5.7823484065 5.678536687 5.5575666702 5.4192596322 5.2659633393 
5.743164462 5.6444075337 5.5314983644 5.4046708639 5.2659633393 5.1195510325 5.7091357773 5.6152775188 5.5096229709 
5.3926039573 5.2659633393 5.1329233157 4.9978930058 5.6793730533 5.5901633916 5.4910209005 5.3824597928 5.2659633393 
5.1440684722 5.0201624502 4.8979782167 5.5683143056 5.4750190208 5.4750190208 5.3738143976 5.3738143976 5.3738143976 
5.2659633393 5.2659633393 5.2659633393 5.2659633393 5.1534979207 5.1534979207 5.1534979207 5.1534979207 5.1534979207 
5.0390747672 5.0390747672 5.0390747672 5.0390747672 5.0390747672 5.0390747672 4.9256388911 4.9256388911 4.9256388911 
4.9256388911 4.9256388911 4.9256388911 4.9256388911 4.8159880991 4.8159880991 4.8159880991 4.8159880991 4.8159880991 
4.8159880991 4.8159880991 4.8159880991 4.6087898617 4.6087898617 4.4991390697 4.6087898617 4.4991390697 4.3857031936 
4.6087898617 4.4991390697 4.3857031936 4.2712800401 4.6087898617 4.4991390697 4.3857031936 4.2712800401 4.1588146215 
4.6087898617 4.4991390697 4.3857031936 4.2712800401 4.1588146215 4.0509635631 4.6087898617 4.4991390697 4.3857031936 
4.2712800401 4.1588146215 4.0509635631 3.94975894 4.6087898617 4.4991390697 4.3857031936 4.2712800401 4.1588146215 
4.0509635631 3.94975894 3.8564636551 4.526799744 4.4046155105 4.426884955 4.2807094886 4.2918546451 4.3052269283 
4.1588146215 4.1588146215 4.1588146215 4.1588146215 4.042318168 4.0321740035 4.0201070968 4.0055183285 3.9875336042 
3.9337570603 3.9151549899 3.8932795963 3.8672112905 3.8356650183 3.7967995342 3.8346145692 3.809500442 3.7803704271 
3.7462412737 3.7058097288 3.657329819 3.5984456061 3.7454049075 3.7156421835 3.6816134988 3.6424295543 3.5969754326 
3.5438565869 3.4813459737 3.4073543651 3.5642842451 3.4524645613 3.5233842518 3.3320300872 3.403123212 3.4773852225 
3.20576226 3.2746326772 3.348015857 3.4255060145 3.0774230472 3.1415926536 3.2112816139 3.2864685043 3.3668817272 
2.95115522 3.00855263 3.0719036933 3.1415926536 3.2178377658 3.3005964304 2.8307207459 2.8800620952 2.9351694502 
2.9967168029 3.0653475414 3.1415926536 3.225752376 2.718901062 2.7598010554 2.8058000847 2.8576792927 2.91630358 
2.9825888767 3.0574329311 3.1415926536 3.5642842451 3.5233842518 3.4524645613 3.4773852225 3.403123212 3.3320300872 
3.4255060145 3.348015857 3.2746326772 3.20576226 3.3668817272 3.2864685043 3.2112816139 3.1415926536 3.0774230472 
3.3005964304 3.2178377658 3.1415926536 3.0719036933 3.00855263 2.95115522 3.225752376 3.1415926536 3.0653475414 
2.9967168029 2.9351694502 2.8800620952 2.8307207459 3.1415926536 3.0574329311 2.9825888767 2.91630358 2.8576792927 
2.8058000847 2.7598010554 2.718901062 4.526799744 4.426884955 4.4046155105 4.3052269283 4.2918546451 4.2807094886 
4.1588146215 4.1588146215 4.1588146215 4.1588146215 3.9875336042 4.0055183285 4.0201070968 4.0321740035 4.042318168 
3.7967995342 3.8356650183 3.8672112905 3.8932795963 3.9151549899 3.9337570603 3.5984456061 3.657329819 3.7058097288 
3.7462412737 3.7803704271 3.809500442 3.8346145692 3.4073543651 3.4813459737 3.5438565869 3.5969754326 3.6424295543 
3.6816134988 3.7156421835 3.7454049075 4.7123889804 4.8004512023 4.6243267584 4.9155579264 4.7123889804 4.5092200343 
5.0674903122 4.8353719722 4.5894059886 4.3572876485 5.2659633393 5.0120975802 4.7123889804 4.4126803806 4.1588146215 
5.5125918794 5.2659633393 4.9155579264 4.5092200343 4.1588146215 3.9121860814 5.7885595667 5.6029703303 5.2659633393 
4.7123889804 4.1588146215 3.8218076305 3.6362183941 6.0560271438 5.9702140275 5.7885595667 5.2659633393 4.1588146215 
3.6362183941 3.4545639333 3.368750817 0.22715816343 0.49462574053 0.3129712797 0.77059342779 0.68021497688 0.49462574053 
1.0172219679 1.0172219679 1.0172219679 1.0172219679 1.2156949949 1.271087727 1.3676273807 1.5707963268 2.1243706857 
1.3676273807 1.447813335 1.5707963268 1.7739652728 2.1243706857 2.6469669131 1.4827341049 1.5707963268 1.6937793186 
1.8705049266 2.1243706857 2.4613776767 2.8286213739 1.5707963268 1.6588585487 1.7739652728 1.9258976586 2.1243706857 
2.3709992258 2.6469669131 2.9144344902 1.7563855631 1.8785697967 1.8563003522 2.0024758186 1.9913306621 1.9779583789 
2.1243706857 2.1243706857 2.1243706857 2.1243706857 2.2408671392 2.2510113037 2.2630782103 2.2776669786 2.295651703 
2.3494282469 2.3680303173 2.3899057108 2.4159740166 2.4475202889 2.486385773 2.448570738 2.4736848652 2.5028148801 
2.5369440334 2.5773755784 2.6258554882 2.6847397011 2.5377803997 2.5675431237 2.6015718084 2.6407557529 2.6862098746 
2.7393287203 2.8018393335 2.8758309421 1.6743954455 1.6743954455 1.7840462375 1.6743954455 1.7840462375 1.8974821136 
1.6743954455 1.7840462375 1.8974821136 2.0119052671 1.6743954455 1.7840462375 1.8974821136 2.0119052671 2.1243706857 
1.6743954455 1.7840462375 1.8974821136 2.0119052671 2.1243706857 2.232221744 1.6743954455 1.7840462375 1.8974821136 
2.0119052671 2.1243706857 2.232221744 2.3334263672 1.6743954455 1.7840462375 1.8974821136 2.0119052671 2.1243706857 
2.232221744 2.3334263672 2.426721652 1.4671972081 1.3575464161 1.4671972081 1.24411054 1.3575464161 1.4671972081 
1.1296873865 1.24411054 1.3575464161 1.4671972081 1.0172219679 1.1296873865 1.24411054 1.3575464161 1.4671972081 
0.90937090954 1.0172219679 1.1296873865 1.24411054 1.3575464161 1.4671972081 0.80816628637 0.90937090954 1.0172219679 
1.1296873865 1.24411054 1.3575464161 1.4671972081 0.71487100155 0.80816628637 0.90937090954 1.0172219679 1.1296873865 
1.24411054 1.3575464161 1.4671972081 0.60381225391 0.57404952988 0.69302191562 0.54002084522 0.66790778838 0.79216440667 
0.50083690068 0.63877777351 0.77356233629 0.90072551443 0.45538277901 0.60464862014 0.75168694275 0.89058134991 1.0172219679 
0.40226393329 0.56421707518 0.72561863695 0.87851444325 1.0172219679 1.139116835 0.33975332011 0.51573716537 0.69407236469 
0.86392567495 1.0172219679 1.1502619915 1.2630228569 0.26576171152 0.45685295248 0.6552068806 0.84594095064 1.0172219679 
1.1636342747 1.2852923014 1.3852070904 0.22715816343 0.3129712797 0.49462574053 0.49462574053 0.68021497688 0.77059342779 
1.0172219679 1.0172219679 1.0172219679 1.0172219679 2.1243706857 1.5707963268 1.3676273807 1.271087727 1.2156949949 
2.6469669131 2.1243706857 1.7739652728 1.5707963268 1.447813335 1.3676273807 2.8286213739 2.4613776767 2.1243706857 
1.8705049266 1.6937793186 1.5707963268 1.4827341049 2.9144344902 2.6469669131 2.3709992258 2.1243706857 1.9258976586 
1.7739652728 1.6588585487 1.5707963268 1.7563855631 1.8563003522 1.8785697967 1.9779583789 1.9913306621 2.0024758186 
2.1243706857 2.1243706857 2.1243706857 2.1243706857 2.295651703 2.2776669786 2.2630782103 2.2510113037 2.2408671392 
2.486385773 2.4475202889 2.4159740166 2.3899057108 2.3680303173 2.3494282469 2.6847397011 2.6258554882 2.5773755784 
2.5369440334 2.5028148801 2.4736848652 2.448570738 2.8758309421 2.8018393335 2.7393287203 2.6862098746 2.6407557529 
2.6015718084 2.5675431237 2.5377803997 5.8604937156 5.901393709 5.9723133995 5.9473927383 6.0216547488 6.0927478736 
5.9992719463 6.0767621038 6.1501452836 6.2190157008 6.0578962336 6.1383094565 6.2134963469 0 0.064169606361 
6.1241815303 6.206940195 6.2831853072 0.069688960264 0.13304002361 0.19043743361 6.1990255847 0 0.07624511221 
0.14487585072 0.20642320337 0.26153055843 0.3108719077 0 0.084159722458 0.15900377685 0.22528907359 0.28391336087 
0.3357925689 0.38179159818 0.42269159155 5.8604937156 5.9723133995 5.901393709 6.0927478736 6.0216547488 5.9473927383 
6.2190157008 6.1501452836 6.0767621038 5.9992719463 0.064169606361 0 6.2134963469 6.1383094565 6.0578962336 
0.19043743361 0.13304002361 0.069688960264 6.2831853072 6.206940195 6.1241815303 0.3108719077 0.26153055843 0.20642320337 
0.14487585072 0.07624511221 6.2831853072 6.1990255847 0.42269159155 0.38179159818 0.3357925689 0.28391336087 0.22528907359 
0.15900377685 0.084159722458 0 5.6793730533 5.7091357773 5.5901633916 5.743164462 5.6152775188 5.4910209005 
5.7823484065 5.6444075337 5.5096229709 5.3824597928 5.8278025282 5.678536687 5.5314983644 5.3926039573 5.2659633393 
5.8809213739 5.718968232 5.5575666702 5.4046708639 5.2659633393 5.1440684722 5.9434319871 5.7674481418 5.5891129425 
5.4192596322 5.2659633393 5.1329233157 5.0201624502 6.0174235957 5.8263323547 5.6279784266 5.4372443565 5.2659633393 
5.1195510325 4.9978930058 4.8979782167 1.3852070904 1.2852923014 1.2630228569 1.1636342747 1.1502619915 1.139116835 
1.0172219679 1.0172219679 1.0172219679 1.0172219679 0.84594095064 0.86392567495 0.87851444325 0.89058134991 0.90072551443 
0.6552068806 0.69407236469 0.72561863695 0.75168694275 0.77356233629 0.79216440667 0.45685295248 0.51573716537 0.56421707518 
0.60464862014 0.63877777351 0.66790778838 0.69302191562 0.26576171152 0.33975332011 0.40226393329 0.45538277901 0.50083690068 
0.54002084522 0.57404952988 0.60381225391 
_paraPhiHalf 1 1002 double
0 3.1415926536 0 3.1415926536 1.5707963268 1.5707963268 1.5707963268 1.5707963268 2.5880182947 
0.5535743589 2.5880182947 0.5535743589 0 0 0 0 3.1415926536 3.1415926536 
3.1415926536 3.1415926536 3.1415926536 0.17788134 0.38438696014 0.60631181711 0.82323535693 1.0172219679 1.1799687454 
1.3118704726 1.4175000338 1.5022335207 0.17788134 0.38438696014 0.60631181711 0.82323535693 1.0172219679 1.1799687454 
1.3118704726 1.4175000338 1.5022335207 0.093902416448 0.17615329733 0.2478725152 0.31035131605 0.36486382811 0.41257334776 
0.45449736604 0.4915044461 0.52432611754 0.093902416448 0.17615329733 0.2478725152 0.31035131605 0.36486382811 0.41257334776 
0.45449736604 0.4915044461 0.52432611754 2.9637113136 2.7572056934 2.5352808365 2.3183572967 2.1243706857 1.9616239082 
1.829722181 1.7240926197 1.6393591329 2.9637113136 2.7572056934 2.5352808365 2.3183572967 2.1243706857 1.9616239082 
1.829722181 1.7240926197 1.6393591329 3.0476902371 2.9654393563 2.8937201384 2.8312413375 2.7767288255 2.7290193058 
2.6870952876 2.6500882075 2.617266536 3.0476902371 2.9654393563 2.8937201384 2.8312413375 2.7767288255 2.7290193058 
2.6870952876 2.6500882075 2.617266536 0 0 0 0 3.1415926536 3.1415926536 
3.1415926536 3.1415926536 3.1415926536 0.17788134 0.38438696014 0.60631181711 0.82323535693 1.0172219679 1.1799687454 
1.3118704726 1.4175000338 1.5022335207 0.17788134 0.38438696014 0.60631181711 0.82323535693 1.0172219679 1.1799687454 
1.3118704726 1.4175000338 1.5022335207 0.093902416448 0.17615329733 0.2478725152 0.31035131605 0.36486382811 0.41257334776 
0.45449736604 0.4915044461 0.52432611754 0.093902416448 0.17615329733 0.2478725152 0.31035131605 0.36486382811 0.41257334776 
0.45449736604 0.4915044461 0.52432611754 2.9637113136 2.7572056934 2.5352808365 2.3183572967 2.1243706857 1.9616239082 
1.829722181 1.7240926197 1.6393591329 2.9637113136 2.7572056934 2.5352808365 2.3183572967 2.1243706857 1.9616239082 
1.829722181 1.7240926197 1.6393591329 3.0476902371 2.9654393563 2.8937201384 2.8312413375 2.7767288255 2.7290193058 
2.6870952876 2.6500882075 2.617266536 3.0476902371 2.9654393563 2.8937201384 2.8312413375 2.7767288255 2.7290193058 
2.6870952876 2.6500882075 2.617266536 1.5707963268 1.5707963268 1.5707963268 1.5707963268 1.5707963268 1.5707963268 
1.5707963268 1.5707963268 1.5707963268 1.6743954455 1.7840462375 1.8974821136 2.0119052671 2.1243706857 2.232221744 
2.3334263672 2.426721652 2.5115728246 1.4671972081 1.3575464161 1.24411054 1.1296873865 1.0172219679 0.90937090954 
0.80816628637 0.71487100155 0.63001982895 1.6743954455 1.7840462375 1.8974821136 2.0119052671 2.1243706857 2.232221744 
2.3334263672 2.426721652 2.5115728246 1.4671972081 1.3575464161 1.24411054 1.1296873865 1.0172219679 0.90937090954 
0.80816628637 0.71487100155 0.63001982895 1.5707963268 1.5707963268 1.5707963268 1.5707963268 1.5707963268 1.5707963268 
1.5707963268 1.5707963268 1.5707963268 1.6743954455 1.7840462375 1.8974821136 2.0119052671 2.1243706857 2.232221744 
2.3334263672 2.426721652 2.5115728246 1.4671972081 1.3575464161 1.24411054 1.1296873865 1.0172219679 0.90937090954 
0.80816628637 0.71487100155 0.63001982895 1.6743954455 1.7840462375 1.8974821136 2.0119052671 2.1243706857 2.232221744 
2.3334263672 2.426721652 2.5115728246 1.4671972081 1.3575464161 1.24411054 1.1296873865 1.0172219679 0.90937090954 
0.80816628637 0.71487100155 0.63001982895 2.6824132222 2.7864913217 2.8992382033 3.0186096618 3.1415926536 3.0186096618 
2.8992382033 2.7864913217 2.6824132222 0.45917943135 0.35510133185 0.2423544503 0.12298299178 0 0.12298299178 
0.2423544503 0.35510133185 0.45917943135 0.22715816343 0.49462574053 0.3129712797 0.77059342779 0.68021497688 0.49462574053 
1.0172219679 1.0172219679 1.0172219679 1.0172219679 1.2156949949 1.271087727 1.3676273807 1.5707963268 2.1243706857 
1.3676273807 1.447813335 1.5707963268 1.7739652728 2.1243706857 2.6469669131 1.4827341049 1.5707963268 1.6937793186 
1.8705049266 2.1243706857 2.4613776767 2.8286213739 1.5707963268 1.6588585487 1.7739652728 1.9258976586 2.1243706857 
2.3709992258 2.6469669131 2.9144344902 0.26576171152 0.33975332011 0.45685295248 0.40226393329 0.51573716537 0.6552068806 
0.45538277901 0.56421707518 0.69407236469 0.84594095064 0.50083690068 0.60464862014 0.72561863695 0.86392567495 1.0172219679 
0.54002084522 0.63877777351 0.75168694275 0.87851444325 1.0172219679 1.1636342747 0.57404952988 0.66790778838 0.77356233629 
0.89058134991 1.0172219679 1.1502619915 1.2852923014 0.60381225391 0.69302191562 0.79216440667 0.90072551443 1.0172219679 
1.139116835 1.2630228569 1.3852070904 0.71487100155 0.80816628637 0.80816628637 0.90937090954 0.90937090954 0.90937090954 
1.0172219679 1.0172219679 1.0172219679 1.0172219679 1.1296873865 1.1296873865 1.1296873865 1.1296873865 1.1296873865 
1.24411054 1.24411054 1.24411054 1.24411054 1.24411054 1.24411054 1.3575464161 1.3575464161 1.3575464161 
1.3575464161 1.3575464161 1.3575464161 1.3575464161 1.4671972081 1.4671972081 1.4671972081 1.4671972081 1.4671972081 
1.4671972081 1.4671972081 1.4671972081 1.6743954455 1.6743954455 1.7840462375 1.6743954455 1.7840462375 1.8974821136 
1.6743954455 1.7840462375 1.8974821136 2.0119052671 1.6743954455 1.7840462375 1.8974821136 2.0119052671 2.1243706857 
1.6743954455 1.7840462375 1.8974821136 2.0119052671 2.1243706857 2.232221744 1.6743954455 1.7840462375 1.8974821136 
2.0119052671 2.1243706857 2.232221744 2.3334263672 1.6743954455 1.7840462375 1.8974821136 2.0119052671 2.1243706857 
2.232221744 2.3334263672 2.426721652 1.7563855631 1.8785697967 1.8563003522 2.0024758186 1.9913306621 1.9779583789 
2.1243706857 2.1243706857 2.1243706857 2.1243706857 2.2408671392 2.2510113037 2.2630782103 2.2776669786 2.295651703 
2.3494282469 2.3680303173 2.3899057108 2.4159740166 2.4475202889 2.486385773 2.448570738 2.4736848652 2.5028148801 
2.5369440334 2.5773755784 2.6258554882 2.6847397011 2.5377803997 2.5675431237 2.6015718084 2.6407557529 2.6862098746 
2.7393287203 2.8018393335 2.8758309421 2.718901062 2.8307207459 2.7598010554 2.95115522 2.8800620952 2.8058000847 
3.0774230472 3.00855263 2.9351694502 2.8576792927 3.0774230472 3.1415926536 3.0719036933 2.9967168029 2.91630358 
2.95115522 3.00855263 3.0719036933 3.1415926536 3.0653475414 2.9825888767 2.8307207459 2.8800620952 2.9351694502 
2.9967168029 3.0653475414 3.1415926536 3.0574329311 2.718901062 2.7598010554 2.8058000847 2.8576792927 2.91630358 
2.9825888767 3.0574329311 3.1415926536 2.718901062 2.7598010554 2.8307207459 2.8058000847 2.8800620952 2.95115522 
2.8576792927 2.9351694502 3.00855263 3.0774230472 2.91630358 2.9967168029 3.0719036933 3.1415926536 3.0774230472 
2.9825888767 3.0653475414 3.1415926536 3.0719036933 3.00855263 2.95115522 3.0574329311 3.1415926536 3.0653475414 