# vtk DataFile Version 5.1
vtk output
ASCII
DATASET POLYDATA
POINTS 100 float
7.12293 32.8346 19.1498 7.14008 32.8489 19.1359 7.19015 32.8935 19.0998 
7.27264 32.9664 19.043 7.3867 33.0646 18.9677 7.531 33.184 18.8767 
7.7037 33.3204 18.773 7.90227 33.4693 18.6601 8.12356 33.627 18.5411 
8.36374 33.7904 18.4187 8.61847 33.9573 18.2955 8.88303 34.1266 18.173 
9.15263 34.2983 18.0523 9.42263 34.4732 17.9338 9.68896 34.6525 17.8172 
9.94835 34.838 17.702 10.1986 35.031 17.5872 10.4388 35.2325 17.4717 
10.6692 35.4427 17.3547 10.8916 35.6611 17.2352 11.1084 35.8862 17.113 
11.3232 36.116 16.9881 11.5399 36.3477 16.8609 11.7622 36.5782 16.7321 
11.9936 36.8046 16.603 12.2369 37.0243 16.4748 12.4938 37.2354 16.349 
12.765 37.4366 16.2267 13.0497 37.6277 16.109 13.3463 37.8093 15.9967 
13.652 37.983 15.89 13.9636 38.1507 15.7887 14.2776 38.3149 15.6924 
14.5903 38.4778 15.5999 14.8986 38.6417 15.5101 15.1998 38.8085 15.4214 
15.4923 38.9792 15.3322 15.7751 39.1546 15.2409 16.048 39.3344 15.1461 
16.3116 39.5182 15.0466 16.5672 39.7049 14.9414 16.8162 39.8936 14.8301 
17.0602 40.0829 14.7123 17.3008 40.2721 14.5883 17.5392 40.4604 14.4584 
17.7763 40.6474 14.3235 18.0129 40.8335 14.1845 18.2489 41.0188 14.0423 
18.4846 41.2042 13.8982 18.7195 41.3903 13.7533 18.9536 41.5781 13.6086 
19.1865 41.7682 13.465 19.4183 41.961 13.3235 19.6492 42.157 13.1846 
19.8793 42.3563 13.0489 20.1093 42.5586 12.9166 20.3397 42.7638 12.7882 
20.571 42.9717 12.6635 20.8038 43.1819 12.5426 21.0383 43.3942 12.4254 
21.2747 43.6086 12.3118 21.5128 43.8249 12.2016 21.7523 44.0431 12.0947 
21.9925 44.263 11.9912 22.233 44.4843 11.8909 22.4728 44.7067 11.7939 
22.7112 44.9293 11.7005 22.9475 45.1512 11.6108 23.181 45.3711 11.5251 
23.4109 45.5878 11.4437 23.6364 45.7998 11.367 23.8568 46.0057 11.2952 
24.0711 46.2045 11.2287 24.2781 46.3954 11.1674 24.4765 46.5779 11.1115 
24.6648 46.7521 11.0609 24.8415 46.9185 11.0153 25.0049 47.0778 10.9743 
25.1536 47.2309 10.9374 25.2866 47.3789 10.904 25.403 47.5224 10.8733 
25.5028 47.662 10.8447 25.5865 47.7976 10.8174 25.6552 47.9288 10.7907 
25.7108 48.0544 10.7641 25.7556 48.1732 10.7372 25.792 48.2833 10.7097 
25.8228 48.383 10.6815 25.8505 48.4708 10.6527 25.8772 48.5454 10.6237 
25.9045 48.6062 10.5947 25.9333 48.6532 10.5665 25.9635 48.6872 10.5395 
25.9947 48.7097 10.5146 26.0255 48.7229 10.4924 26.0544 48.729 10.4736 
26.0795 48.7307 10.4589 26.0991 48.7302 10.4486 26.1116 48.7294 10.4433 
26.1162 48.7296 10.4432 
LINES 2 100
OFFSETS vtktypeint64
0 100 
CONNECTIVITY vtktypeint64
0 1 2 3 4 5 6 7 8 
9 10 11 12 13 14 15 16 17 
18 19 20 21 22 23 24 25 26 
27 28 29 30 31 32 33 34 35 
36 37 38 39 40 41 42 43 44 
45 46 47 48 49 50 51 52 53 
54 55 56 57 58 59 60 61 62 
63 64 65 66 67 68 69 70 71 
72 73 74 75 76 77 78 79 80 
81 82 83 84 85 86 87 88 89 
90 91 92 93 94 95 96 97 98 
99 
POINT_DATA 100
FIELD FieldData 3
_theta 1 100 double
0 0.031733259127 0.063466518254 0.095199777382 0.12693303651 0.15866629564 0.19039955476 0.22213281389 0.25386607302 
0.28559933214 0.31733259127 0.3490658504 0.38079910953 0.41253236865 0.44426562778 0.47599888691 0.50773214603 0.53946540516 
0.57119866429 0.60293192342 0.63466518254 0.66639844167 0.6981317008 0.72986495992 0.76159821905 0.79333147818 0.82506473731 
0.85679799643 0.88853125556 0.92026451469 0.95199777382 0.98373103294 1.0154642921 1.0471975512 1.0789308103 1.1106640695 
1.1423973286 1.1741305877 1.2058638468 1.237597106 1.2693303651 1.3010636242 1.3327968833 1.3645301425 1.3962634016 
1.4279966607 1.4597299198 1.491463179 1.5231964381 1.5549296972 1.5866629564 1.6183962155 1.6501294746 1.6818627337 
1.7135959929 1.745329252 1.7770625111 1.8087957702 1.8405290294 1.8722622885 1.9039955476 1.9357288068 1.9674620659 
1.999195325 2.0309285841 2.0626618433 2.0943951024 2.1261283615 2.1578616206 2.1895948798 2.2213281389 2.253061398 
2.2847946572 2.3165279163 2.3482611754 2.3799944345 2.4117276937 2.4434609528 2.4751942119 2.506927471 2.5386607302 
2.5703939893 2.6021272484 2.6338605076 2.6655937667 2.6973270258 2.7290602849 2.7607935441 2.7925268032 2.8242600623 
2.8559933214 2.8877265806 2.9194598397 2.9511930988 2.982926358 3.0146596171 3.0463928762 3.0781261353 3.1098593945 
3.1415926536 
_radius 1 100 double
2.930988785e-14 0.28447768639 0.56626457639 0.84297407684 1.1129602306 1.3754429768 1.6304242499 1.878441995 2.1202512678 
2.3565291958 2.5876752985 2.8137374352 3.0344562429 3.2493964344 3.4581204302 3.6603565313 3.8561213773 4.0457737421 
4.2299969492 4.4097224137 4.5860139266 4.7599329817 4.9324030313 5.1040878925 5.2752980497 5.4459376934 5.6155027036 
5.7831334788 5.947716898 6.1080213884 6.2628410264 6.4111209952 6.5520393613 6.6850301699 6.809748787 6.9259968319 
7.0336339666 7.1325034539 7.2223894936 7.3030123854 7.3740576603 7.4352295362 7.4863166043 7.5272568045 7.5581886662 
7.5794769056 7.5917037976 7.5956236854 7.5920857551 7.5819379725 7.5659307106 7.5446404422 7.5184312323 7.4874649685 
7.4517616166 7.4113002612 7.3661426513 7.316555531 7.263107363 7.2067188864 7.1486537389 7.0904431668 7.0337465111 
6.980157033 6.9309718659 6.8869553505 6.84813368 6.8136604838 6.7817841449 6.7499295915 6.7148856492 6.6730700747 
6.6208324331 6.5547520759 6.4718947683 6.3700047185 6.2476241302 6.1041445769 5.9398003522 5.7556139208 5.5533002307 
5.3351322593 5.1037660125 4.8620209741 4.6126150505 4.3578650125 4.0993846415 3.8378368794 3.5728102981 3.3028797565 
3.0258702634 2.7392831642 2.4407914858 2.1286925688 1.8022281892 1.4617303774 1.108601053 0.74516732265 0.37446561191 
3.3347020969e-14 
_area 1 100 double
0 0.24522404967 0.97201285614 2.1563467224 3.7657613447 5.7670031082 8.1310763132 10.833507 13.850356341 
17.152936571 20.704706365 24.462240643 28.379781479 32.415220884 36.535106875 40.717112833 44.949748631 49.230405554 
53.563479603 57.959598374 62.43520703 67.010692302 71.706123441 76.535742472 81.503639077 86.602628672 91.816742115 
97.126132872 102.51274541 107.96927491 113.50527793 119.11933727 124.80030378 130.39707366 135.92673738 141.31478909 
146.55770413 151.60512854 156.34570622 160.76512753 164.78468616 168.24459727 171.0444556 173.12548795 174.47517555 
175.09655006 175.03205463 174.39097074 173.32595096 172.00980387 170.6352591 169.37804527 168.1857388 166.97349058 
165.66935328 164.22178959 162.59224026 160.6959928 158.45216651 155.84270816 152.90093961 149.70413421 146.37279815 
143.05927433 139.93064617 137.41067186 135.7267723 134.57807804 133.63639103 132.71246172 131.66955943 130.37948843 
128.71050936 126.5306788 123.72127577 120.19262589 115.89588053 110.82900442 105.03780803 98.612828179 91.682179278 
84.400398164 76.934070487 69.446212667 62.082131094 54.959225068 48.162138264 41.743342408 35.728034798 30.121713591 
24.919546161 20.117511655 15.723947062 11.767311414 8.2957984147 5.3683258168 3.0411912637 1.3568484341 0.33977522429 
3.4106051316e-13 
