# vtk DataFile Version 5.1
vtk output
ASCII
DATASET POLYDATA
POINTS 100 float
29.7743 40.7909 13.1515 29.7597 40.792 13.1577 29.715 40.7901 13.1739 
29.6423 40.7845 13.1996 29.5453 40.7735 13.2337 29.4285 40.7556 13.2751 
29.2968 40.7288 13.3223 29.1548 40.6916 13.3739 29.0066 40.6426 13.4283 
28.8556 40.5812 13.4844 28.7034 40.5072 13.5407 28.5509 40.4213 13.5963 
28.3973 40.3245 13.6502 28.2413 40.2185 13.7014 28.0807 40.1052 13.7491 
27.9131 39.9864 13.7925 27.7366 39.864 13.8307 27.5497 39.7395 13.8628 
27.3517 39.6137 13.8881 27.1431 39.4872 13.9058 26.9251 39.3597 13.9156 
26.6999 39.2309 13.9172 26.4701 39.0997 13.911 26.2386 38.9654 13.8976 
26.008 38.8269 13.8782 25.7804 38.6837 13.8543 25.557 38.5355 13.8278 
25.3384 38.3826 13.8006 25.1239 38.2258 13.7746 24.912 38.0664 13.7515 
24.7007 37.906 13.7325 24.4876 37.7465 13.7183 24.2702 37.5897 13.7088 
24.0464 37.4375 13.7037 23.8146 37.2912 13.7017 23.5741 37.152 13.7016 
23.3247 37.0203 13.7018 23.0672 36.8962 13.701 22.8028 36.7794 13.6983 
22.5333 36.669 13.6934 22.2604 36.564 13.6866 21.9857 36.4635 13.6794 
21.7104 36.3664 13.6734 21.4353 36.2719 13.6714 21.1604 36.1792 13.6758 
20.8854 36.0881 13.6896 20.6094 35.9982 13.7147 20.3314 35.9098 13.7529 
20.0503 35.8227 13.8047 19.7653 35.7371 13.8693 19.476 35.653 13.9452 
19.1823 35.5702 14.0297 18.8847 35.4883 14.1192 18.5843 35.407 14.2099 
18.2821 35.3255 14.298 17.9795 35.2434 14.3801 17.6777 35.16 14.4537 
17.3773 35.0751 14.5175 17.0786 34.9886 14.5715 16.7813 34.9008 14.6169 
16.4845 34.8123 14.6563 16.1868 34.724 14.6931 15.8867 34.6371 14.7312 
15.5825 34.5526 14.7747 15.2728 34.4718 14.827 14.9568 34.3956 14.8909 
14.6345 34.3244 14.9679 14.3066 34.2582 15.0583 13.9744 34.1967 15.1609 
13.6404 34.1388 15.2732 13.307 34.0829 15.3918 12.9773 34.0273 15.5128 
12.654 33.9699 15.632 12.3393 33.9088 15.7454 12.0348 33.8422 15.8498 
11.7412 33.7688 15.943 11.4584 33.6878 16.0238 11.1851 33.5992 16.0921 
10.9197 33.5035 16.1488 10.6601 33.4021 16.1958 10.4039 33.2969 16.2352 
10.1494 33.1902 16.2691 9.8953 33.0846 16.2997 9.64111 32.9827 16.3285 
9.38745 32.8869 16.3563 9.13588 32.7996 16.3833 8.88886 32.7222 16.4088 
8.64947 32.6561 16.4318 8.42116 32.6015 16.451 8.20735 32.5584 16.465 
8.01115 32.5262 16.473 7.83507 32.5037 16.4743 7.68081 32.4894 16.4692 
7.54923 32.4816 16.4586 7.44036 32.4785 16.444 7.35359 32.4783 16.4275 
7.28785 32.4795 16.4112 7.24192 32.4809 16.3974 7.2147 32.4813 16.3877 
7.20544 32.4802 16.3834 
LINES 2 100
OFFSETS vtktypeint64
0 100 
CONNECTIVITY vtktypeint64
0 1 2 3 4 5 6 7 8 
9 10 11 12 13 14 15 16 17 
18 19 20 21 22 23 24 25 26 
27 28 29 30 31 32 33 34 35 
36 37 38 39 40 41 42 43 44 
45 46 47 48 49 50 51 52 53 
54 55 56 57 58 59 60 61 62 
63 64 65 66 67 68 69 70 71 
72 73 74 75 76 77 78 79 80 
81 82 83 84 85 86 87 88 89 
90 91 92 93 94 95 96 97 98 
99 
POINT_DATA 100
FIELD FieldData 3
_theta 1 100 double
0 0.031733259127 0.063466518254 0.095199777382 0.12693303651 0.15866629564 0.19039955476 0.22213281389 0.25386607302 
0.28559933214 0.31733259127 0.3490658504 0.38079910953 0.41253236865 0.44426562778 0.47599888691 0.50773214603 0.53946540516 
0.57119866429 0.60293192342 0.63466518254 0.66639844167 0.6981317008 0.72986495992 0.76159821905 0.79333147818 0.82506473731 
0.85679799643 0.88853125556 0.92026451469 0.95199777382 0.98373103294 1.0154642921 1.0471975512 1.0789308103 1.1106640695 
1.1423973286 1.1741305877 1.2058638468 1.237597106 1.2693303651 1.3010636242 1.3327968833 1.3645301425 1.3962634016 
1.4279966607 1.4597299198 1.491463179 1.5231964381 1.5549296972 1.5866629564 1.6183962155 1.6501294746 1.6818627337 
1.7135959929 1.745329252 1.7770625111 1.8087957702 1.8405290294 1.8722622885 1.9039955476 1.9357288068 1.9674620659 
1.999195325 2.0309285841 2.0626618433 2.0943951024 2.1261283615 2.1578616206 2.1895948798 2.2213281389 2.253061398 
2.2847946572 2.3165279163 2.3482611754 2.3799944345 2.4117276937 2.4434609528 2.4751942119 2.506927471 2.5386607302 
2.5703939893 2.6021272484 2.6338605076 2.6655937667 2.6973270258 2.7290602849 2.7607935441 2.7925268032 2.8242600623 
2.8559933214 2.8877265806 2.9194598397 2.9511930988 2.982926358 3.0146596171 3.0463928762 3.0781261353 3.1098593945 
3.1415926536 
_radius 1 100 double
8.2653103022e-14 0.23875762092 0.47829045536 0.71906704466 0.96119562062 1.2043229808 1.4476119485 1.6897974082 1.9293011932 
2.1643749301 2.3932414999 2.6142162783 2.8258013948 3.0267543454 3.2161349699 3.3933340152 3.5580852828 3.7104636212 
3.8508724427 3.9800249864 4.0989213398 4.208818508 4.3111865268 4.4076437091 4.4998704287 4.5895104616 4.6780751473 
4.7668632851 4.8569004182 4.9488926199 5.0431886744 5.1397506778 5.2381411769 5.3375391938 5.4367951047 5.5345262218 
5.6292444941 5.7194991095 5.8040128417 5.8817922816 5.9521973535 6.0149631799 6.0701762175 6.1182148473 6.1596690477 
6.1952513631 6.2257028193 6.25168882 6.2736792918 6.2918180083 6.3058035476 6.3148179469 6.3175387382 6.3122534475 
6.2970696297 6.2701885678 6.230194695 6.1763086431 6.1085591794 6.0278456951 5.935884367 5.8350526905 5.7281638396 
5.6182102369 5.5081125276 5.4004965095 5.2975016365 5.2006103871 5.1104887973 5.0268485504 4.9483700568 4.8727425567 
4.7968632566 4.7171940578 4.6302231828 4.5329454879 4.4232715009 4.3002964613 4.164393838 4.0171307976 3.8610288092 
3.6992087277 3.5349671472 3.3713317389 3.2106401922 3.0541829512 2.9019467978 2.7524953837 2.6030202739 2.449583418 
2.2875427607 2.1121121698 1.9189724854 1.7048392113 1.4679070618 1.2081212713 0.92725661239 0.62880965691 0.3177266312 
4.1156157941e-14 
_area 1 100 double
0 0.17290696275 0.69650301234 1.5835512376 2.8495965041 4.5060711648 6.5537809636 8.9788368461 11.751989673 
14.830772077 18.162818826 21.688873626 25.345106532 29.065494374 32.785185154 36.44487742 39.995120485 43.399046731 
46.632721648 49.683541867 52.548011486 55.230216632 57.741606289 60.101894786 62.34038476 64.496775371 66.62063892 
68.769194695 71.003233347 73.380803577 75.948549404 78.7322846 81.7302834 84.912178815 88.221183925 91.569027168 
94.894257832 98.010836413 100.78397628 103.21552974 105.38320751 107.45762509 109.53053719 111.49870001 113.31080841 
114.9455308 116.39312807 117.64872572 118.70610586 119.55352989 120.17101145 120.52694712 120.57503993 120.25483794 
119.49832878 118.24248044 116.44524298 114.10076358 111.24865191 107.97339251 104.39250098 100.63539229 96.821886766 
93.0463479 89.369228106 85.820283367 82.412243303 79.156667367 76.072054651 73.178919279 70.483801257 67.960834859 
65.54260458 63.128359212 60.607402107 57.886427564 54.910422077 51.673104473 48.216994308 44.62460061 41.0028667 
37.463744968 34.104549506 30.992083932 28.154008816 25.579242965 23.226304683 21.035482592 18.940409898 16.8776458 
14.795598411 12.663875647 10.482091687 8.2855580936 6.1452960835 4.1612376991 2.4494051629 1.125378126 0.28709184345 
0 
