# vtk DataFile Version 5.1
vtk output
ASCII
DATASET POLYDATA
POINTS 1002 float
13.4802 34.9347 9.00406 20.1052 43.1396 6.58843 12.6474 39.9465 16.9253 
20.2551 45.4735 12.9598 12.5387 43.9686 6.97382 11.3002 46.3484 12.6142 
21.8546 36.0096 11.7435 21.7583 38.9666 17.6032 19.0968 51.1576 7.53556 
6.97013 36.964 13.1681 25.8292 45.2633 10.6502 13.6948 32.8324 16.1028 
14.2313 35.542 8.72549 14.996 36.1528 8.3717 15.7791 36.79 7.99204 
16.5933 37.5588 7.63522 17.3621 38.503 7.33028 17.986 39.5282 7.11016 
18.5094 40.534 6.96853 19.047 41.4907 6.84325 19.6045 42.3723 6.70522 
13.0643 35.4411 8.73353 12.7767 36.0755 8.48829 12.6456 36.8422 8.30481 
12.5513 37.7259 8.11246 12.3601 38.6958 7.80638 12.1548 39.7093 7.43886 
12.1236 40.749 7.18091 12.2691 41.8282 7.08217 12.439 42.926 7.04174 
14.4543 34.8406 9.10628 15.5244 34.7147 9.15621 16.6404 34.5421 9.17477 
17.7932 34.3526 9.26483 18.8952 34.2769 9.51581 19.7531 34.4553 9.93551 
20.323 34.8422 10.4722 20.7942 35.2628 11.022 21.3154 35.6394 11.462 
12.4212 34.5969 9.07153 11.3088 34.2597 9.18726 10.2543 34.0402 9.50182 
9.37538 34.0254 10.1039 8.65915 34.2099 10.8601 7.99102 34.56 11.5194 
7.39855 35.0666 11.9864 7.04074 35.6895 12.3583 6.94251 36.3439 12.7443 
13.3158 34.2926 9.31197 13.1966 33.7072 9.64719 13.1298 33.2566 10.1291 
13.0762 32.9829 10.9079 13.008 32.8969 11.9386 12.9655 32.9612 12.9515 
13.011 33.0453 13.7928 13.1637 33.0193 14.5706 13.4038 32.9038 15.3728 
19.4756 43.2448 6.37384 18.7715 43.3333 6.12386 17.9975 43.4036 5.80491 
17.1023 43.4603 5.53979 16.0777 43.5018 5.49241 15.0645 43.5461 5.64183 
14.23 43.6385 5.87014 13.5876 43.7813 6.16425 13.0436 43.9101 6.54779 
20.4023 42.5584 6.90667 20.6721 41.9158 7.32428 20.872 41.229 7.85422 
20.9889 40.4919 8.45366 21.0842 39.6736 9.04539 21.2344 38.7731 9.58687 
21.4325 37.8723 10.109 21.616 37.0892 10.657 21.7538 36.4784 11.2176 
20.1814 43.9341 6.35466 20.2091 44.7859 6.13247 20.1874 45.7351 5.96407 
20.135 46.8084 5.89426 20.0861 47.9558 5.92086 20.0637 49.0642 5.99841 
20.0172 50.0129 6.13807 19.8423 50.6981 6.43264 19.5075 51.0687 6.92613 
20.741 43.507 6.73144 21.3547 43.8655 7.03408 21.9725 44.218 7.46029 
22.6253 44.5873 7.88388 23.2618 44.9624 8.28541 23.8385 45.2639 8.78048 
24.4135 45.419 9.35515 25.004 45.4367 9.84889 25.5053 45.3707 10.2333 
13.2604 40.6117 16.6983 13.8143 41.2382 16.412 14.402 41.8291 16.0007 
15.1467 42.3854 15.4989 16.0192 42.9106 15.0204 16.8818 43.4531 14.5952 
17.7078 44.0466 14.169 18.5692 44.6247 13.7343 19.4544 45.1 13.3261 
12.283 40.6815 16.9291 11.8664 41.4689 16.9268 11.5228 42.2413 16.786 
11.3191 43.0344 16.4539 11.1672 43.9495 16.05 10.9809 44.8955 15.64 
10.8499 45.5791 15.0875 10.9012 45.8936 14.3045 11.0985 46.0635 13.4202 
13.3415 39.6611 16.7808 14.0234 39.3365 16.5712 14.8496 38.9928 16.3278 
16.0001 38.6741 16.1651 17.3838 38.4261 16.1523 18.6611 38.3037 16.2407 
19.6389 38.3651 16.4468 20.4124 38.5821 16.8473 21.1154 38.8207 17.3242 
11.7181 39.6259 17.1113 10.6795 39.1753 17.2097 9.72729 38.6571 17.1327 
8.98614 38.1983 16.8444 8.37255 37.8707 16.4535 7.78588 37.6123 16.0666 
7.30498 37.3535 15.5818 7.03249 37.1319 14.8579 6.94314 37.0065 13.9793 
12.3952 39.0647 17.1348 12.0782 38.1596 17.4549 11.7796 37.2818 17.7448 
11.5704 36.3689 17.8254 11.4934 35.329 17.7294 11.6151 34.2713 17.6443 
11.9858 33.4664 17.5648 12.54 33.0353 17.2921 13.1401 32.872 16.7585 
19.3679 45.6061 12.7872 18.4724 45.891 12.7248 17.5063 46.2329 12.7715 
16.4164 46.3873 12.7931 15.3085 46.3148 12.6761 14.3351 46.2965 12.5331 
13.4979 46.4685 12.5552 12.7142 46.6172 12.7017 11.9663 46.5593 12.7584 
20.6947 45.1302 13.3665 21.1146 44.5988 13.7108 21.4336 43.8934 14.0274 
21.5679 43.229 14.4514 21.5163 42.7292 15.0343 21.4108 42.1754 15.6639 
21.3979 41.3541 16.2343 21.4972 40.4132 16.7453 21.6367 39.6046 17.2111 
20.392 45.868 12.4429 20.4646 46.3686 11.8975 20.5434 47.073 11.4224 
20.6502 47.8889 11.0239 20.6761 48.6447 10.5991 20.4918 49.3481 10.0743 
20.1189 50.0745 9.48438 19.7014 50.7117 8.87179 19.3534 51.0805 8.22327 
21.2685 45.6928 12.9064 22.2064 45.9963 12.9063 22.9833 46.3221 12.9542 
23.7713 46.648 13.0734 24.727 46.9755 13.1888 25.6069 47.1764 13.0478 
26.0626 47.0337 12.4923 26.1169 46.5198 11.7125 26.0019 45.8531 11.0452 
12.2395 44.5831 7.17672 11.9133 45.1354 7.42066 11.6571 45.5948 7.82422 
11.482 45.9983 8.41838 11.2799 46.383 9.06618 11.0215 46.6828 9.67846 
10.8449 46.7762 10.3481 10.8621 46.6601 11.1347 11.0425 46.4753 11.934 
12.9216 44.9763 6.61673 13.3541 45.9741 6.25897 13.8529 46.9165 5.93348 
14.417 47.8984 5.64948 15.0525 48.9567 5.4194 15.7917 49.8687 5.36682 
16.6284 50.4366 5.66029 17.489 50.7615 6.26868 18.314 51.0037 6.95776 
11.9951 43.3368 7.49616 11.4285 42.6754 8.08439 10.8285 42.001 8.70088 
10.1529 41.2319 9.34904 9.40312 40.3561 10.0412 8.6662 39.5321 10.7237 
8.03316 38.8554 11.3258 7.53959 38.2296 11.8757 7.18975 37.5785 12.474 
11.7921 47.0166 12.0692 12.2017 47.8646 11.6263 12.7542 48.5726 11.1822 
13.7432 48.9333 10.5733 15.0498 49.1764 9.82724 16.1505 49.6172 9.16882 
16.8289 50.1954 8.69906 17.4126 50.6827 8.30359 18.1954 51.0002 7.89805 
10.5378 45.8787 12.8306 9.76802 45.4091 13.0293 9.19614 44.7644 13.1929 
8.89042 43.7337 13.3075 8.62681 42.4261 13.3622 8.18309 41.1815 13.3437 
7.66367 40.0998 13.2652 7.29505 39.0424 13.1858 7.10562 37.9678 13.1563 
22.2055 36.0138 12.2023 22.4304 36.0989 12.7726 22.5038 36.2795 13.5717 
22.5696 36.5011 14.5788 22.749 36.7003 15.5812 22.9261 36.946 16.4086 
22.8967 37.3823 17.0721 22.6201 37.9879 17.5586 22.2028 38.5646 17.7479 
22.3609 36.7229 11.6036 22.9644 37.5297 11.3815 23.6188 38.2883 11.1354 
24.1859 39.0034 10.9724 24.5784 39.9472 10.9526 24.8928 41.2254 10.9938 
25.2344 42.501 10.965 25.54 43.5009 10.8503 25.7261 44.3553 10.7273 
21.6282 35.3458 12.1164 21.4126 34.6312 12.5194 21.1441 33.8643 13.0054 
20.6799 33.2118 13.5872 19.8899 32.9087 14.1733 18.7755 32.9197 14.6569 
17.4777 32.9631 15.0309 16.1553 32.9074 15.3602 14.887 32.8399 15.7073 
22.2867 39.4763 17.3371 22.8784 40.1261 16.7311 23.6329 40.8466 16.003 
24.5002 41.4356 15.4669 25.2571 41.8043 15.0449 25.7368 42.1698 14.3274 
25.9647 42.7838 13.2289 26.0289 43.6211 12.1064 25.9744 44.4916 11.2491 
21.4231 38.3168 17.8478 20.8923 37.5277 18.0356 20.1839 36.494 18.1531 
19.4196 35.4569 18.0972 18.6772 34.7956 17.7615 17.9021 34.4295 17.2658 
16.992 33.963 16.8769 15.9208 33.3666 16.6549 14.776 32.9424 16.4345 
20.1464 51.1737 7.67036 21.1523 50.928 7.88354 22.0363 50.3464 8.20062 
22.9262 49.6167 8.52479 23.955 49.0868 8.74298 24.9374 48.78 8.937 
25.546 48.3171 9.28194 25.7508 47.4568 9.77248 25.7879 46.3508 10.2577 
6.74097 36.0393 13.676 6.39329 35.1703 14.2453 6.01162 34.3602 14.8342 
5.95877 33.6013 15.4233 6.60107 33.0502 15.9542 7.87025 32.8886 16.2851 
9.3724 32.9794 16.3448 10.8597 33.0127 16.247 12.3069 32.9141 16.1481 
13.8149 36.1301 8.41374 13.5076 36.8354 8.13372 14.5663 36.8054 8.0224 
13.3357 37.6602 7.90437 14.2293 37.5889 7.71153 15.3832 37.5199 7.60563 
13.1785 38.5927 7.62641 14.0235 38.5068 7.44909 15.0735 38.4038 7.26955 
16.2841 38.3852 7.21715 12.9499 39.5927 7.22833 13.8422 39.5221 7.14015 
14.8701 39.4299 7.00804 16.0328 39.3587 6.87762 17.1166 39.405 6.91968 
12.7785 40.6219 6.83939 13.6303 40.5672 6.7482 14.6646 40.5236 6.72543 
15.8153 40.4515 6.62645 16.8935 40.4212 6.59598 17.7667 40.4697 6.74609 
12.7959 41.6933 6.62703 13.4991 41.619 6.40581 14.4314 41.597 6.37135 
15.5484 41.5649 6.33111 16.6539 41.5123 6.29752 17.5709 41.488 6.41272 
18.3311 41.4925 6.63457 12.9299 42.8122 6.57121 13.512 42.699 6.226 
14.2736 42.6298 6.05362 15.2641 42.6001 5.95631 16.3623 42.5651 5.90678 
17.3559 42.5172 6.01352 18.1787 42.4744 6.26201 18.913 42.4294 6.50801 
12.0244 35.1328 8.83655 10.9546 34.8767 9.03905 11.8282 35.8652 8.67122 
9.99511 34.8242 9.4718 10.8327 35.7836 8.9744 11.7733 36.7793 8.5564 
9.27787 35.0051 10.1489 9.96256 35.928 9.46846 10.822 36.8779 8.90681 
11.6819 37.8085 8.37985 8.71499 35.319 10.8792 9.35106 36.1985 10.1157 
10.0375 37.106 9.39135 10.8066 38.0126 8.7608 11.5297 38.8894 8.10697 
8.1363 35.7317 11.4457 8.83821 36.5015 10.755 9.50336 37.3354 9.97509 
10.1813 38.2429 9.2636 10.8559 39.1603 8.58672 11.4988 39.994 7.86033 
7.60993 36.2862 11.8202 8.27421 36.9386 11.2429 8.99059 37.6449 10.5444 
9.71892 38.4965 9.81507 10.409 39.4587 9.13446 11.0433 40.3539 8.44114 
11.6573 41.1207 7.7205 7.29899 36.9394 12.1257 7.79641 37.562 11.5788 
8.43756 38.1859 10.9927 9.18636 38.9305 10.3182 9.95385 39.8482 9.62283 
10.6504 40.7688 8.95361 11.2707 41.5538 8.28363 11.8629 42.2534 7.62267 
7.36665 38.6749 12.4244 7.66471 39.7737 12.4236 7.77132 39.3766 11.7707 
8.10719 40.8272 12.4653 8.13932 40.4898 11.6888 8.28817 40.0736 11.1456 
8.55739 41.9769 12.5068 8.579 41.5694 11.6492 8.65849 41.2605 10.9706 
8.91868 40.8717 10.4621 8.87614 43.2917 12.4909 8.97279 42.7612 11.6518 
9.09751 42.3862 10.8911 9.28349 42.1272 10.2348 9.65729 41.7468 9.71873 
9.17589 44.4803 12.3725 9.3269 44.0161 11.5984 9.56035 43.5446 10.8919 
9.77112 43.235 10.1662 10.0211 42.9584 9.47821 10.405 42.5344 8.99846 
9.67098 45.2919 12.1823 9.76675 45.0723 11.4074 10.0283 44.7137 10.7776 
10.3064 44.3411 10.1396 10.5044 44.0306 9.39289 10.73 43.6837 8.73886 
11.0689 43.218 8.34333 10.3517 45.8812 12.0188 10.3134 45.8978 11.1966 
10.4685 45.7943 10.5164 10.745 45.5204 9.94168 10.9731 45.1689 9.28925 
11.1245 44.8095 8.58245 11.3404 44.4028 8.04695 11.6654 43.9036 7.73501 
12.6095 45.663 6.79525 12.2938 46.2524 7.08022 13.0607 46.7114 6.44619 
12.0324 46.7391 7.56102 12.7662 47.3195 6.80866 13.5963 47.6745 6.18097 
11.7751 47.1796 8.19773 12.469 47.8015 7.38996 13.3458 48.2359 6.66977 
14.2084 48.6084 6.00459 11.4707 47.5653 8.89889 12.122 48.2124 8.13916 
13.0834 48.6005 7.41109 14.0774 48.988 6.66942 14.9204 49.4734 5.94308 
11.2383 47.7605 9.68677 11.7939 48.5206 9.03528 12.7913 48.8615 8.35407 
14.0022 49.1036 7.60493 14.9688 49.5694 6.82502 15.7376 50.1081 6.13354 
[...]
POINT_DATA 1002
FIELD FieldData 4
_paraPhi 1 1002 double
6.2831853072 3.1415926536 6.2831853072 3.1415926536 4.7123889804 4.7123889804 1.5707963268 1.5707963268 3.6951670125 
5.7296109483 2.5880182947 0.5535743589 6.2831853072 6.2831853072 6.2831853072 6.2831853072 3.1415926536 3.1415926536 
3.1415926536 3.1415926536 3.1415926536 6.1053039672 5.898798347 5.6768734901 5.4599499503 5.2659633393 5.1032165617 
4.9713148346 4.8656852733 4.7809517865 0.17788134 0.38438696014 0.60631181711 0.82323535693 1.0172219679 1.1799687454 
1.3118704726 1.4175000338 1.5022335207 6.1892828907 6.1070320098 6.035312792 5.9728339911 5.9183214791 5.8706119594 
5.8286879411 5.7916808611 5.7588591896 0.093902416448 0.17615329733 0.2478725152 0.31035131605 0.36486382811 0.41257334776 
0.45449736604 0.4915044461 0.52432611754 3.3194739936 3.5259796137 3.7479044707 3.9648280105 4.1588146215 4.321561399 
4.4534631262 4.5590926874 4.6438261743 2.9637113136 2.7572056934 2.5352808365 2.3183572967 2.1243706857 1.9616239082 
1.829722181 1.7240926197 1.6393591329 3.23549507 3.3177459509 3.3894651688 3.4519439696 3.5064564817 3.5541660013 
3.5960900196 3.6330970997 3.6659187711 3.0476902371 2.9654393563 2.8937201384 2.8312413375 2.7767288255 2.7290193058 
2.6870952876 2.6500882075 2.617266536 6.2831853072 6.2831853072 6.2831853072 6.2831853072 3.1415926536 3.1415926536 
3.1415926536 3.1415926536 3.1415926536 6.1053039672 5.898798347 5.6768734901 5.4599499503 5.2659633393 5.1032165617 
4.9713148346 4.8656852733 4.7809517865 0.17788134 0.38438696014 0.60631181711 0.82323535693 1.0172219679 1.1799687454 
1.3118704726 1.4175000338 1.5022335207 6.1892828907 6.1070320098 6.035312792 5.9728339911 5.9183214791 5.8706119594 
5.8286879411 5.7916808611 5.7588591896 0.093902416448 0.17615329733 0.2478725152 0.31035131605 0.36486382811 0.41257334776 
0.45449736604 0.4915044461 0.52432611754 3.3194739936 3.5259796137 3.7479044707 3.9648280105 4.1588146215 4.321561399 
4.4534631262 4.5590926874 4.6438261743 2.9637113136 2.7572056934 2.5352808365 2.3183572967 2.1243706857 1.9616239082 
1.829722181 1.7240926197 1.6393591329 3.23549507 3.3177459509 3.3894651688 3.4519439696 3.5064564817 3.5541660013 
3.5960900196 3.6330970997 3.6659187711 3.0476902371 2.9654393563 2.8937201384 2.8312413375 2.7767288255 2.7290193058 
2.6870952876 2.6500882075 2.617266536 4.7123889804 4.7123889804 4.7123889804 4.7123889804 4.7123889804 4.7123889804 
4.7123889804 4.7123889804 4.7123889804 4.6087898617 4.4991390697 4.3857031936 4.2712800401 4.1588146215 4.0509635631 
3.94975894 3.8564636551 3.7716124825 4.8159880991 4.9256388911 5.0390747672 5.1534979207 5.2659633393 5.3738143976 
5.4750190208 5.5683143056 5.6531654782 4.6087898617 4.4991390697 4.3857031936 4.2712800401 4.1588146215 4.0509635631 
3.94975894 3.8564636551 3.7716124825 4.8159880991 4.9256388911 5.0390747672 5.1534979207 5.2659633393 5.3738143976 
5.4750190208 5.5683143056 5.6531654782 1.5707963268 1.5707963268 1.5707963268 1.5707963268 1.5707963268 1.5707963268 
1.5707963268 1.5707963268 1.5707963268 1.6743954455 1.7840462375 1.8974821136 2.0119052671 2.1243706857 2.232221744 
2.3334263672 2.426721652 2.5115728246 1.4671972081 1.3575464161 1.24411054 1.1296873865 1.0172219679 0.90937090954 
0.80816628637 0.71487100155 0.63001982895 1.6743954455 1.7840462375 1.8974821136 2.0119052671 2.1243706857 2.232221744 
2.3334263672 2.426721652 2.5115728246 1.4671972081 1.3575464161 1.24411054 1.1296873865 1.0172219679 0.90937090954 
0.80816628637 0.71487100155 0.63001982895 3.6007720849 3.4966939854 3.3839471039 3.2645756454 3.1415926536 3.0186096618 
2.8992382033 2.7864913217 2.6824132222 5.8240058758 5.9280839753 6.0408308569 6.1602023154 6.2831853072 0.12298299178 
0.2423544503 0.35510133185 0.45917943135 6.0560271438 5.7885595667 5.9702140275 5.5125918794 5.6029703303 5.7885595667 
5.2659633393 5.2659633393 5.2659633393 5.2659633393 5.0674903122 5.0120975802 4.9155579264 4.7123889804 4.1588146215 
4.9155579264 4.8353719722 4.7123889804 4.5092200343 4.1588146215 3.6362183941 4.8004512023 4.7123889804 4.5894059886 
4.4126803806 4.1588146215 3.8218076305 3.4545639333 4.7123889804 4.6243267584 4.5092200343 4.3572876485 4.1588146215 
3.9121860814 3.6362183941 3.368750817 6.0174235957 5.9434319871 5.8263323547 5.8809213739 5.7674481418 5.6279784266 
5.8278025282 5.718968232 5.5891129425 5.4372443565 5.7823484065 5.678536687 5.5575666702 5.4192596322 5.2659633393 
5.743164462 5.6444075337 5.5314983644 5.4046708639 5.2659633393 5.1195510325 5.7091357773 5.6152775188 5.5096229709 
5.3926039573 5.2659633393 5.1329233157 4.9978930058 5.6793730533 5.5901633916 5.4910209005 5.3824597928 5.2659633393 
5.1440684722 5.0201624502 4.8979782167 5.5683143056 5.4750190208 5.4750190208 5.3738143976 5.3738143976 5.3738143976 
5.2659633393 5.2659633393 5.2659633393 5.2659633393 5.1534979207 5.1534979207 5.1534979207 5.1534979207 5.1534979207 
5.0390747672 5.0390747672 5.0390747672 5.0390747672 5.0390747672 5.0390747672 4.9256388911 4.9256388911 4.9256388911 
4.9256388911 4.9256388911 4.9256388911 4.9256388911 4.8159880991 4.8159880991 4.8159880991 4.8159880991 4.8159880991 
4.8159880991 4.8159880991 4.8159880991 4.6087898617 4.6087898617 4.4991390697 4.6087898617 4.4991390697 4.3857031936 
4.6087898617 4.4991390697 4.3857031936 4.2712800401 4.6087898617 4.4991390697 4.3857031936 4.2712800401 4.1588146215 
4.6087898617 4.4991390697 4.3857031936 4.2712800401 4.1588146215 4.0509635631 4.6087898617 4.4991390697 4.3857031936 
4.2712800401 4.1588146215 4.0509635631 3.94975894 4.6087898617 4.4991390697 4.3857031936 4.2712800401 4.1588146215 
4.0509635631 3.94975894 3.8564636551 4.526799744 4.4046155105 4.426884955 4.2807094886 4.2918546451 4.3052269283 
4.1588146215 4.1588146215 4.1588146215 4.1588146215 4.042318168 4.0321740035 4.0201070968 4.0055183285 3.9875336042 
3.9337570603 3.9151549899 3.8932795963 3.8672112905 3.8356650183 3.7967995342 3.8346145692 3.809500442 3.7803704271 
3.7462412737 3.7058097288 3.657329819 3.5984456061 3.7454049075 3.7156421835 3.6816134988 3.6424295543 3.5969754326 
3.5438565869 3.4813459737 3.4073543651 3.5642842451 3.4524645613 3.5233842518 3.3320300872 3.403123212 3.4773852225 
3.20576226 3.2746326772 3.348015857 3.4255060145 3.0774230472 3.1415926536 3.2112816139 3.2864685043 3.3668817272 
2.95115522 3.00855263 3.0719036933 3.1415926536 3.2178377658 3.3005964304 2.8307207459 2.8800620952 2.9351694502 
2.9967168029 3.0653475414 3.1415926536 3.225752376 2.718901062 2.7598010554 2.8058000847 2.8576792927 2.91630358 
2.9825888767 3.0574329311 3.1415926536 3.5642842451 3.5233842518 3.4524645613 3.4773852225 3.403123212 3.3320300872 
3.4255060145 3.348015857 3.2746326772 3.20576226 3.3668817272 3.2864685043 3.2112816139 3.1415926536 3.0774230472 
3.3005964304 3.2178377658 3.1415926536 3.0719036933 3.00855263 2.95115522 3.225752376 3.1415926536 3.0653475414 
2.9967168029 2.9351694502 2.8800620952 2.8307207459 3.1415926536 3.0574329311 2.9825888767 2.91630358 2.8576792927 
2.8058000847 2.7598010554 2.718901062 4.526799744 4.426884955 4.4046155105 4.3052269283 4.2918546451 4.2807094886 
4.1588146215 4.1588146215 4.1588146215 4.1588146215 3.9875336042 4.0055183285 4.0201070968 4.0321740035 4.042318168 
3.7967995342 3.8356650183 3.8672112905 3.8932795963 3.9151549899 3.9337570603 3.5984456061 3.657329819 3.7058097288 
3.7462412737 3.7803704271 3.809500442 3.8346145692 3.4073543651 3.4813459737 3.5438565869 3.5969754326 3.6424295543 
3.6816134988 3.7156421835 3.7454049075 4.7123889804 4.8004512023 4.6243267584 4.9155579264 4.7123889804 4.5092200343 
5.0674903122 4.8353719722 4.5894059886 4.3572876485 5.2659633393 5.0120975802 4.7123889804 4.4126803806 4.1588146215 
5.5125918794 5.2659633393 4.9155579264 4.5092200343 4.1588146215 3.9121860814 5.7885595667 5.6029703303 5.2659633393 
4.7123889804 4.1588146215 3.8218076305 3.6362183941 6.0560271438 5.9702140275 5.7885595667 5.2659633393 4.1588146215 
3.6362183941 3.4545639333 3.368750817 0.22715816343 0.49462574053 0.3129712797 0.77059342779 0.68021497688 0.49462574053 
1.0172219679 1.0172219679 1.0172219679 1.0172219679 1.2156949949 1.271087727 1.3676273807 1.5707963268 2.1243706857 
1.3676273807 1.447813335 1.5707963268 1.7739652728 2.1243706857 2.6469669131 1.4827341049 1.5707963268 1.6937793186 
1.8705049266 2.1243706857 2.4613776767 2.8286213739 1.5707963268 1.6588585487 1.7739652728 1.9258976586 2.1243706857 
2.3709992258 2.6469669131 2.9144344902 1.7563855631 1.8785697967 1.8563003522 2.0024758186 1.9913306621 1.9779583789 
2.1243706857 2.1243706857 2.1243706857 2.1243706857 2.2408671392 2.2510113037 2.2630782103 2.2776669786 2.295651703 
2.3494282469 2.3680303173 2.3899057108 2.4159740166 2.4475202889 2.486385773 2.448570738 2.4736848652 2.5028148801 
2.5369440334 2.5773755784 2.6258554882 2.6847397011 2.5377803997 2.5675431237 2.6015718084 2.6407557529 2.6862098746 
2.7393287203 2.8018393335 2.8758309421 1.6743954455 1.6743954455 1.7840462375 1.6743954455 1.7840462375 1.8974821136 
1.6743954455 1.7840462375 1.8974821136 2.0119052671 1.6743954455 1.7840462375 1.8974821136 2.0119052671 2.1243706857 
1.6743954455 1.7840462375 1.8974821136 2.0119052671 2.1243706857 2.232221744 1.6743954455 1.7840462375 1.8974821136 
2.0119052671 2.1243706857 2.232221744 2.3334263672 1.6743954455 1.7840462375 1.8974821136 2.0119052671 2.1243706857 
2.232221744 2.3334263672 2.426721652 1.4671972081 1.3575464161 1.4671972081 1.24411054 1.3575464161 1.4671972081 
1.1296873865 1.24411054 1.3575464161 1.4671972081 1.0172219679 1.1296873865 1.24411054 1.3575464161 1.4671972081 
0.90937090954 1.0172219679 1.1296873865 1.24411054 1.3575464161 1.4671972081 0.80816628637 0.90937090954 1.0172219679 
1.1296873865 1.24411054 1.3575464161 1.4671972081 0.71487100155 0.80816628637 0.90937090954 1.0172219679 1.1296873865 
1.24411054 1.3575464161 1.4671972081 0.60381225391 0.57404952988 0.69302191562 0.54002084522 0.66790778838 0.79216440667 
0.50083690068 0.63877777351 0.77356233629 0.90072551443 0.45538277901 0.60464862014 0.75168694275 0.89058134991 1.0172219679 
0.40226393329 0.56421707518 0.72561863695 0.87851444325 1.0172219679 1.139116835 0.33975332011 0.51573716537 0.69407236469 
0.86392567495 1.0172219679 1.1502619915 1.2630228569 0.26576171152 0.45685295248 0.6552068806 0.84594095064 1.0172219679 
1.1636342747 1.2852923014 1.3852070904 0.22715816343 0.3129712797 0.49462574053 0.49462574053 0.68021497688 0.77059342779 
1.0172219679 1.0172219679 1.0172219679 1.0172219679 2.1243706857 1.5707963268 1.3676273807 1.271087727 1.2156949949 
2.6469669131 2.1243706857 1.7739652728 1.5707963268 1.447813335 1.3676273807 2.8286213739 2.4613776767 2.1243706857 
1.8705049266 1.6937793186 1.5707963268 1.4827341049 2.9144344902 2.6469669131 2.3709992258 2.1243706857 1.9258976586 
1.7739652728 1.6588585487 1.5707963268 1.7563855631 1.8563003522 1.8785697967 1.9779583789 1.9913306621 2.0024758186 
2.1243706857 2.1243706857 2.1243706857 2.1243706857 2.295651703 2.2776669786 2.2630782103 2.2510113037 2.2408671392 
2.486385773 2.4475202889 2.4159740166 2.3899057108 2.3680303173 2.3494282469 2.6847397011 2.6258554882 2.5773755784 
2.5369440334 2.5028148801 2.4736848652 2.448570738 2.8758309421 2.8018393335 2.7393287203 2.6862098746 2.6407557529 
2.6015718084 2.5675431237 2.5377803997 5.8604937156 5.901393709 5.9723133995 5.9473927383 6.0216547488 6.0927478736 
5.9992719463 6.0767621038 6.1501452836 6.2190157008 6.0578962336 6.1383094565 6.2134963469 0 0.064169606361 
6.1241815303 6.206940195 6.2831853072 0.069688960264 0.13304002361 0.19043743361 6.1990255847 0 0.07624511221 
0.14487585072 0.20642320337 0.26153055843 0.3108719077 0 0.084159722458 0.15900377685 0.22528907359 0.28391336087 
0.3357925689 0.38179159818 0.42269159155 5.8604937156 5.9723133995 5.901393709 6.0927478736 6.0216547488 5.9473927383 
6.2190157008 6.1501452836 6.0767621038 5.9992719463 0.064169606361 0 6.2134963469 6.1383094565 6.0578962336 
0.19043743361 0.13304002361 0.069688960264 6.2831853072 6.206940195 6.1241815303 0.3108719077 0.26153055843 0.20642320337 
0.14487585072 0.07624511221 6.2831853072 6.1990255847 0.42269159155 0.38179159818 0.3357925689 0.28391336087 0.22528907359 
0.15900377685 0.084159722458 0 5.6793730533 5.7091357773 5.5901633916 5.743164462 5.6152775188 5.4910209005 
5.7823484065 5.6444075337 5.5096229709 5.3824597928 5.8278025282 5.678536687 5.5314983644 5.3926039573 5.2659633393 
5.8809213739 5.718968232 5.5575666702 5.4046708639 5.2659633393 5.1440684722 5.9434319871 5.7674481418 5.5891129425 
5.4192596322 5.2659633393 5.1329233157 5.0201624502 6.0174235957 5.8263323547 5.6279784266 5.4372443565 5.2659633393 
5.1195510325 4.9978930058 4.8979782167 1.3852070904 1.2852923014 1.2630228569 1.1636342747 1.1502619915 1.139116835 
1.0172219679 1.0172219679 1.0172219679 1.0172219679 0.84594095064 0.86392567495 0.87851444325 0.89058134991 0.90072551443 
0.6552068806 0.69407236469 0.72561863695 0.75168694275 0.77356233629 0.79216440667 0.45685295248 0.51573716537 0.56421707518 
0.60464862014 0.63877777351 0.66790778838 0.69302191562 0.26576171152 0.33975332011 0.40226393329 0.45538277901 0.50083690068 
0.54002084522 0.57404952988 0.60381225391 
_paraPhiHalf 1 1002 double
0 3.1415926536 0 3.1415926536 1.5707963268 1.5707963268 1.5707963268 1.5707963268 2.5880182947 
0.5535743589 2.5880182947 0.5535743589 0 0 0 0 3.1415926536 3.1415926536 
3.1415926536 3.1415926536 3.1415926536 0.17788134 0.38438696014 0.60631181711 0.82323535693 1.0172219679 1.1799687454 
1.3118704726 1.4175000338 1.5022335207 0.17788134 0.38438696014 0.60631181711 0.82323535693 1.0172219679 1.1799687454 
1.3118704726 1.4175000338 1.5022335207 0.093902416448 0.17615329733 0.2478725152 0.31035131605 0.36486382811 0.41257334776 
0.45449736604 0.4915044461 0.52432611754 0.093902416448 0.17615329733 0.2478725152 0.31035131605 0.36486382811 0.41257334776 
0.45449736604 0.4915044461 0.52432611754 2.9637113136 2.7572056934 2.5352808365 2.3183572967 2.1243706857 1.9616239082 
1.829722181 1.7240926197 1.6393591329 2.9637113136 2.7572056934 2.5352808365 2.3183572967 2.1243706857 1.9616239082 
1.829722181 1.7240926197 1.6393591329 3.0476902371 2.9654393563 2.8937201384 2.8312413375 2.7767288255 2.7290193058 
2.6870952876 2.6500882075 2.617266536 3.0476902371 2.9654393563 2.8937201384 2.8312413375 2.7767288255 2.7290193058 
2.6870952876 2.6500882075 2.617266536 0 0 0 0 3.1415926536 3.1415926536 
3.1415926536 3.1415926536 3.1415926536 0.17788134 0.38438696014 0.60631181711 0.82323535693 1.0172219679 1.1799687454 
1.3118704726 1.4175000338 1.5022335207 0.17788134 0.38438696014 0.60631181711 0.82323535693 1.0172219679 1.1799687454 
1.3118704726 1.4175000338 1.5022335207 0.093902416448 0.17615329733 0.2478725152 0.31035131605 0.36486382811 0.41257334776 
0.45449736604 0.4915044461 0.52432611754 0.093902416448 0.17615329733 0.2478725152 0.31035131605 0.36486382811 0.41257334776 
0.45449736604 0.4915044461 0.52432611754 2.9637113136 2.7572056934 2.5352808365 2.3183572967 2.1243706857 1.9616239082 
1.829722181 1.7240926197 1.6393591329 2.9637113136 2.7572056934 2.5352808365 2.3183572967 2.1243706857 1.9616239082 
1.829722181 1.7240926197 1.6393591329 3.0476902371 2.9654393563 2.8937201384 2.8312413375 2.7767288255 2.7290193058 
2.6870952876 2.6500882075 2.617266536 3.0476902371 2.9654393563 2.8937201384 2.8312413375 2.7767288255 2.7290193058 
2.6870952876 2.6500882075 2.617266536 1.5707963268 1.5707963268 1.5707963268 1.5707963268 1.5707963268 1.5707963268 
1.5707963268 1.5707963268 1.5707963268 1.6743954455 1.7840462375 1.8974821136 2.0119052671 2.1243706857 2.232221744 
2.3334263672 2.426721652 2.5115728246 1.4671972081 1.3575464161 1.24411054 1.1296873865 1.0172219679 0.90937090954 
0.80816628637 0.71487100155 0.63001982895 1.6743954455 1.7840462375 1.8974821136 2.0119052671 2.1243706857 2.232221744 
2.3334263672 2.426721652 2.5115728246 1.4671972081 1.3575464161 1.24411054 1.1296873865 1.0172219679 0.90937090954 
0.80816628637 0.71487100155 0.63001982895 1.5707963268 1.5707963268 1.5707963268 1.5707963268 1.5707963268 1.5707963268 
1.5707963268 1.5707963268 1.5707963268 1.6743954455 1.7840462375 1.8974821136 2.0119052671 2.1243706857 2.232221744 
2.3334263672 2.426721652 2.5115728246 1.4671972081 1.3575464161 1.24411054 1.1296873865 1.0172219679 0.90937090954 
0.80816628637 0.71487100155 0.63001982895 1.6743954455 1.7840462375 1.8974821136 2.0119052671 2.1243706857 2.232221744 
2.3334263672 2.426721652 2.5115728246 1.4671972081 1.3575464161 1.24411054 1.1296873865 1.0172219679 0.90937090954 
0.80816628637 0.71487100155 0.63001982895 2.6824132222 2.7864913217 2.8992382033 3.0186096618 3.1415926536 3.0186096618 
2.8992382033 2.7864913217 2.6824132222 0.45917943135 0.35510133185 0.2423544503 0.12298299178 0 0.12298299178 
0.2423544503 0.35510133185 0.45917943135 0.22715816343 0.49462574053 0.3129712797 0.77059342779 0.68021497688 0.49462574053 
1.0172219679 1.0172219679 1.0172219679 1.0172219679 1.2156949949 1.271087727 1.3676273807 1.5707963268 2.1243706857 
1.3676273807 1.447813335 1.5707963268 1.7739652728 2.1243706857 2.6469669131 1.4827341049 1.5707963268 1.6937793186 
1.8705049266 2.1243706857 2.4613776767 2.8286213739 1.5707963268 1.6588585487 1.7739652728 1.9258976586 2.1243706857 
2.3709992258 2.6469669131 2.9144344902 0.26576171152 0.33975332011 0.45685295248 0.40226393329 0.51573716537 0.6552068806 
0.45538277901 0.56421707518 0.69407236469 0.84594095064 0.50083690068 0.60464862014 0.72561863695 0.86392567495 1.0172219679 
0.54002084522 0.63877777351 0.75168694275 0.87851444325 1.0172219679 1.1636342747 0.57404952988 0.66790778838 0.77356233629 
0.89058134991 1.0172219679 1.1502619915 1.2852923014 0.60381225391 0.69302191562 0.79216440667 0.90072551443 1.0172219679 
1.139116835 1.2630228569 1.3852070904 0.71487100155 0.80816628637 0.80816628637 0.90937090954 0.90937090954 0.90937090954 
1.0172219679 1.0172219679 1.0172219679 1.0172219679 1.1296873865 1.1296873865 1.1296873865 1.1296873865 1.1296873865 
1.24411054 1.24411054 1.24411054 1.24411054 1.24411054 1.24411054 1.3575464161 1.3575464161 1.3575464161 
1.3575464161 1.3575464161 1.3575464161 1.3575464161 1.4671972081 1.4671972081 1.4671972081 1.4671972081 1.4671972081 
1.4671972081 1.4671972081 1.4671972081 1.6743954455 1.6743954455 1.7840462375 1.6743954455 1.7840462375 1.8974821136 
1.6743954455 1.7840462375 1.8974821136 2.0119052671 1.6743954455 1.7840462375 1.8974821136 2.0119052671 2.1243706857 
1.6743954455 1.7840462375 1.8974821136 2.0119052671 2.1243706857 2.232221744 1.6743954455 1.7840462375 1.8974821136 
2.0119052671 2.1243706857 2.232221744 2.3334263672 1.6743954455 1.7840462375 1.8974821136 2.0119052671 2.1243706857 
2.232221744 2.3334263672 2.426721652 1.7563855631 1.8785697967 1.8563003522 2.0024758186 1.9913306621 1.9779583789 
2.1243706857 2.1243706857 2.1243706857 2.1243706857 2.2408671392 2.2510113037 2.2630782103 2.2776669786 2.295651703 
2.3494282469 2.3680303173 2.3899057108 2.4159740166 2.4475202889 2.486385773 2.448570738 2.4736848652 2.5028148801 
2.5369440334 2.5773755784 2.6258554882 2.6847397011 2.5377803997 2.5675431237 2.6015718084 2.6407557529 2.6862098746 
2.7393287203 2.8018393335 2.8758309421 2.718901062 2.8307207459 2.7598010554 2.95115522 2.8800620952 2.8058000847 
3.0774230472 3.00855263 2.9351694502 2.8576792927 3.0774230472 3.1415926536 3.0719036933 2.9967168029 2.91630358 
2.95115522 3.00855263 3.0719036933 3.1415926536 3.0653475414 2.9825888767 2.8307207459 2.8800620952 2.9351694502 
2.9967168029 3.0653475414 3.1415926536 3.0574329311 2.718901062 2.7598010554 2.8058000847 2.8576792927 2.91630358 
2.9825888767 3.0574329311 3.1415926536 2.718901062 2.7598010554 2.8307207459 2.8058000847 2.8800620952 2.95115522 
2.8576792927 2.9351694502 3.00855263 3.0774230472 2.91630358 2.9967168029 3.0719036933 3.1415926536 3.0774230472 
2.9825888767 3.0653475414 3.1415926536 3.0719036933 3.00855263 2.95115522 3.0574329311 3.1415926536 3.0653475414 