# vtk DataFile Version 5.1
vtk output
ASCII
DATASET POLYDATA
POINTS 100 float
5.83169 27.3971 14.4845 5.83964 27.4026 14.4802 5.86283 27.4154 14.4635 
5.90155 27.4361 14.4358 5.95626 27.4652 14.3994 6.0275 27.5035 14.3573 
6.11583 27.5518 14.3127 6.22169 27.6104 14.2688 6.34537 27.6799 14.2286 
6.48686 27.76 14.1944 6.64585 27.8503 14.1676 6.82168 27.9499 14.1491 
7.01333 28.0573 14.1384 7.2195 28.1712 14.1345 7.43861 28.2896 14.1357 
7.66898 28.4109 14.1396 7.90885 28.5336 14.1438 8.15654 28.6563 14.146 
8.41051 28.778 14.1443 8.66949 28.8982 14.137 8.93251 29.0168 14.1234 
9.19889 29.1341 14.1033 9.46829 29.2506 14.0772 9.74062 29.367 14.0461 
10.016 29.4841 14.0113 10.2946 29.6026 13.9743 10.5766 29.7231 13.9366 
10.8621 29.8457 13.8991 11.1511 29.9706 13.8626 11.4431 30.0976 13.8272 
11.7377 30.2261 13.7924 12.0338 30.3557 13.7573 12.3303 30.4856 13.7206 
12.6259 30.6153 13.6808 12.9193 30.7444 13.6364 13.209 30.8727 13.5863 
13.4939 31 13.5295 13.7729 31.1267 13.4659 14.0454 31.2531 13.3957 
14.3112 31.3798 13.32 14.5702 31.5074 13.2404 14.8231 31.6366 13.159 
15.0705 31.768 13.0779 15.3137 31.9018 12.9995 15.5539 32.0384 12.9258 
15.7922 32.1778 12.8585 16.0299 32.3198 12.7986 16.2681 32.4641 12.7467 
16.5075 32.6104 12.7023 16.7487 32.7582 12.6645 16.9916 32.9071 12.6317 
17.2364 33.0568 12.6021 17.4824 33.2069 12.5736 17.7291 33.3574 12.5441 
17.9758 33.5082 12.5119 18.2216 33.6594 12.4758 18.4659 33.8111 12.4349 
18.7081 33.9636 12.3893 18.9477 34.117 12.3396 19.1845 34.2714 12.2869 
19.4186 34.4271 12.2328 19.6501 34.5842 12.1793 19.8794 34.7427 12.1285 
20.1072 34.9028 12.0824 20.3339 35.0644 12.0427 20.5603 35.2277 12.0109 
20.7869 35.3926 11.9879 21.0142 35.5593 11.9742 21.2426 35.7275 11.9698 
21.4725 35.8971 11.9743 21.7039 36.0679 11.987 21.9369 36.2393 12.0069 
22.1714 36.4106 12.033 22.4072 36.581 12.0641 22.6439 36.7494 12.0993 
22.8812 36.9148 12.1373 23.1186 37.0759 12.1774 23.3555 37.2318 12.2185 
23.5913 37.3814 12.2597 23.8252 37.5242 12.3001 24.0562 37.6599 12.3387 
24.2836 37.7887 12.3741 24.5061 37.9111 12.4051 24.7225 38.0281 12.4303 
24.9317 38.1408 12.4483 25.1324 38.2507 12.4578 25.3233 38.3589 12.4578 
25.5031 38.4666 12.4477 25.6709 38.5745 12.4271 25.8256 38.6826 12.3966 
25.9664 38.7906 12.3571 26.0927 38.8971 12.3103 26.2042 39.0004 12.2585 
26.3005 39.0981 12.2044 26.3817 39.1874 12.151 26.4478 39.2653 12.1016 
26.4989 39.3291 12.0589 26.5351 39.3761 12.0258 26.5566 39.4044 12.0042 
26.5634 39.4128 11.9955 
LINES 2 100
OFFSETS vtktypeint64
0 100 
CONNECTIVITY vtktypeint64
0 1 2 3 4 5 6 7 8 
9 10 11 12 13 14 15 16 17 
18 19 20 21 22 23 24 25 26 
27 28 29 30 31 32 33 34 35 
36 37 38 39 40 41 42 43 44 
45 46 47 48 49 50 51 52 53 
54 55 56 57 58 59 60 61 62 
63 64 65 66 67 68 69 70 71 
72 73 74 75 76 77 78 79 80 
81 82 83 84 85 86 87 88 89 
90 91 92 93 94 95 96 97 98 
99 
POINT_DATA 100
FIELD FieldData 3
_theta 1 100 double
0 0.031733259127 0.063466518254 0.095199777382 0.12693303651 0.15866629564 0.19039955476 0.22213281389 0.25386607302 
0.28559933214 0.31733259127 0.3490658504 0.38079910953 0.41253236865 0.44426562778 0.47599888691 0.50773214603 0.53946540516 
0.57119866429 0.60293192342 0.63466518254 0.66639844167 0.6981317008 0.72986495992 0.76159821905 0.79333147818 0.82506473731 
0.85679799643 0.88853125556 0.92026451469 0.95199777382 0.98373103294 1.0154642921 1.0471975512 1.0789308103 1.1106640695 
1.1423973286 1.1741305877 1.2058638468 1.237597106 1.2693303651 1.3010636242 1.3327968833 1.3645301425 1.3962634016 
1.4279966607 1.4597299198 1.491463179 1.5231964381 1.5549296972 1.5866629564 1.6183962155 1.6501294746 1.6818627337 
1.7135959929 1.745329252 1.7770625111 1.8087957702 1.8405290294 1.8722622885 1.9039955476 1.9357288068 1.9674620659 
1.999195325 2.0309285841 2.0626618433 2.0943951024 2.1261283615 2.1578616206 2.1895948798 2.2213281389 2.253061398 
2.2847946572 2.3165279163 2.3482611754 2.3799944345 2.4117276937 2.4434609528 2.4751942119 2.506927471 2.5386607302 
2.5703939893 2.6021272484 2.6338605076 2.6655937667 2.6973270258 2.7290602849 2.7607935441 2.7925268032 2.8242600623 
2.8559933214 2.8877265806 2.9194598397 2.9511930988 2.982926358 3.0146596171 3.0463928762 3.0781261353 3.1098593945 
3.1415926536 
_radius 1 100 double
3.3809162244e-14 0.30513095458 0.60448641664 0.89287590764 1.1659205581 1.4203576811 1.6542411538 1.867019252 2.0594823139 
2.2335837961 2.3921505754 2.5385130447 2.6761019729 2.8080714311 2.9370054869 3.0647458055 3.1923457803 3.3201303728 
3.4478294865 3.5747543533 3.6999930393 3.8226065043 3.941808597 4.0571129144 4.168429021 4.2760928176 4.3808227389 
4.4836048008 4.5855228433 4.6875617049 4.7904170256 4.8943442059 4.9990710613 5.1037858519 5.2071976952 5.3076533689 
5.4032861714 5.4921704961 5.5724602057 5.642498581 5.7009000952 5.746615435 5.7789954506 5.7978624129 5.8035790538 
5.7970867379 5.7798772856 5.7538762686 5.721244049 5.6841293618 5.6444248276 5.6035710667 5.562442368 5.5213291086 
5.4800127506 5.4379093202 5.3942414586 5.3481948924 5.2990265545 5.2461142168 5.1889604977 5.1271771743 5.0604750809 
4.9886740004 4.9117329117 4.8297898241 4.7431951508 4.6525235507 4.5585554808 4.4622292435 4.36457341 4.2666338365 
4.1694063746 4.0737769443 3.9804604031 3.8899263735 3.802308875 3.7173142827 3.6341575492 3.5515573966 3.4678039046 
3.3808861071 3.2886482815 3.1889413709 3.0797486805 2.9592825721 2.8260606736 2.6789712448 2.5173304117 2.3409257982 
2.1500370354 1.9454245365 1.7282816025 1.50014953 1.2628010579 1.018104785 0.76789105703 0.51384496315 0.25745055834 
6.2983497956e-14 
_area 1 100 double
0 0.29131472252 1.1440416037 2.4975118883 4.2601456036 6.3223506104 8.5718868184 10.909277672 13.260591892 
15.585046326 17.875577951 20.1520364 22.44894622 24.801982113 27.237698057 29.768932548 32.395252705 35.106043631 
37.884005622 40.70795761 43.554887812 46.401654895 49.226723963 52.012255764 54.747006731 57.430378518 60.076823189 
62.71801231 65.39952208 68.170789862 71.071043959 74.116912235 77.296742067 80.572604667 83.887077759 87.171220124 
90.351906542 93.358191179 96.126437359 98.603434092 100.74674848 102.52240414 103.90132361 104.85742641 105.37038319 
105.43242325 105.05543422 104.27812478 103.17412702 101.86555324 100.5296295 99.402389264 98.358615979 97.365986544 
96.279744945 95.105434119 93.797898663 92.262458709 90.472752498 88.436437932 86.183877987 83.721123284 81.074545667 
78.380359125 75.616225798 72.824962574 70.066741381 67.332772591 64.544485689 61.729722297 58.934486494 56.204704155 
53.58061748 51.093418027 48.76294455 46.595509721 44.581570348 42.694415864 40.891972173 39.12285522 37.335299385 
35.485611051 33.543004096 31.489734677 29.317947035 27.026231403 24.618637197 22.106799798 19.513433153 16.874570566 
14.23895779 11.664730544 9.2146583819 6.9513625006 4.9333592746 3.2121651878 1.830406022 0.82085338781 0.20629662697 
0 
