# vtk DataFile Version 5.1
vtk output
ASCII
DATASET POLYDATA
POINTS 1002 float
10.8379 37.3855 15.8799 19.6122 40.904 13.4751 14.5435 32.2132 7.00647 
20.1724 39.4546 8.52277 20.2184 34.7287 18.7705 21.543 31.7382 12.8605 
11.5924 43.8918 10.8095 14.3509 42.6104 6.42251 26.5501 38.6028 13.3196 
12.6259 29.9511 14.611 20.5939 47.0805 8.94135 7.99723 36.117 10.0752 
11.5645 37.8144 15.8176 12.3989 38.1921 15.6891 13.2239 38.5878 15.4878 
14.0636 39.042 15.2283 15.034 39.4817 14.9767 16.1062 39.8058 14.7382 
17.1328 40.0323 14.4192 18.0545 40.2635 14.0161 18.886 40.5576 13.6673 
11.669 36.8636 15.9452 12.7555 36.2231 15.8336 13.9625 35.6125 15.8036 
15.085 35.218 16.1114 16.0379 35.1031 16.668 16.9317 35.1349 17.1732 
17.8723 35.1175 17.572 18.7952 34.9861 18.0113 19.5837 34.8243 18.4719 
10.5666 38.0833 15.5963 10.3539 38.7266 15.126 10.1994 39.3871 14.5121 
10.1222 40.1365 13.897 10.1271 40.9557 13.3832 10.1994 41.7359 12.8774 
10.3711 42.3668 12.2478 10.6953 42.8558 11.5853 11.1391 43.3311 11.0909 
10.6697 36.5372 16.0151 10.6297 35.4962 16.1009 10.7514 34.3902 16.0571 
10.9101 33.3487 15.934 10.9239 32.3347 15.9427 10.858 31.2823 16.114 
10.999 30.382 16.1525 11.4581 29.9077 15.8326 12.0647 29.8464 15.2483 
10.1037 37.3092 15.6523 9.56948 37.1142 15.1736 9.13812 36.8827 14.5788 
8.61507 36.7098 14.0077 7.97165 36.6005 13.4245 7.43767 36.5188 12.7526 
7.2471 36.4526 12.0516 7.3977 36.3769 11.3887 7.70627 36.2601 10.736 
19.743 40.3597 13.9826 19.8654 39.8021 14.6774 20.041 39.1925 15.4355 
20.2914 38.4766 16.0476 20.5295 37.7326 16.5523 20.6375 37.1565 17.2274 
20.5948 36.7629 18.0576 20.4701 36.3035 18.6629 20.3335 35.5965 18.8442 
18.9988 41.2439 13.1484 18.247 41.6439 12.8422 17.4016 42.0546 12.5036 
16.596 42.4176 12.1548 15.8368 42.7609 11.888 14.9384 43.1327 11.6905 
13.8696 43.4725 11.4659 12.8786 43.6911 11.2198 12.1424 43.806 11.0096 
20.3878 40.9451 13.6659 21.2021 40.9584 13.8834 22.0158 40.883 14.0318 
22.7721 40.7062 14.1288 23.509 40.427 14.2606 24.355 40.026 14.3787 
25.2832 39.5568 14.3399 26.0469 39.1468 14.1077 26.4582 38.8484 13.7453 
19.9085 41.5162 13.1944 20.1521 42.2287 12.9685 20.3493 43.0106 12.6892 
20.4889 43.8515 12.3219 20.5546 44.7588 11.974 20.609 45.6731 11.6879 
20.7227 46.4339 11.3028 20.8254 46.9031 10.6652 20.7886 47.0846 9.82138 
14.9157 32.7841 7.43304 15.2901 33.4294 7.88741 15.9521 34.1871 8.15583 
16.899 35.0141 8.17887 17.7499 35.7801 8.15085 18.2578 36.4668 8.25632 
18.6042 37.2148 8.43661 19.0391 38.0641 8.54954 19.5921 38.8595 8.56339 
15.1316 31.7689 7.35733 15.5735 31.4981 7.97438 16.0642 31.3972 8.62707 
17.0299 31.2209 9.08751 18.5329 30.7713 9.41557 19.9411 30.3036 9.84385 
20.6791 30.2724 10.4763 20.9174 30.7214 11.263 21.1432 31.3013 12.0978 
14.1119 33.0853 7.16116 13.6129 33.9878 7.57943 13.1933 34.89 8.02149 
12.9905 35.8686 8.05138 13.0694 36.9932 7.58647 13.4064 38.2249 7.10188 
13.8541 39.4751 6.93917 14.1989 40.6665 6.89409 14.3411 41.7271 6.70567 
14.3833 31.3284 6.85441 13.9956 30.4898 6.90941 13.4837 29.9442 7.27789 
13.0229 29.8199 8.11975 12.7009 29.9552 9.42292 12.5203 30.0874 10.8045 
12.4731 30.133 11.891 12.5155 30.1273 12.7514 12.5767 30.0683 13.6445 
13.7022 32.2013 6.77327 12.5945 32.2064 6.77187 11.4889 32.2652 6.99536 
10.6571 32.5344 7.43582 10.0539 33.0812 8.01445 9.46937 33.7192 8.51373 
8.904 34.2717 8.82953 8.4907 34.8065 9.13004 8.22602 35.4356 9.56795 
20.2243 38.8433 9.0596 20.3302 38.15 9.5844 20.6244 37.1894 9.87342 
21.0707 35.9105 9.92267 21.3499 34.667 10.1178 21.2421 33.8813 10.7456 
20.9993 33.4512 11.5509 21.0011 32.9655 12.1502 21.2662 32.3235 12.5221 
19.7525 39.794 8.05908 19.3441 40.211 7.57512 18.9557 40.6611 7.03556 
18.5016 41.036 6.43208 17.8755 41.3078 5.90199 17.1195 41.5854 5.65705 
16.3821 41.9364 5.7376 15.7108 42.2792 5.97718 15.0439 42.5101 6.21705 
20.8279 39.5051 8.77066 21.5429 39.4665 9.04479 22.2495 39.4231 9.43209 
22.9145 39.4182 9.9947 23.5434 39.3945 10.6448 24.1576 39.3028 11.2155 
24.7917 39.163 11.6703 25.4552 38.9905 12.122 26.0784 38.7903 12.6715 
20.4673 40.1426 8.20572 20.7055 40.8663 7.94041 20.9053 41.7049 7.71573 
21.0795 42.7652 7.53711 21.1567 43.9551 7.45984 21.1022 44.9827 7.49107 
21.0115 45.7212 7.61036 20.9428 46.2968 7.88436 20.8251 46.7789 8.36257 
20.5319 34.1466 18.6902 20.8916 33.6441 18.3826 21.251 33.2836 17.9177 
21.549 32.9407 17.3742 21.8266 32.4735 16.7593 22.1448 31.9691 16.0465 
22.3754 31.6419 15.2422 22.316 31.5631 14.3943 21.9741 31.6365 13.5782 
20.8855 35.2829 18.9591 21.6939 35.8433 18.9741 22.7764 36.2356 18.7247 
24.0784 36.4721 18.2476 25.2917 36.7587 17.6734 26.1878 37.1715 17.0087 
26.7888 37.5581 16.1368 27.0924 37.8468 15.0931 27.0018 38.1595 14.0982 
19.7301 33.8778 18.5949 19.1629 33.1462 18.5007 18.5379 32.6121 18.2852 
17.9182 32.1265 17.721 17.2728 31.5036 17.0534 16.4285 30.7956 16.7612 
15.3298 30.2221 16.7287 14.2024 29.9211 16.3923 13.2929 29.8694 15.5832 
21.8722 32.4355 13.2758 22.2253 33.2378 13.5108 22.7329 34.1032 13.559 
23.5349 34.8608 13.5158 24.5606 35.3613 13.4 25.5376 35.7738 13.2007 
26.2628 36.4022 13.0569 26.6781 37.2266 13.0971 26.7642 37.9929 13.2363 
21.3064 31.1462 12.8433 20.6726 30.8574 12.9886 19.7841 30.793 13.3026 
18.9937 30.6552 13.6302 18.314 30.3177 13.8648 17.3514 30.0078 14.0781 
16.0075 29.922 14.3186 14.6508 29.9665 14.5017 13.5431 29.9848 14.5791 
11.5175 44.3636 10.4871 11.386 44.8201 9.9247 11.3116 45.0605 9.10019 
11.5297 44.9822 8.3029 12.0911 44.6865 7.80869 12.7111 44.3281 7.48736 
13.1487 43.9555 7.08834 13.4907 43.5523 6.67434 13.8969 43.1058 6.44476 
12.3307 44.5334 10.7585 13.0373 45.2962 10.6962 13.8065 45.9361 10.4918 
14.8497 46.1991 10.045 16.1296 46.1979 9.45851 17.2956 46.3356 9.01707 
18.1838 46.7355 8.88385 18.9787 47.114 8.9403 19.8118 47.2239 8.9847 
10.7685 43.6172 10.6978 9.86686 43.3592 10.5518 9.00919 43.0113 10.4022 
8.33842 42.3741 10.2825 7.8919 41.365 10.1991 7.6311 40.1765 10.1585 
7.55637 39.0623 10.1768 7.65582 38.0599 10.213 7.83491 37.0817 10.1861 
14.7754 43.372 6.01922 15.2657 44.0852 5.69138 15.8913 44.7497 5.54023 
16.6399 45.5205 5.53355 17.3779 46.5009 5.63394 17.9775 47.3892 5.93306 
18.4974 47.7305 6.50412 19.1098 47.5401 7.27279 19.8529 47.2347 8.11524 
13.5676 42.1183 6.76387 12.5571 41.5629 7.00083 11.318 40.9803 7.02764 
9.97492 40.3294 6.85304 8.81243 39.5328 6.74086 8.14839 38.6281 7.02849 
8.02281 37.7804 7.75325 8.1212 37.1041 8.64288 8.12831 36.5745 9.44 
25.8783 39.3957 12.9238 25.2032 40.5196 12.507 24.836 41.8673 12.0565 
24.6972 43.1013 11.5581 24.3579 44.073 11.036 23.6734 44.9846 10.5583 
22.9094 45.8942 10.1567 22.2018 46.56 9.78381 21.4425 46.8926 9.38009 
11.6629 29.992 14.0776 10.4701 29.9714 13.6321 9.12199 29.8866 13.2023 
8.08596 29.994 12.6257 7.75568 30.6154 11.9188 7.90202 31.7172 11.2941 
8.03319 32.97 10.8681 8.01851 34.1475 10.5763 7.98884 35.1992 10.3279 
12.558 37.298 15.7957 13.7058 36.7283 15.7277 13.432 37.7699 15.7091 
14.8076 36.2491 15.9363 14.487 37.3869 15.8564 14.2103 38.3326 15.6793 
15.7376 35.952 16.4973 15.4317 37.0625 16.3203 15.1933 38.1186 16.0552 
15.0549 38.9 15.6 16.6201 35.8117 17.0848 16.3373 36.7409 16.9011 
16.1764 37.8 16.5551 16.1023 38.6877 16.0429 16.0811 39.3036 15.4016 
17.6385 35.746 17.4842 17.4092 36.4425 17.2853 17.291 37.322 16.9113 
17.2374 38.2528 16.4019 17.1775 38.9929 15.7782 17.1401 39.5298 15.0802 
18.7183 35.694 17.8764 18.6184 36.2749 17.5824 18.5518 36.8931 17.1056 
18.4777 37.6928 16.5903 18.3284 38.5309 16.0624 18.1706 39.2008 15.4076 
18.0921 39.7326 14.671 19.6393 35.6412 18.3893 19.6866 36.2598 18.0685 
19.7174 36.7219 17.4511 19.6742 37.2861 16.7885 19.4921 38.0578 16.2796 
19.234 38.84 15.7474 19.0446 39.4727 15.0282 18.9562 40.0143 14.2718 
11.5404 35.9183 16.0792 11.5082 34.8957 16.2162 12.6854 35.2472 15.9939 
11.5629 33.9644 16.2929 12.6067 34.3771 16.2546 13.9597 34.7178 16.0412 
11.5886 33.0853 16.3687 12.5079 33.6631 16.545 13.8451 34.0531 16.434 
15.1743 34.4899 16.3938 11.5712 32.0225 16.5519 12.4398 32.7949 16.8235 
13.6887 33.4186 16.8431 15.1276 33.9393 16.7744 16.2458 34.5087 16.8803 
11.716 30.8522 16.7174 12.5846 31.5876 17.0306 13.7272 32.4376 17.0966 
15.0909 33.2236 17.0787 16.3372 33.8999 17.1332 17.222 34.5209 17.3141 
12.1523 30.0355 16.6132 13.0405 30.4803 17.0496 14.1321 31.2716 17.1181 
15.3246 32.2197 17.1349 16.4581 33.068 17.3061 17.4008 33.7394 17.5355 
18.1487 34.3495 17.7591 12.7413 29.7889 16.1887 13.6484 29.9577 16.8252 
14.7549 30.4865 16.9738 15.8522 31.3149 16.9757 16.7886 32.1798 17.2682 
17.5955 32.8634 17.7319 18.3323 33.4298 18.0471 18.9975 34.0727 18.2429 
14.4343 29.9832 15.5641 15.8079 30.0271 15.4034 15.6008 30.1279 16.2562 
17.2587 29.967 15.081 17.0826 30.1712 15.9654 16.8175 30.4635 16.4899 
18.3874 30.0285 14.725 18.347 30.0246 15.6162 18.1289 30.439 16.3076 
17.7538 30.9773 16.7474 19.085 30.3808 14.4596 19.1958 30.0654 15.3521 
19.1151 30.2578 16.2451 18.8167 30.895 16.9945 18.3773 31.5458 17.4972 
19.7788 30.7838 14.2365 19.8934 30.4685 15.1893 19.9104 30.3702 16.1973 
19.7217 30.8097 17.2043 19.362 31.4647 17.985 18.9285 32.0341 18.3359 
20.709 30.9965 13.9797 20.7877 30.9013 15.001 20.7723 30.8038 16.0211 
20.6052 31.0494 17.054 20.3127 31.5641 17.9793 19.9263 32.0533 18.5531 
19.5159 32.5301 18.6798 21.5491 31.1933 13.7389 21.7209 31.1899 14.7167 
21.6824 31.2341 15.6793 21.4513 31.4996 16.5906 21.1569 31.9589 17.4311 
20.8314 32.3886 18.1074 20.4504 32.7554 18.5193 20.0643 33.2359 18.6592 
21.2497 34.7697 18.6062 21.6379 34.3213 18.002 22.1538 35.3663 18.4029 
21.9497 33.9717 17.3797 22.5486 34.9362 17.6895 23.314 35.7384 18.1026 
22.1615 33.5814 16.8234 22.7543 34.5984 17.0893 23.6175 35.3225 17.4843 
24.5293 35.9523 17.7023 22.3997 33.0484 16.202 22.843 34.2339 16.491 
23.6579 35.0681 16.9078 24.6199 35.5766 17.1458 25.5046 36.247 17.128 
22.6702 32.5209 15.4456 22.9631 33.7618 15.6919 23.613 34.8397 16.0899 
24.5248 35.4094 16.389 25.4219 35.8768 16.3924 26.2268 36.6726 16.2693 
[...]
POINT_DATA 1002
FIELD FieldData 4
_paraPhi 1 1002 double
6.2831853072 3.1415926536 6.2831853072 3.1415926536 4.7123889804 4.7123889804 1.5707963268 1.5707963268 3.6951670125 
5.7296109483 2.5880182947 0.5535743589 6.2831853072 6.2831853072 6.2831853072 6.2831853072 3.1415926536 3.1415926536 
3.1415926536 3.1415926536 3.1415926536 6.1053039672 5.898798347 5.6768734901 5.4599499503 5.2659633393 5.1032165617 
4.9713148346 4.8656852733 4.7809517865 0.17788134 0.38438696014 0.60631181711 0.82323535693 1.0172219679 1.1799687454 
1.3118704726 1.4175000338 1.5022335207 6.1892828907 6.1070320098 6.035312792 5.9728339911 5.9183214791 5.8706119594 
5.8286879411 5.7916808611 5.7588591896 0.093902416448 0.17615329733 0.2478725152 0.31035131605 0.36486382811 0.41257334776 
0.45449736604 0.4915044461 0.52432611754 3.3194739936 3.5259796137 3.7479044707 3.9648280105 4.1588146215 4.321561399 
4.4534631262 4.5590926874 4.6438261743 2.9637113136 2.7572056934 2.5352808365 2.3183572967 2.1243706857 1.9616239082 
1.829722181 1.7240926197 1.6393591329 3.23549507 3.3177459509 3.3894651688 3.4519439696 3.5064564817 3.5541660013 
3.5960900196 3.6330970997 3.6659187711 3.0476902371 2.9654393563 2.8937201384 2.8312413375 2.7767288255 2.7290193058 
2.6870952876 2.6500882075 2.617266536 6.2831853072 6.2831853072 6.2831853072 6.2831853072 3.1415926536 3.1415926536 
3.1415926536 3.1415926536 3.1415926536 6.1053039672 5.898798347 5.6768734901 5.4599499503 5.2659633393 5.1032165617 
4.9713148346 4.8656852733 4.7809517865 0.17788134 0.38438696014 0.60631181711 0.82323535693 1.0172219679 1.1799687454 
1.3118704726 1.4175000338 1.5022335207 6.1892828907 6.1070320098 6.035312792 5.9728339911 5.9183214791 5.8706119594 
5.8286879411 5.7916808611 5.7588591896 0.093902416448 0.17615329733 0.2478725152 0.31035131605 0.36486382811 0.41257334776 
0.45449736604 0.4915044461 0.52432611754 3.3194739936 3.5259796137 3.7479044707 3.9648280105 4.1588146215 4.321561399 
4.4534631262 4.5590926874 4.6438261743 2.9637113136 2.7572056934 2.5352808365 2.3183572967 2.1243706857 1.9616239082 
1.829722181 1.7240926197 1.6393591329 3.23549507 3.3177459509 3.3894651688 3.4519439696 3.5064564817 3.5541660013 
3.5960900196 3.6330970997 3.6659187711 3.0476902371 2.9654393563 2.8937201384 2.8312413375 2.7767288255 2.7290193058 
2.6870952876 2.6500882075 2.617266536 4.7123889804 4.7123889804 4.7123889804 4.7123889804 4.7123889804 4.7123889804 
4.7123889804 4.7123889804 4.7123889804 4.6087898617 4.4991390697 4.3857031936 4.2712800401 4.1588146215 4.0509635631 
3.94975894 3.8564636551 3.7716124825 4.8159880991 4.9256388911 5.0390747672 5.1534979207 5.2659633393 5.3738143976 
5.4750190208 5.5683143056 5.6531654782 4.6087898617 4.4991390697 4.3857031936 4.2712800401 4.1588146215 4.0509635631 
3.94975894 3.8564636551 3.7716124825 4.8159880991 4.9256388911 5.0390747672 5.1534979207 5.2659633393 5.3738143976 
5.4750190208 5.5683143056 5.6531654782 1.5707963268 1.5707963268 1.5707963268 1.5707963268 1.5707963268 1.5707963268 
1.5707963268 1.5707963268 1.5707963268 1.6743954455 1.7840462375 1.8974821136 2.0119052671 2.1243706857 2.232221744 
2.3334263672 2.426721652 2.5115728246 1.4671972081 1.3575464161 1.24411054 1.1296873865 1.0172219679 0.90937090954 
0.80816628637 0.71487100155 0.63001982895 1.6743954455 1.7840462375 1.8974821136 2.0119052671 2.1243706857 2.232221744 
2.3334263672 2.426721652 2.5115728246 1.4671972081 1.3575464161 1.24411054 1.1296873865 1.0172219679 0.90937090954 
0.80816628637 0.71487100155 0.63001982895 3.6007720849 3.4966939854 3.3839471039 3.2645756454 3.1415926536 3.0186096618 
2.8992382033 2.7864913217 2.6824132222 5.8240058758 5.9280839753 6.0408308569 6.1602023154 6.2831853072 0.12298299178 
0.2423544503 0.35510133185 0.45917943135 6.0560271438 5.7885595667 5.9702140275 5.5125918794 5.6029703303 5.7885595667 
5.2659633393 5.2659633393 5.2659633393 5.2659633393 5.0674903122 5.0120975802 4.9155579264 4.7123889804 4.1588146215 
4.9155579264 4.8353719722 4.7123889804 4.5092200343 4.1588146215 3.6362183941 4.8004512023 4.7123889804 4.5894059886 
4.4126803806 4.1588146215 3.8218076305 3.4545639333 4.7123889804 4.6243267584 4.5092200343 4.3572876485 4.1588146215 
3.9121860814 3.6362183941 3.368750817 6.0174235957 5.9434319871 5.8263323547 5.8809213739 5.7674481418 5.6279784266 
5.8278025282 5.718968232 5.5891129425 5.4372443565 5.7823484065 5.678536687 5.5575666702 5.4192596322 5.2659633393 
5.743164462 5.6444075337 5.5314983644 5.4046708639 5.2659633393 5.1195510325 5.7091357773 5.6152775188 5.5096229709 
5.3926039573 5.2659633393 5.1329233157 4.9978930058 5.6793730533 5.5901633916 5.4910209005 5.3824597928 5.2659633393 
5.1440684722 5.0201624502 4.8979782167 5.5683143056 5.4750190208 5.4750190208 5.3738143976 5.3738143976 5.3738143976 
5.2659633393 5.2659633393 5.2659633393 5.2659633393 5.1534979207 5.1534979207 5.1534979207 5.1534979207 5.1534979207 
5.0390747672 5.0390747672 5.0390747672 5.0390747672 5.0390747672 5.0390747672 4.9256388911 4.9256388911 4.9256388911 
4.9256388911 4.9256388911 4.9256388911 4.9256388911 4.8159880991 4.8159880991 4.8159880991 4.8159880991 4.8159880991 
4.8159880991 4.8159880991 4.8159880991 4.6087898617 4.6087898617 4.4991390697 4.6087898617 4.4991390697 4.3857031936 
4.6087898617 4.4991390697 4.3857031936 4.2712800401 4.6087898617 4.4991390697 4.3857031936 4.2712800401 4.1588146215 
4.6087898617 4.4991390697 4.3857031936 4.2712800401 4.1588146215 4.0509635631 4.6087898617 4.4991390697 4.3857031936 
4.2712800401 4.1588146215 4.0509635631 3.94975894 4.6087898617 4.4991390697 4.3857031936 4.2712800401 4.1588146215 
4.0509635631 3.94975894 3.8564636551 4.526799744 4.4046155105 4.426884955 4.2807094886 4.2918546451 4.3052269283 
4.1588146215 4.1588146215 4.1588146215 4.1588146215 4.042318168 4.0321740035 4.0201070968 4.0055183285 3.9875336042 
3.9337570603 3.9151549899 3.8932795963 3.8672112905 3.8356650183 3.7967995342 3.8346145692 3.809500442 3.7803704271 
3.7462412737 3.7058097288 3.657329819 3.5984456061 3.7454049075 3.7156421835 3.6816134988 3.6424295543 3.5969754326 
3.5438565869 3.4813459737 3.4073543651 3.5642842451 3.4524645613 3.5233842518 3.3320300872 3.403123212 3.4773852225 
3.20576226 3.2746326772 3.348015857 3.4255060145 3.0774230472 3.1415926536 3.2112816139 3.2864685043 3.3668817272 
2.95115522 3.00855263 3.0719036933 3.1415926536 3.2178377658 3.3005964304 2.8307207459 2.8800620952 2.9351694502 
2.9967168029 3.0653475414 3.1415926536 3.225752376 2.718901062 2.7598010554 2.8058000847 2.8576792927 2.91630358 
2.9825888767 3.0574329311 3.1415926536 3.5642842451 3.5233842518 3.4524645613 3.4773852225 3.403123212 3.3320300872 
3.4255060145 3.348015857 3.2746326772 3.20576226 3.3668817272 3.2864685043 3.2112816139 3.1415926536 3.0774230472 
3.3005964304 3.2178377658 3.1415926536 3.0719036933 3.00855263 2.95115522 3.225752376 3.1415926536 3.0653475414 
2.9967168029 2.9351694502 2.8800620952 2.8307207459 3.1415926536 3.0574329311 2.9825888767 2.91630358 2.8576792927 
2.8058000847 2.7598010554 2.718901062 4.526799744 4.426884955 4.4046155105 4.3052269283 4.2918546451 4.2807094886 
4.1588146215 4.1588146215 4.1588146215 4.1588146215 3.9875336042 4.0055183285 4.0201070968 4.0321740035 4.042318168 
3.7967995342 3.8356650183 3.8672112905 3.8932795963 3.9151549899 3.9337570603 3.5984456061 3.657329819 3.7058097288 
3.7462412737 3.7803704271 3.809500442 3.8346145692 3.4073543651 3.4813459737 3.5438565869 3.5969754326 3.6424295543 
3.6816134988 3.7156421835 3.7454049075 4.7123889804 4.8004512023 4.6243267584 4.9155579264 4.7123889804 4.5092200343 
5.0674903122 4.8353719722 4.5894059886 4.3572876485 5.2659633393 5.0120975802 4.7123889804 4.4126803806 4.1588146215 
5.5125918794 5.2659633393 4.9155579264 4.5092200343 4.1588146215 3.9121860814 5.7885595667 5.6029703303 5.2659633393 
4.7123889804 4.1588146215 3.8218076305 3.6362183941 6.0560271438 5.9702140275 5.7885595667 5.2659633393 4.1588146215 
3.6362183941 3.4545639333 3.368750817 0.22715816343 0.49462574053 0.3129712797 0.77059342779 0.68021497688 0.49462574053 
1.0172219679 1.0172219679 1.0172219679 1.0172219679 1.2156949949 1.271087727 1.3676273807 1.5707963268 2.1243706857 
1.3676273807 1.447813335 1.5707963268 1.7739652728 2.1243706857 2.6469669131 1.4827341049 1.5707963268 1.6937793186 
1.8705049266 2.1243706857 2.4613776767 2.8286213739 1.5707963268 1.6588585487 1.7739652728 1.9258976586 2.1243706857 
2.3709992258 2.6469669131 2.9144344902 1.7563855631 1.8785697967 1.8563003522 2.0024758186 1.9913306621 1.9779583789 
2.1243706857 2.1243706857 2.1243706857 2.1243706857 2.2408671392 2.2510113037 2.2630782103 2.2776669786 2.295651703 
2.3494282469 2.3680303173 2.3899057108 2.4159740166 2.4475202889 2.486385773 2.448570738 2.4736848652 2.5028148801 
2.5369440334 2.5773755784 2.6258554882 2.6847397011 2.5377803997 2.5675431237 2.6015718084 2.6407557529 2.6862098746 
2.7393287203 2.8018393335 2.8758309421 1.6743954455 1.6743954455 1.7840462375 1.6743954455 1.7840462375 1.8974821136 
1.6743954455 1.7840462375 1.8974821136 2.0119052671 1.6743954455 1.7840462375 1.8974821136 2.0119052671 2.1243706857 
1.6743954455 1.7840462375 1.8974821136 2.0119052671 2.1243706857 2.232221744 1.6743954455 1.7840462375 1.8974821136 
2.0119052671 2.1243706857 2.232221744 2.3334263672 1.6743954455 1.7840462375 1.8974821136 2.0119052671 2.1243706857 
2.232221744 2.3334263672 2.426721652 1.4671972081 1.3575464161 1.4671972081 1.24411054 1.3575464161 1.4671972081 
1.1296873865 1.24411054 1.3575464161 1.4671972081 1.0172219679 1.1296873865 1.24411054 1.3575464161 1.4671972081 
0.90937090954 1.0172219679 1.1296873865 1.24411054 1.3575464161 1.4671972081 0.80816628637 0.90937090954 1.0172219679 
1.1296873865 1.24411054 1.3575464161 1.4671972081 0.71487100155 0.80816628637 0.90937090954 1.0172219679 1.1296873865 
1.24411054 1.3575464161 1.4671972081 0.60381225391 0.57404952988 0.69302191562 0.54002084522 0.66790778838 0.79216440667 
0.50083690068 0.63877777351 0.77356233629 0.90072551443 0.45538277901 0.60464862014 0.75168694275 0.89058134991 1.0172219679 
0.40226393329 0.56421707518 0.72561863695 0.87851444325 1.0172219679 1.139116835 0.33975332011 0.51573716537 0.69407236469 
0.86392567495 1.0172219679 1.1502619915 1.2630228569 0.26576171152 0.45685295248 0.6552068806 0.84594095064 1.0172219679 
1.1636342747 1.2852923014 1.3852070904 0.22715816343 0.3129712797 0.49462574053 0.49462574053 0.68021497688 0.77059342779 
1.0172219679 1.0172219679 1.0172219679 1.0172219679 2.1243706857 1.5707963268 1.3676273807 1.271087727 1.2156949949 
2.6469669131 2.1243706857 1.7739652728 1.5707963268 1.447813335 1.3676273807 2.8286213739 2.4613776767 2.1243706857 
1.8705049266 1.6937793186 1.5707963268 1.4827341049 2.9144344902 2.6469669131 2.3709992258 2.1243706857 1.9258976586 
1.7739652728 1.6588585487 1.5707963268 1.7563855631 1.8563003522 1.8785697967 1.9779583789 1.9913306621 2.0024758186 
2.1243706857 2.1243706857 2.1243706857 2.1243706857 2.295651703 2.2776669786 2.2630782103 2.2510113037 2.2408671392 
2.486385773 2.4475202889 2.4159740166 2.3899057108 2.3680303173 2.3494282469 2.6847397011 2.6258554882 2.5773755784 
2.5369440334 2.5028148801 2.4736848652 2.448570738 2.8758309421 2.8018393335 2.7393287203 2.6862098746 2.6407557529 
2.6015718084 2.5675431237 2.5377803997 5.8604937156 5.901393709 5.9723133995 5.9473927383 6.0216547488 6.0927478736 
5.9992719463 6.0767621038 6.1501452836 6.2190157008 6.0578962336 6.1383094565 6.2134963469 0 0.064169606361 
6.1241815303 6.206940195 6.2831853072 0.069688960264 0.13304002361 0.19043743361 6.1990255847 0 0.07624511221 
0.14487585072 0.20642320337 0.26153055843 0.3108719077 0 0.084159722458 0.15900377685 0.22528907359 0.28391336087 
0.3357925689 0.38179159818 0.42269159155 5.8604937156 5.9723133995 5.901393709 6.0927478736 6.0216547488 5.9473927383 
6.2190157008 6.1501452836 6.0767621038 5.9992719463 0.064169606361 0 6.2134963469 6.1383094565 6.0578962336 
0.19043743361 0.13304002361 0.069688960264 6.2831853072 6.206940195 6.1241815303 0.3108719077 0.26153055843 0.20642320337 
0.14487585072 0.07624511221 6.2831853072 6.1990255847 0.42269159155 0.38179159818 0.3357925689 0.28391336087 0.22528907359 
0.15900377685 0.084159722458 0 5.6793730533 5.7091357773 5.5901633916 5.743164462 5.6152775188 5.4910209005 
5.7823484065 5.6444075337 5.5096229709 5.3824597928 5.8278025282 5.678536687 5.5314983644 5.3926039573 5.2659633393 
5.8809213739 5.718968232 5.5575666702 5.4046708639 5.2659633393 5.1440684722 5.9434319871 5.7674481418 5.5891129425 
5.4192596322 5.2659633393 5.1329233157 5.0201624502 6.0174235957 5.8263323547 5.6279784266 5.4372443565 5.2659633393 
5.1195510325 4.9978930058 4.8979782167 1.3852070904 1.2852923014 1.2630228569 1.1636342747 1.1502619915 1.139116835 
1.0172219679 1.0172219679 1.0172219679 1.0172219679 0.84594095064 0.86392567495 0.87851444325 0.89058134991 0.90072551443 
0.6552068806 0.69407236469 0.72561863695 0.75168694275 0.77356233629 0.79216440667 0.45685295248 0.51573716537 0.56421707518 
0.60464862014 0.63877777351 0.66790778838 0.69302191562 0.26576171152 0.33975332011 0.40226393329 0.45538277901 0.50083690068 
0.54002084522 0.57404952988 0.60381225391 
_paraPhiHalf 1 1002 double
0 3.1415926536 0 3.1415926536 1.5707963268 1.5707963268 1.5707963268 1.5707963268 2.5880182947 
0.5535743589 2.5880182947 0.5535743589 0 0 0 0 3.1415926536 3.1415926536 
3.1415926536 3.1415926536 3.1415926536 0.17788134 0.38438696014 0.60631181711 0.82323535693 1.0172219679 1.1799687454 
1.3118704726 1.4175000338 1.5022335207 0.17788134 0.38438696014 0.60631181711 0.82323535693 1.0172219679 1.1799687454 
1.3118704726 1.4175000338 1.5022335207 0.093902416448 0.17615329733 0.2478725152 0.31035131605 0.36486382811 0.41257334776 
0.45449736604 0.4915044461 0.52432611754 0.093902416448 0.17615329733 0.2478725152 0.31035131605 0.36486382811 0.41257334776 
0.45449736604 0.4915044461 0.52432611754 2.9637113136 2.7572056934 2.5352808365 2.3183572967 2.1243706857 1.9616239082 
1.829722181 1.7240926197 1.6393591329 2.9637113136 2.7572056934 2.5352808365 2.3183572967 2.1243706857 1.9616239082 
1.829722181 1.7240926197 1.6393591329 3.0476902371 2.9654393563 2.8937201384 2.8312413375 2.7767288255 2.7290193058 
2.6870952876 2.6500882075 2.617266536 3.0476902371 2.9654393563 2.8937201384 2.8312413375 2.7767288255 2.7290193058 
2.6870952876 2.6500882075 2.617266536 0 0 0 0 3.1415926536 3.1415926536 
3.1415926536 3.1415926536 3.1415926536 0.17788134 0.38438696014 0.60631181711 0.82323535693 1.0172219679 1.1799687454 
1.3118704726 1.4175000338 1.5022335207 0.17788134 0.38438696014 0.60631181711 0.82323535693 1.0172219679 1.1799687454 
1.3118704726 1.4175000338 1.5022335207 0.093902416448 0.17615329733 0.2478725152 0.31035131605 0.36486382811 0.41257334776 
0.45449736604 0.4915044461 0.52432611754 0.093902416448 0.17615329733 0.2478725152 0.31035131605 0.36486382811 0.41257334776 
0.45449736604 0.4915044461 0.52432611754 2.9637113136 2.7572056934 2.5352808365 2.3183572967 2.1243706857 1.9616239082 
1.829722181 1.7240926197 1.6393591329 2.9637113136 2.7572056934 2.5352808365 2.3183572967 2.1243706857 1.9616239082 
1.829722181 1.7240926197 1.6393591329 3.0476902371 2.9654393563 2.8937201384 2.8312413375 2.7767288255 2.7290193058 
2.6870952876 2.6500882075 2.617266536 3.0476902371 2.9654393563 2.8937201384 2.8312413375 2.7767288255 2.7290193058 
2.6870952876 2.6500882075 2.617266536 1.5707963268 1.5707963268 1.5707963268 1.5707963268 1.5707963268 1.5707963268 
1.5707963268 1.5707963268 1.5707963268 1.6743954455 1.7840462375 1.8974821136 2.0119052671 2.1243706857 2.232221744 
2.3334263672 2.426721652 2.5115728246 1.4671972081 1.3575464161 1.24411054 1.1296873865 1.0172219679 0.90937090954 
0.80816628637 0.71487100155 0.63001982895 1.6743954455 1.7840462375 1.8974821136 2.0119052671 2.1243706857 2.232221744 
2.3334263672 2.426721652 2.5115728246 1.4671972081 1.3575464161 1.24411054 1.1296873865 1.0172219679 0.90937090954 
0.80816628637 0.71487100155 0.63001982895 1.5707963268 1.5707963268 1.5707963268 1.5707963268 1.5707963268 1.5707963268 
1.5707963268 1.5707963268 1.5707963268 1.6743954455 1.7840462375 1.8974821136 2.0119052671 2.1243706857 2.232221744 
2.3334263672 2.426721652 2.5115728246 1.4671972081 1.3575464161 1.24411054 1.1296873865 1.0172219679 0.90937090954 
0.80816628637 0.71487100155 0.63001982895 1.6743954455 1.7840462375 1.8974821136 2.0119052671 2.1243706857 2.232221744 
2.3334263672 2.426721652 2.5115728246 1.4671972081 1.3575464161 1.24411054 1.1296873865 1.0172219679 0.90937090954 
0.80816628637 0.71487100155 0.63001982895 2.6824132222 2.7864913217 2.8992382033 3.0186096618 3.1415926536 3.0186096618 
2.8992382033 2.7864913217 2.6824132222 0.45917943135 0.35510133185 0.2423544503 0.12298299178 0 0.12298299178 
0.2423544503 0.35510133185 0.45917943135 0.22715816343 0.49462574053 0.3129712797 0.77059342779 0.68021497688 0.49462574053 
1.0172219679 1.0172219679 1.0172219679 1.0172219679 1.2156949949 1.271087727 1.3676273807 1.5707963268 2.1243706857 
1.3676273807 1.447813335 1.5707963268 1.7739652728 2.1243706857 2.6469669131 1.4827341049 1.5707963268 1.6937793186 
1.8705049266 2.1243706857 2.4613776767 2.8286213739 1.5707963268 1.6588585487 1.7739652728 1.9258976586 2.1243706857 
2.3709992258 2.6469669131 2.9144344902 0.26576171152 0.33975332011 0.45685295248 0.40226393329 0.51573716537 0.6552068806 
0.45538277901 0.56421707518 0.69407236469 0.84594095064 0.50083690068 0.60464862014 0.72561863695 0.86392567495 1.0172219679 
0.54002084522 0.63877777351 0.75168694275 0.87851444325 1.0172219679 1.1636342747 0.57404952988 0.66790778838 0.77356233629 
0.89058134991 1.0172219679 1.1502619915 1.2852923014 0.60381225391 0.69302191562 0.79216440667 0.90072551443 1.0172219679 
1.139116835 1.2630228569 1.3852070904 0.71487100155 0.80816628637 0.80816628637 0.90937090954 0.90937090954 0.90937090954 
1.0172219679 1.0172219679 1.0172219679 1.0172219679 1.1296873865 1.1296873865 1.1296873865 1.1296873865 1.1296873865 
1.24411054 1.24411054 1.24411054 1.24411054 1.24411054 1.24411054 1.3575464161 1.3575464161 1.3575464161 
1.3575464161 1.3575464161 1.3575464161 1.3575464161 1.4671972081 1.4671972081 1.4671972081 1.4671972081 1.4671972081 
1.4671972081 1.4671972081 1.4671972081 1.6743954455 1.6743954455 1.7840462375 1.6743954455 1.7840462375 1.8974821136 
1.6743954455 1.7840462375 1.8974821136 2.0119052671 1.6743954455 1.7840462375 1.8974821136 2.0119052671 2.1243706857 
1.6743954455 1.7840462375 1.8974821136 2.0119052671 2.1243706857 2.232221744 1.6743954455 1.7840462375 1.8974821136 
2.0119052671 2.1243706857 2.232221744 2.3334263672 1.6743954455 1.7840462375 1.8974821136 2.0119052671 2.1243706857 
2.232221744 2.3334263672 2.426721652 1.7563855631 1.8785697967 1.8563003522 2.0024758186 1.9913306621 1.9779583789 
2.1243706857 2.1243706857 2.1243706857 2.1243706857 2.2408671392 2.2510113037 2.2630782103 2.2776669786 2.295651703 
2.3494282469 2.3680303173 2.3899057108 2.4159740166 2.4475202889 2.486385773 2.448570738 2.4736848652 2.5028148801 
2.5369440334 2.5773755784 2.6258554882 2.6847397011 2.5377803997 2.5675431237 2.6015718084 2.6407557529 2.6862098746 
2.7393287203 2.8018393335 2.8758309421 2.718901062 2.8307207459 2.7598010554 2.95115522 2.8800620952 2.8058000847 
3.0774230472 3.00855263 2.9351694502 2.8576792927 3.0774230472 3.1415926536 3.0719036933 2.9967168029 2.91630358 
2.95115522 3.00855263 3.0719036933 3.1415926536 3.0653475414 2.9825888767 2.8307207459 2.8800620952 2.9351694502 
2.9967168029 3.0653475414 3.1415926536 3.0574329311 2.718901062 2.7598010554 2.8058000847 2.8576792927 2.91630358 
2.9825888767 3.0574329311 3.1415926536 2.718901062 2.7598010554 2.8307207459 2.8058000847 2.8800620952 2.95115522 
2.8576792927 2.9351694502 3.00855263 3.0774230472 2.91630358 2.9967168029 3.0719036933 3.1415926536 3.0774230472 
2.9825888767 3.0653475414 3.1415926536 3.0719036933 3.00855263 2.95115522 3.0574329311 3.1415926536 3.0653475414 