# vtk DataFile Version 5.1
vtk output
ASCII
DATASET POLYDATA
POINTS 1002 float
12.0928 37.215 16.6637 23.2046 42.1754 14.5663 15.8293 31.7665 9.66132 
23.8656 38.9486 9.36597 21.5539 35.399 18.3351 23.8882 31.2428 14.6245 
15.0964 42.5611 11.0193 17.4693 39.9563 6.58724 29.5093 40.4582 14.8923 
11.3156 29.8896 16.6881 24.7511 46.4526 8.76421 8.554 35.0922 10.5851 
12.7907 38.1527 17.0038 13.749 39.0086 17.2282 14.935 39.5156 17.0363 
16.1509 39.6374 16.3942 17.3024 39.6675 15.6572 18.5145 39.9183 15.1767 
19.8534 40.4111 14.9481 21.1784 40.9913 14.7939 22.3181 41.5762 14.6509 
12.5944 36.843 16.8252 13.2649 36.4657 16.9809 14.1209 36.1718 17.1884 
15.1006 36.065 17.4906 16.1994 36.107 17.8174 17.4998 36.0729 18.0054 
18.9047 35.8335 17.9996 20.1057 35.541 17.9532 20.9458 35.3927 18.054 
12.0175 38.1482 16.67 11.9502 38.9638 16.5129 12.008 39.4564 15.9634 
12.3349 39.7096 15.0357 12.8912 40.0463 14.1124 13.4335 40.6171 13.511 
13.821 41.2594 13.0644 14.161 41.7957 12.4601 14.5886 42.2114 11.7079 
11.741 36.1135 16.5499 11.3407 35.1341 16.6616 10.9036 34.2822 16.9214 
10.4386 33.4045 17.1654 9.95244 32.4307 17.4163 9.55304 31.4766 17.7696 
9.45997 30.6965 18.0421 9.80304 30.1793 17.9239 10.4904 29.9345 17.3896 
11.4464 36.8932 16.3653 10.7239 36.6652 16.1148 9.90821 36.5278 15.87 
9.18881 36.324 15.4501 8.74879 35.9904 14.7566 8.49557 35.7077 13.879 
8.28039 35.6043 12.9355 8.17554 35.5475 12.0112 8.28758 35.3751 11.2079 
23.1243 41.7033 14.9406 23.0327 41.1788 15.3109 23.0049 40.5594 15.6644 
22.9828 39.7391 15.9688 22.8266 38.7118 16.1975 22.5332 37.701 16.4503 
22.2293 36.9466 16.8844 21.9744 36.4305 17.4653 21.7486 35.9585 17.9907 
22.6597 42.2543 14.2322 21.8356 42.3852 13.9429 20.8424 42.5343 13.6712 
19.9589 42.5688 13.3116 19.2624 42.4403 12.8145 18.4952 42.3313 12.298 
17.5075 42.4114 11.907 16.4967 42.5832 11.6295 15.6871 42.6517 11.3542 
23.8951 42.5629 14.8279 24.5696 43.0042 15.211 25.3985 43.4128 15.6174 
26.4249 43.7284 15.9729 27.4487 43.8482 16.3036 28.3057 43.5382 16.5518 
29.0313 42.7002 16.4878 29.5859 41.6551 16.027 29.7729 40.8568 15.4011 
23.669 42.8734 14.3128 24.0149 43.6427 14.0856 24.1882 44.4572 13.9038 
24.2313 45.3102 13.6915 24.2614 46.1414 13.2967 24.3447 46.779 12.6426 
24.4676 47.0628 11.7813 24.6037 47.0035 10.7903 24.7164 46.7513 9.74486 
16.6578 32.3425 9.67019 17.6455 32.8614 9.62896 18.6816 33.4137 9.60134 
19.6095 34.1776 9.63456 20.5005 35.0798 9.61471 21.514 35.8374 9.40464 
22.5109 36.4339 9.10922 23.2144 37.129 8.97584 23.6041 38.0197 9.09597 
16.4718 31.6833 10.0651 17.1263 31.6423 10.5483 17.8873 31.5676 11.0379 
18.8974 31.3415 11.4421 20.1297 30.9796 11.7427 21.3518 30.6862 12.0524 
22.365 30.6116 12.5227 23.1149 30.7124 13.1874 23.6081 30.9192 13.9361 
15.6717 32.3099 9.35073 15.5847 33.0254 9.14262 15.6185 33.8749 9.04294 
15.759 34.6946 8.84875 15.9863 35.3546 8.32506 16.329 35.9799 7.60378 
16.7521 36.8129 7.07854 17.1148 37.88 6.86799 17.3356 38.9862 6.75979 
15.4658 31.0985 9.84363 15.0287 30.4538 10.0221 14.4211 29.983 10.3485 
13.6834 29.8337 11.1001 12.9983 29.9649 12.2813 12.484 30.1358 13.468 
12.0914 30.1591 14.3454 11.7496 30.0535 15.063 11.4739 29.9352 15.8539 
14.8943 31.4671 9.42842 13.8172 31.2414 9.2544 12.6631 31.2184 9.1682 
11.5365 31.42 9.13498 10.5242 31.7327 9.15794 9.71445 32.0907 9.31976 
9.17635 32.6034 9.63582 8.86583 33.3681 9.99765 8.67334 34.2711 10.3132 
23.9622 38.259 9.73729 23.9806 37.5636 10.2632 23.9196 36.8561 10.909 
23.896 36.0418 11.5003 23.9974 35.046 11.9424 24.1121 33.9738 12.3538 
24.0869 33.0451 12.8504 23.9651 32.346 13.4091 23.888 31.7784 13.9978 
23.5547 39.0743 8.86214 23.1378 39.2075 8.37471 22.6088 39.3631 7.92871 
22.0137 39.5426 7.52193 21.392 39.6948 7.13772 20.7045 39.7391 6.77978 
19.8834 39.6912 6.49045 18.9737 39.6802 6.33901 18.132 39.786 6.37636 
24.228 39.3997 9.89123 24.7066 39.779 10.4261 25.2889 40.0927 10.9195 
25.8719 40.4185 11.4477 26.3894 40.7782 12.1302 26.9147 41.0483 12.8849 
27.5625 41.0794 13.4834 28.3174 40.8808 13.8998 29.0217 40.6188 14.3297 
23.9925 39.9324 9.34534 24.2523 40.8487 9.20501 24.6104 41.614 8.87056 
24.8837 42.3994 8.51751 24.9889 43.4168 8.38377 25.0877 44.5081 8.39353 
25.2761 45.3252 8.31927 25.3705 45.819 8.22201 25.1813 46.1702 8.34813 
21.8264 34.967 18.7208 22.2267 34.2702 19.0542 22.776 33.3163 19.1753 
23.3084 32.3954 18.9809 23.6288 31.8139 18.5091 23.7711 31.5433 17.8758 
23.8875 31.3737 17.1451 23.9866 31.241 16.3252 23.989 31.1947 15.4559 
22.3344 35.8511 18.5303 23.3664 36.2964 18.7066 24.4545 36.6958 18.7345 
25.2627 37.1809 18.4459 25.8277 37.9367 17.8361 26.5952 38.8569 17.1406 
27.7201 39.5789 16.5591 28.8007 39.9496 16.0485 29.4144 40.1643 15.4928 
21.0484 34.6906 18.3114 20.4715 33.9357 18.1867 19.6322 33.2107 18.0501 
18.5058 32.4156 17.9775 17.2915 31.4825 17.9948 16.0717 30.648 18.0704 
14.7408 30.1747 18.0625 13.3566 30.0018 17.8023 12.1672 29.932 17.2911 
24.1034 32.0689 14.8171 24.5673 33.033 14.9456 25.4303 33.9262 15.0355 
26.3275 34.6513 15.0963 26.6624 35.4987 15.1043 26.5488 36.8214 15.0519 
26.7987 38.3639 14.9729 27.7375 39.4962 14.9075 28.8357 40.062 14.8785 
23.7246 30.4875 14.8978 23.2216 29.9403 15.1573 22.1473 29.8421 15.3171 
20.6952 30.089 15.3857 19.2541 30.2567 15.5213 17.8178 30.1522 15.7988 
16.153 29.9879 16.0691 14.3517 29.9305 16.2353 12.7 29.9195 16.4079 
15.1093 42.6763 10.4007 15.1015 42.8254 9.7495 15.125 42.992 9.05909 
15.3723 43.0268 8.33845 15.9054 42.762 7.66802 16.4668 42.252 7.16464 
16.8106 41.6998 6.86982 17.0005 41.1698 6.72227 17.2063 40.5932 6.64081 
16.0186 42.9655 10.6702 17.078 43.3489 10.4045 18.1823 43.7771 10.1608 
19.2634 44.287 9.86895 20.2674 44.8398 9.61177 21.1277 45.3964 9.47229 
21.9126 45.9167 9.32401 22.8072 46.3 9.06168 23.8213 46.4689 8.81745 
14.2621 42.1151 11.0026 13.391 41.5597 10.9206 12.463 41.034 10.8002 
11.5654 40.4963 10.7006 10.8267 39.6999 10.641 10.246 38.6131 10.582 
9.71898 37.5428 10.5058 9.21523 36.682 10.46 8.80628 35.916 10.4907 
18.0194 40.7352 6.19968 18.7428 41.514 5.88478 19.5958 42.2929 5.7912 
20.4735 43.0943 5.90884 21.2805 43.9484 6.04351 21.9785 44.8094 6.13015 
22.6373 45.5135 6.37571 23.3631 45.954 6.95861 24.1201 46.2186 7.81578 
16.8341 39.5433 7.06377 16.0917 39.0207 7.60862 14.9731 38.3592 7.9884 
13.4057 37.6191 8.04482 11.7824 36.9416 7.99868 10.6099 36.408 8.23593 
9.93889 35.9831 8.79517 9.46558 35.6252 9.42547 8.99648 35.3331 10.0032 
29.4637 41.1826 14.4849 29.1537 42.3889 13.9933 28.9242 43.7934 13.4851 
28.7488 44.8331 12.9626 28.2095 45.3529 12.3741 27.2944 45.727 11.7193 
26.5028 46.1594 11.0179 26.0023 46.4667 10.2544 25.4865 46.5301 9.46489 
10.1309 29.8533 16.5405 8.91642 29.8852 16.3114 7.70993 30.0602 15.7499 
6.89546 30.3533 14.7975 6.84729 30.749 13.7673 7.33379 31.3686 12.9631 
7.79204 32.2893 12.3303 8.03749 33.3531 11.7049 8.24781 34.3217 11.0941 
13.4979 37.7124 17.0611 14.3941 37.1654 17.0224 14.6639 38.448 17.0976 
15.4034 36.7364 17.0562 15.6733 37.7422 16.8601 15.8902 38.8853 16.757 
16.4373 36.6375 17.301 16.6655 37.2627 16.8226 16.8089 38.1963 16.5075 
16.9868 39.1175 16.1751 17.5592 36.725 17.6347 17.6696 37.1964 17.0806 
17.7423 37.8108 16.5594 17.8369 38.661 16.123 18.1074 39.407 15.6687 
18.8328 36.6316 17.7936 18.8221 37.2192 17.3395 18.8626 37.7269 16.7837 
18.9291 38.4289 16.2711 19.1104 39.232 15.8077 19.4648 39.8803 15.3619 
20.0685 36.3066 17.7576 20.0626 36.9832 17.3601 20.1504 37.5756 16.8579 
20.2905 38.2743 16.3879 20.4285 39.1147 15.9686 20.6267 39.8758 15.5622 
20.9148 40.4634 15.1671 21.0344 36.0279 17.7676 21.1454 36.6227 17.3107 
21.3323 37.2345 16.7973 21.5893 38.0035 16.3846 21.7964 38.9415 16.0705 
21.8988 39.8367 15.7499 22.0023 40.5278 15.3921 22.1693 41.0733 15.021 
12.2299 35.7751 16.7942 11.8819 34.8741 16.995 12.8981 35.5499 17.132 
11.5427 34.0433 17.2781 12.6102 34.745 17.4502 13.7584 35.4444 17.5556 
11.168 33.1254 17.5037 12.3841 33.8794 17.7082 13.516 34.6623 17.9203 
14.7901 35.4183 17.9452 10.7955 32.1442 17.7476 12.1679 32.9046 17.8256 
13.4077 33.7208 18.0413 14.6506 34.5531 18.1716 16.0853 35.3573 18.1286 
10.6224 31.2432 18.0354 12.0394 31.928 17.9519 13.4211 32.7151 17.9885 
14.7239 33.558 18.0841 16.1677 34.3851 18.1058 17.6654 35.1601 18.0771 
10.8315 30.542 18.1345 12.1821 31.0491 18.1126 13.6263 31.7203 18.013 
14.9977 32.5539 17.9531 16.4272 33.4126 17.923 17.9254 34.1856 17.9307 
19.1997 34.8981 17.977 11.4039 30.1102 17.8555 12.6607 30.377 18.1058 
14.0891 30.8114 18.1147 15.4656 31.5345 17.9977 16.8149 32.4523 17.8877 
18.209 33.3031 17.8571 19.4433 34.0279 17.9315 20.3231 34.7295 18.0409 
13.8447 29.8895 17.0962 15.7582 29.9114 16.8905 15.2593 29.8859 17.646 
17.569 30.1217 16.5423 17.1836 29.9892 17.3224 16.6452 30.08 17.8945 
19.0276 30.4086 16.1534 18.7545 30.3616 16.851 18.3492 30.3142 17.5574 
17.8255 30.6782 17.9673 20.3824 30.3855 16.0295 20.0603 30.597 16.6099 
19.7301 30.6685 17.2946 19.353 30.9114 17.8916 18.9262 31.5646 18.0933 
21.879 30.0281 16.1509 21.4937 30.3424 16.8018 21.1015 30.6386 17.4256 
20.7409 30.9737 18.0434 20.366 31.5805 18.3738 19.9828 32.4159 18.2923 
23.1514 29.8912 16.1524 22.8808 30.0393 17.0128 22.504 30.3369 17.7211 
22.117 30.7404 18.3347 21.6883 31.3753 18.7362 21.2125 32.2779 18.754 
20.7936 33.2 18.4811 23.7991 30.35 15.871 23.7028 30.3498 16.8243 
23.4723 30.503 17.6511 23.1974 30.7846 18.3366 22.8409 31.2928 18.8483 
22.3242 32.1502 19.0675 21.7628 33.1857 18.9499 21.3357 34.069 18.634 
22.7333 35.4589 19.0014 23.2594 34.7476 19.2365 23.9206 35.9094 19.1442 
23.7969 33.8643 19.0716 24.4669 35.2398 19.1547 25.0338 36.2615 18.9709 
24.1201 33.1989 18.5422 24.8217 34.5649 18.6698 25.4343 35.6533 18.7072 
25.6839 36.6946 18.3728 24.183 32.9062 17.8388 24.9202 34.1904 17.8943 
25.636 35.1417 18.0299 25.9082 36.1161 17.9042 26.0534 37.4416 17.4898 
24.1732 32.7412 17.1045 24.9028 34.018 17.0868 25.7865 34.8357 17.2055 
26.146 35.5959 17.2118 26.1635 36.8632 16.9327 26.6648 38.3888 16.6274 
[...]
POINT_DATA 1002
FIELD FieldData 4
_paraPhi 1 1002 double
6.2831853072 3.1415926536 6.2831853072 3.1415926536 4.7123889804 4.7123889804 1.5707963268 1.5707963268 3.6951670125 
5.7296109483 2.5880182947 0.5535743589 6.2831853072 6.2831853072 6.2831853072 6.2831853072 3.1415926536 3.1415926536 
3.1415926536 3.1415926536 3.1415926536 6.1053039672 5.898798347 5.6768734901 5.4599499503 5.2659633393 5.1032165617 
4.9713148346 4.8656852733 4.7809517865 0.17788134 0.38438696014 0.60631181711 0.82323535693 1.0172219679 1.1799687454 
1.3118704726 1.4175000338 1.5022335207 6.1892828907 6.1070320098 6.035312792 5.9728339911 5.9183214791 5.8706119594 
5.8286879411 5.7916808611 5.7588591896 0.093902416448 0.17615329733 0.2478725152 0.31035131605 0.36486382811 0.41257334776 
0.45449736604 0.4915044461 0.52432611754 3.3194739936 3.5259796137 3.7479044707 3.9648280105 4.1588146215 4.321561399 
4.4534631262 4.5590926874 4.6438261743 2.9637113136 2.7572056934 2.5352808365 2.3183572967 2.1243706857 1.9616239082 
1.829722181 1.7240926197 1.6393591329 3.23549507 3.3177459509 3.3894651688 3.4519439696 3.5064564817 3.5541660013 
3.5960900196 3.6330970997 3.6659187711 3.0476902371 2.9654393563 2.8937201384 2.8312413375 2.7767288255 2.7290193058 
2.6870952876 2.6500882075 2.617266536 6.2831853072 6.2831853072 6.2831853072 6.2831853072 3.1415926536 3.1415926536 
3.1415926536 3.1415926536 3.1415926536 6.1053039672 5.898798347 5.6768734901 5.4599499503 5.2659633393 5.1032165617 
4.9713148346 4.8656852733 4.7809517865 0.17788134 0.38438696014 0.60631181711 0.82323535693 1.0172219679 1.1799687454 
1.3118704726 1.4175000338 1.5022335207 6.1892828907 6.1070320098 6.035312792 5.9728339911 5.9183214791 5.8706119594 
5.8286879411 5.7916808611 5.7588591896 0.093902416448 0.17615329733 0.2478725152 0.31035131605 0.36486382811 0.41257334776 
0.45449736604 0.4915044461 0.52432611754 3.3194739936 3.5259796137 3.7479044707 3.9648280105 4.1588146215 4.321561399 
4.4534631262 4.5590926874 4.6438261743 2.9637113136 2.7572056934 2.5352808365 2.3183572967 2.1243706857 1.9616239082 
1.829722181 1.7240926197 1.6393591329 3.23549507 3.3177459509 3.3894651688 3.4519439696 3.5064564817 3.5541660013 
3.5960900196 3.6330970997 3.6659187711 3.0476902371 2.9654393563 2.8937201384 2.8312413375 2.7767288255 2.7290193058 
2.6870952876 2.6500882075 2.617266536 4.7123889804 4.7123889804 4.7123889804 4.7123889804 4.7123889804 4.7123889804 
4.7123889804 4.7123889804 4.7123889804 4.6087898617 4.4991390697 4.3857031936 4.2712800401 4.1588146215 4.0509635631 
3.94975894 3.8564636551 3.7716124825 4.8159880991 4.9256388911 5.0390747672 5.1534979207 5.2659633393 5.3738143976 
5.4750190208 5.5683143056 5.6531654782 4.6087898617 4.4991390697 4.3857031936 4.2712800401 4.1588146215 4.0509635631 
3.94975894 3.8564636551 3.7716124825 4.8159880991 4.9256388911 5.0390747672 5.1534979207 5.2659633393 5.3738143976 
5.4750190208 5.5683143056 5.6531654782 1.5707963268 1.5707963268 1.5707963268 1.5707963268 1.5707963268 1.5707963268 
1.5707963268 1.5707963268 1.5707963268 1.6743954455 1.7840462375 1.8974821136 2.0119052671 2.1243706857 2.232221744 
2.3334263672 2.426721652 2.5115728246 1.4671972081 1.3575464161 1.24411054 1.1296873865 1.0172219679 0.90937090954 
0.80816628637 0.71487100155 0.63001982895 1.6743954455 1.7840462375 1.8974821136 2.0119052671 2.1243706857 2.232221744 
2.3334263672 2.426721652 2.5115728246 1.4671972081 1.3575464161 1.24411054 1.1296873865 1.0172219679 0.90937090954 
0.80816628637 0.71487100155 0.63001982895 3.6007720849 3.4966939854 3.3839471039 3.2645756454 3.1415926536 3.0186096618 
2.8992382033 2.7864913217 2.6824132222 5.8240058758 5.9280839753 6.0408308569 6.1602023154 6.2831853072 0.12298299178 
0.2423544503 0.35510133185 0.45917943135 6.0560271438 5.7885595667 5.9702140275 5.5125918794 5.6029703303 5.7885595667 
5.2659633393 5.2659633393 5.2659633393 5.2659633393 5.0674903122 5.0120975802 4.9155579264 4.7123889804 4.1588146215 
4.9155579264 4.8353719722 4.7123889804 4.5092200343 4.1588146215 3.6362183941 4.8004512023 4.7123889804 4.5894059886 
4.4126803806 4.1588146215 3.8218076305 3.4545639333 4.7123889804 4.6243267584 4.5092200343 4.3572876485 4.1588146215 
3.9121860814 3.6362183941 3.368750817 6.0174235957 5.9434319871 5.8263323547 5.8809213739 5.7674481418 5.6279784266 
5.8278025282 5.718968232 5.5891129425 5.4372443565 5.7823484065 5.678536687 5.5575666702 5.4192596322 5.2659633393 
5.743164462 5.6444075337 5.5314983644 5.4046708639 5.2659633393 5.1195510325 5.7091357773 5.6152775188 5.5096229709 
5.3926039573 5.2659633393 5.1329233157 4.9978930058 5.6793730533 5.5901633916 5.4910209005 5.3824597928 5.2659633393 
5.1440684722 5.0201624502 4.8979782167 5.5683143056 5.4750190208 5.4750190208 5.3738143976 5.3738143976 5.3738143976 
5.2659633393 5.2659633393 5.2659633393 5.2659633393 5.1534979207 5.1534979207 5.1534979207 5.1534979207 5.1534979207 
5.0390747672 5.0390747672 5.0390747672 5.0390747672 5.0390747672 5.0390747672 4.9256388911 4.9256388911 4.9256388911 
4.9256388911 4.9256388911 4.9256388911 4.9256388911 4.8159880991 4.8159880991 4.8159880991 4.8159880991 4.8159880991 
4.8159880991 4.8159880991 4.8159880991 4.6087898617 4.6087898617 4.4991390697 4.6087898617 4.4991390697 4.3857031936 
4.6087898617 4.4991390697 4.3857031936 4.2712800401 4.6087898617 4.4991390697 4.3857031936 4.2712800401 4.1588146215 
4.6087898617 4.4991390697 4.3857031936 4.2712800401 4.1588146215 4.0509635631 4.6087898617 4.4991390697 4.3857031936 
4.2712800401 4.1588146215 4.0509635631 3.94975894 4.6087898617 4.4991390697 4.3857031936 4.2712800401 4.1588146215 
4.0509635631 3.94975894 3.8564636551 4.526799744 4.4046155105 4.426884955 4.2807094886 4.2918546451 4.3052269283 
4.1588146215 4.1588146215 4.1588146215 4.1588146215 4.042318168 4.0321740035 4.0201070968 4.0055183285 3.9875336042 
3.9337570603 3.9151549899 3.8932795963 3.8672112905 3.8356650183 3.7967995342 3.8346145692 3.809500442 3.7803704271 
3.7462412737 3.7058097288 3.657329819 3.5984456061 3.7454049075 3.7156421835 3.6816134988 3.6424295543 3.5969754326 
3.5438565869 3.4813459737 3.4073543651 3.5642842451 3.4524645613 3.5233842518 3.3320300872 3.403123212 3.4773852225 
3.20576226 3.2746326772 3.348015857 3.4255060145 3.0774230472 3.1415926536 3.2112816139 3.2864685043 3.3668817272 
2.95115522 3.00855263 3.0719036933 3.1415926536 3.2178377658 3.3005964304 2.8307207459 2.8800620952 2.9351694502 
2.9967168029 3.0653475414 3.1415926536 3.225752376 2.718901062 2.7598010554 2.8058000847 2.8576792927 2.91630358 
2.9825888767 3.0574329311 3.1415926536 3.5642842451 3.5233842518 3.4524645613 3.4773852225 3.403123212 3.3320300872 
3.4255060145 3.348015857 3.2746326772 3.20576226 3.3668817272 3.2864685043 3.2112816139 3.1415926536 3.0774230472 
3.3005964304 3.2178377658 3.1415926536 3.0719036933 3.00855263 2.95115522 3.225752376 3.1415926536 3.0653475414 
2.9967168029 2.9351694502 2.8800620952 2.8307207459 3.1415926536 3.0574329311 2.9825888767 2.91630358 2.8576792927 
2.8058000847 2.7598010554 2.718901062 4.526799744 4.426884955 4.4046155105 4.3052269283 4.2918546451 4.2807094886 
4.1588146215 4.1588146215 4.1588146215 4.1588146215 3.9875336042 4.0055183285 4.0201070968 4.0321740035 4.042318168 
3.7967995342 3.8356650183 3.8672112905 3.8932795963 3.9151549899 3.9337570603 3.5984456061 3.657329819 3.7058097288 
3.7462412737 3.7803704271 3.809500442 3.8346145692 3.4073543651 3.4813459737 3.5438565869 3.5969754326 3.6424295543 
3.6816134988 3.7156421835 3.7454049075 4.7123889804 4.8004512023 4.6243267584 4.9155579264 4.7123889804 4.5092200343 
5.0674903122 4.8353719722 4.5894059886 4.3572876485 5.2659633393 5.0120975802 4.7123889804 4.4126803806 4.1588146215 
5.5125918794 5.2659633393 4.9155579264 4.5092200343 4.1588146215 3.9121860814 5.7885595667 5.6029703303 5.2659633393 
4.7123889804 4.1588146215 3.8218076305 3.6362183941 6.0560271438 5.9702140275 5.7885595667 5.2659633393 4.1588146215 
3.6362183941 3.4545639333 3.368750817 0.22715816343 0.49462574053 0.3129712797 0.77059342779 0.68021497688 0.49462574053 
1.0172219679 1.0172219679 1.0172219679 1.0172219679 1.2156949949 1.271087727 1.3676273807 1.5707963268 2.1243706857 
1.3676273807 1.447813335 1.5707963268 1.7739652728 2.1243706857 2.6469669131 1.4827341049 1.5707963268 1.6937793186 
1.8705049266 2.1243706857 2.4613776767 2.8286213739 1.5707963268 1.6588585487 1.7739652728 1.9258976586 2.1243706857 
2.3709992258 2.6469669131 2.9144344902 1.7563855631 1.8785697967 1.8563003522 2.0024758186 1.9913306621 1.9779583789 
2.1243706857 2.1243706857 2.1243706857 2.1243706857 2.2408671392 2.2510113037 2.2630782103 2.2776669786 2.295651703 
2.3494282469 2.3680303173 2.3899057108 2.4159740166 2.4475202889 2.486385773 2.448570738 2.4736848652 2.5028148801 
2.5369440334 2.5773755784 2.6258554882 2.6847397011 2.5377803997 2.5675431237 2.6015718084 2.6407557529 2.6862098746 
2.7393287203 2.8018393335 2.8758309421 1.6743954455 1.6743954455 1.7840462375 1.6743954455 1.7840462375 1.8974821136 
1.6743954455 1.7840462375 1.8974821136 2.0119052671 1.6743954455 1.7840462375 1.8974821136 2.0119052671 2.1243706857 
1.6743954455 1.7840462375 1.8974821136 2.0119052671 2.1243706857 2.232221744 1.6743954455 1.7840462375 1.8974821136 
2.0119052671 2.1243706857 2.232221744 2.3334263672 1.6743954455 1.7840462375 1.8974821136 2.0119052671 2.1243706857 
2.232221744 2.3334263672 2.426721652 1.4671972081 1.3575464161 1.4671972081 1.24411054 1.3575464161 1.4671972081 
1.1296873865 1.24411054 1.3575464161 1.4671972081 1.0172219679 1.1296873865 1.24411054 1.3575464161 1.4671972081 
0.90937090954 1.0172219679 1.1296873865 1.24411054 1.3575464161 1.4671972081 0.80816628637 0.90937090954 1.0172219679 
1.1296873865 1.24411054 1.3575464161 1.4671972081 0.71487100155 0.80816628637 0.90937090954 1.0172219679 1.1296873865 
1.24411054 1.3575464161 1.4671972081 0.60381225391 0.57404952988 0.69302191562 0.54002084522 0.66790778838 0.79216440667 
0.50083690068 0.63877777351 0.77356233629 0.90072551443 0.45538277901 0.60464862014 0.75168694275 0.89058134991 1.0172219679 
0.40226393329 0.56421707518 0.72561863695 0.87851444325 1.0172219679 1.139116835 0.33975332011 0.51573716537 0.69407236469 
0.86392567495 1.0172219679 1.1502619915 1.2630228569 0.26576171152 0.45685295248 0.6552068806 0.84594095064 1.0172219679 
1.1636342747 1.2852923014 1.3852070904 0.22715816343 0.3129712797 0.49462574053 0.49462574053 0.68021497688 0.77059342779 
1.0172219679 1.0172219679 1.0172219679 1.0172219679 2.1243706857 1.5707963268 1.3676273807 1.271087727 1.2156949949 
2.6469669131 2.1243706857 1.7739652728 1.5707963268 1.447813335 1.3676273807 2.8286213739 2.4613776767 2.1243706857 
1.8705049266 1.6937793186 1.5707963268 1.4827341049 2.9144344902 2.6469669131 2.3709992258 2.1243706857 1.9258976586 
1.7739652728 1.6588585487 1.5707963268 1.7563855631 1.8563003522 1.8785697967 1.9779583789 1.9913306621 2.0024758186 
2.1243706857 2.1243706857 2.1243706857 2.1243706857 2.295651703 2.2776669786 2.2630782103 2.2510113037 2.2408671392 
2.486385773 2.4475202889 2.4159740166 2.3899057108 2.3680303173 2.3494282469 2.6847397011 2.6258554882 2.5773755784 
2.5369440334 2.5028148801 2.4736848652 2.448570738 2.8758309421 2.8018393335 2.7393287203 2.6862098746 2.6407557529 
2.6015718084 2.5675431237 2.5377803997 5.8604937156 5.901393709 5.9723133995 5.9473927383 6.0216547488 6.0927478736 
5.9992719463 6.0767621038 6.1501452836 6.2190157008 6.0578962336 6.1383094565 6.2134963469 0 0.064169606361 
6.1241815303 6.206940195 6.2831853072 0.069688960264 0.13304002361 0.19043743361 6.1990255847 0 0.07624511221 
0.14487585072 0.20642320337 0.26153055843 0.3108719077 0 0.084159722458 0.15900377685 0.22528907359 0.28391336087 
0.3357925689 0.38179159818 0.42269159155 5.8604937156 5.9723133995 5.901393709 6.0927478736 6.0216547488 5.9473927383 
6.2190157008 6.1501452836 6.0767621038 5.9992719463 0.064169606361 0 6.2134963469 6.1383094565 6.0578962336 
0.19043743361 0.13304002361 0.069688960264 6.2831853072 6.206940195 6.1241815303 0.3108719077 0.26153055843 0.20642320337 
0.14487585072 0.07624511221 6.2831853072 6.1990255847 0.42269159155 0.38179159818 0.3357925689 0.28391336087 0.22528907359 
0.15900377685 0.084159722458 0 5.6793730533 5.7091357773 5.5901633916 5.743164462 5.6152775188 5.4910209005 
5.7823484065 5.6444075337 5.5096229709 5.3824597928 5.8278025282 5.678536687 5.5314983644 5.3926039573 5.2659633393 
5.8809213739 5.718968232 5.5575666702 5.4046708639 5.2659633393 5.1440684722 5.9434319871 5.7674481418 5.5891129425 
5.4192596322 5.2659633393 5.1329233157 5.0201624502 6.0174235957 5.8263323547 5.6279784266 5.4372443565 5.2659633393 
5.1195510325 4.9978930058 4.8979782167 1.3852070904 1.2852923014 1.2630228569 1.1636342747 1.1502619915 1.139116835 
1.0172219679 1.0172219679 1.0172219679 1.0172219679 0.84594095064 0.86392567495 0.87851444325 0.89058134991 0.90072551443 
0.6552068806 0.69407236469 0.72561863695 0.75168694275 0.77356233629 0.79216440667 0.45685295248 0.51573716537 0.56421707518 
0.60464862014 0.63877777351 0.66790778838 0.69302191562 0.26576171152 0.33975332011 0.40226393329 0.45538277901 0.50083690068 
0.54002084522 0.57404952988 0.60381225391 
_paraPhiHalf 1 1002 double
0 3.1415926536 0 3.1415926536 1.5707963268 1.5707963268 1.5707963268 1.5707963268 2.5880182947 
0.5535743589 2.5880182947 0.5535743589 0 0 0 0 3.1415926536 3.1415926536 
3.1415926536 3.1415926536 3.1415926536 0.17788134 0.38438696014 0.60631181711 0.82323535693 1.0172219679 1.1799687454 
1.3118704726 1.4175000338 1.5022335207 0.17788134 0.38438696014 0.60631181711 0.82323535693 1.0172219679 1.1799687454 
1.3118704726 1.4175000338 1.5022335207 0.093902416448 0.17615329733 0.2478725152 0.31035131605 0.36486382811 0.41257334776 
0.45449736604 0.4915044461 0.52432611754 0.093902416448 0.17615329733 0.2478725152 0.31035131605 0.36486382811 0.41257334776 
0.45449736604 0.4915044461 0.52432611754 2.9637113136 2.7572056934 2.5352808365 2.3183572967 2.1243706857 1.9616239082 
1.829722181 1.7240926197 1.6393591329 2.9637113136 2.7572056934 2.5352808365 2.3183572967 2.1243706857 1.9616239082 
1.829722181 1.7240926197 1.6393591329 3.0476902371 2.9654393563 2.8937201384 2.8312413375 2.7767288255 2.7290193058 
2.6870952876 2.6500882075 2.617266536 3.0476902371 2.9654393563 2.8937201384 2.8312413375 2.7767288255 2.7290193058 
2.6870952876 2.6500882075 2.617266536 0 0 0 0 3.1415926536 3.1415926536 
3.1415926536 3.1415926536 3.1415926536 0.17788134 0.38438696014 0.60631181711 0.82323535693 1.0172219679 1.1799687454 
1.3118704726 1.4175000338 1.5022335207 0.17788134 0.38438696014 0.60631181711 0.82323535693 1.0172219679 1.1799687454 
1.3118704726 1.4175000338 1.5022335207 0.093902416448 0.17615329733 0.2478725152 0.31035131605 0.36486382811 0.41257334776 
0.45449736604 0.4915044461 0.52432611754 0.093902416448 0.17615329733 0.2478725152 0.31035131605 0.36486382811 0.41257334776 
0.45449736604 0.4915044461 0.52432611754 2.9637113136 2.7572056934 2.5352808365 2.3183572967 2.1243706857 1.9616239082 
1.829722181 1.7240926197 1.6393591329 2.9637113136 2.7572056934 2.5352808365 2.3183572967 2.1243706857 1.9616239082 
1.829722181 1.7240926197 1.6393591329 3.0476902371 2.9654393563 2.8937201384 2.8312413375 2.7767288255 2.7290193058 
2.6870952876 2.6500882075 2.617266536 3.0476902371 2.9654393563 2.8937201384 2.8312413375 2.7767288255 2.7290193058 
2.6870952876 2.6500882075 2.617266536 1.5707963268 1.5707963268 1.5707963268 1.5707963268 1.5707963268 1.5707963268 
1.5707963268 1.5707963268 1.5707963268 1.6743954455 1.7840462375 1.8974821136 2.0119052671 2.1243706857 2.232221744 
2.3334263672 2.426721652 2.5115728246 1.4671972081 1.3575464161 1.24411054 1.1296873865 1.0172219679 0.90937090954 
0.80816628637 0.71487100155 0.63001982895 1.6743954455 1.7840462375 1.8974821136 2.0119052671 2.1243706857 2.232221744 
2.3334263672 2.426721652 2.5115728246 1.4671972081 1.3575464161 1.24411054 1.1296873865 1.0172219679 0.90937090954 
0.80816628637 0.71487100155 0.63001982895 1.5707963268 1.5707963268 1.5707963268 1.5707963268 1.5707963268 1.5707963268 
1.5707963268 1.5707963268 1.5707963268 1.6743954455 1.7840462375 1.8974821136 2.0119052671 2.1243706857 2.232221744 
2.3334263672 2.426721652 2.5115728246 1.4671972081 1.3575464161 1.24411054 1.1296873865 1.0172219679 0.90937090954 
0.80816628637 0.71487100155 0.63001982895 1.6743954455 1.7840462375 1.8974821136 2.0119052671 2.1243706857 2.232221744 
2.3334263672 2.426721652 2.5115728246 1.4671972081 1.3575464161 1.24411054 1.1296873865 1.0172219679 0.90937090954 
0.80816628637 0.71487100155 0.63001982895 2.6824132222 2.7864913217 2.8992382033 3.0186096618 3.1415926536 3.0186096618 
2.8992382033 2.7864913217 2.6824132222 0.45917943135 0.35510133185 0.2423544503 0.12298299178 0 0.12298299178 
0.2423544503 0.35510133185 0.45917943135 0.22715816343 0.49462574053 0.3129712797 0.77059342779 0.68021497688 0.49462574053 
1.0172219679 1.0172219679 1.0172219679 1.0172219679 1.2156949949 1.271087727 1.3676273807 1.5707963268 2.1243706857 
1.3676273807 1.447813335 1.5707963268 1.7739652728 2.1243706857 2.6469669131 1.4827341049 1.5707963268 1.6937793186 
1.8705049266 2.1243706857 2.4613776767 2.8286213739 1.5707963268 1.6588585487 1.7739652728 1.9258976586 2.1243706857 
2.3709992258 2.6469669131 2.9144344902 0.26576171152 0.33975332011 0.45685295248 0.40226393329 0.51573716537 0.6552068806 
0.45538277901 0.56421707518 0.69407236469 0.84594095064 0.50083690068 0.60464862014 0.72561863695 0.86392567495 1.0172219679 
0.54002084522 0.63877777351 0.75168694275 0.87851444325 1.0172219679 1.1636342747 0.57404952988 0.66790778838 0.77356233629 
0.89058134991 1.0172219679 1.1502619915 1.2852923014 0.60381225391 0.69302191562 0.79216440667 0.90072551443 1.0172219679 
1.139116835 1.2630228569 1.3852070904 0.71487100155 0.80816628637 0.80816628637 0.90937090954 0.90937090954 0.90937090954 
1.0172219679 1.0172219679 1.0172219679 1.0172219679 1.1296873865 1.1296873865 1.1296873865 1.1296873865 1.1296873865 
1.24411054 1.24411054 1.24411054 1.24411054 1.24411054 1.24411054 1.3575464161 1.3575464161 1.3575464161 
1.3575464161 1.3575464161 1.3575464161 1.3575464161 1.4671972081 1.4671972081 1.4671972081 1.4671972081 1.4671972081 
1.4671972081 1.4671972081 1.4671972081 1.6743954455 1.6743954455 1.7840462375 1.6743954455 1.7840462375 1.8974821136 
1.6743954455 1.7840462375 1.8974821136 2.0119052671 1.6743954455 1.7840462375 1.8974821136 2.0119052671 2.1243706857 
1.6743954455 1.7840462375 1.8974821136 2.0119052671 2.1243706857 2.232221744 1.6743954455 1.7840462375 1.8974821136 
2.0119052671 2.1243706857 2.232221744 2.3334263672 1.6743954455 1.7840462375 1.8974821136 2.0119052671 2.1243706857 
2.232221744 2.3334263672 2.426721652 1.7563855631 1.8785697967 1.8563003522 2.0024758186 1.9913306621 1.9779583789 
2.1243706857 2.1243706857 2.1243706857 2.1243706857 2.2408671392 2.2510113037 2.2630782103 2.2776669786 2.295651703 
2.3494282469 2.3680303173 2.3899057108 2.4159740166 2.4475202889 2.486385773 2.448570738 2.4736848652 2.5028148801 
2.5369440334 2.5773755784 2.6258554882 2.6847397011 2.5377803997 2.5675431237 2.6015718084 2.6407557529 2.6862098746 
2.7393287203 2.8018393335 2.8758309421 2.718901062 2.8307207459 2.7598010554 2.95115522 2.8800620952 2.8058000847 
3.0774230472 3.00855263 2.9351694502 2.8576792927 3.0774230472 3.1415926536 3.0719036933 2.9967168029 2.91630358 
2.95115522 3.00855263 3.0719036933 3.1415926536 3.0653475414 2.9825888767 2.8307207459 2.8800620952 2.9351694502 
2.9967168029 3.0653475414 3.1415926536 3.0574329311 2.718901062 2.7598010554 2.8058000847 2.8576792927 2.91630358 
2.9825888767 3.0574329311 3.1415926536 2.718901062 2.7598010554 2.8307207459 2.8058000847 2.8800620952 2.95115522 
2.8576792927 2.9351694502 3.00855263 3.0774230472 2.91630358 2.9967168029 3.0719036933 3.1415926536 3.0774230472 
2.9825888767 3.0653475414 3.1415926536 3.0719036933 3.00855263 2.95115522 3.0574329311 3.1415926536 3.0653475414 