# vtk DataFile Version 5.1
vtk output
ASCII
DATASET POLYDATA
POINTS 100 float
6.27438 30.8527 14.8389 6.28359 30.8582 14.8408 6.31158 30.8762 14.8502 
6.35828 30.9058 14.8653 6.42352 30.9455 14.8837 6.50706 30.9936 14.9023 
6.60863 31.0481 14.9177 6.72791 31.1069 14.9268 6.86455 31.1681 14.9269 
7.01817 31.2302 14.9163 7.18838 31.2918 14.894 7.3747 31.3523 14.8603 
7.57661 31.4114 14.8166 7.79345 31.4695 14.7647 8.02441 31.5273 14.7073 
8.26855 31.5858 14.6471 8.52472 31.6464 14.5869 8.79163 31.7105 14.5286 
9.06785 31.7793 14.474 9.35189 31.8539 14.4235 9.64223 31.9353 14.3772 
9.93745 32.0239 14.334 10.2363 32.1199 14.2924 10.5378 32.223 14.2509 
10.8413 32.3328 14.2074 11.1464 32.4485 14.1607 11.4533 32.5693 14.1096 
11.7623 32.6942 14.0539 12.0742 32.8223 13.9941 12.3899 32.9527 13.9312 
12.7103 33.0847 13.8672 13.0365 33.2176 13.804 13.3692 33.3511 13.744 
13.7088 33.4847 13.6893 14.0554 33.6182 13.6417 14.4085 33.7512 13.6022 
14.7674 33.8836 13.5714 15.1308 34.0149 13.5489 15.4969 34.145 13.5338 
15.8638 34.2732 13.5246 16.2295 34.3995 13.5193 16.5919 34.5233 13.5159 
16.9492 34.6446 13.5122 17.2997 34.7632 13.5066 17.6424 34.8793 13.4975 
17.9764 34.9932 13.484 18.3017 35.1055 13.4657 18.6184 35.217 13.4425 
18.9274 35.3285 13.4148 19.2295 35.441 13.3833 19.5263 35.5554 13.3485 
19.8189 35.6724 13.3112 20.1088 35.7928 13.2722 20.3972 35.9168 13.2318 
20.6851 36.0443 13.1905 20.9732 36.175 13.1486 21.2618 36.3082 13.1061 
21.5509 36.4431 13.0635 21.84 36.5786 13.0208 22.1285 36.7137 12.9786 
22.4156 36.8475 12.9374 22.7001 36.9791 12.8978 22.9812 37.1082 12.8606 
23.2577 37.2347 12.8266 23.5289 37.3588 12.7964 23.7942 37.4811 12.7707 
24.0533 37.6026 12.7497 24.3062 37.7242 12.7335 24.5534 37.8468 12.7219 
24.7957 37.9712 12.7143 25.0339 38.098 12.7101 25.2695 38.2273 12.7085 
25.5038 38.3588 12.7087 25.7383 38.4916 12.7098 25.9743 38.6244 12.7112 
26.213 38.7559 12.7125 26.4551 38.8841 12.7134 26.7011 39.0076 12.7135 
26.9508 39.1247 12.7128 27.2034 39.2343 12.7109 27.4577 39.336 12.7075 
27.7119 39.4296 12.7018 27.9636 39.5159 12.693 28.2101 39.596 12.6799 
28.4486 39.6717 12.661 28.6761 39.7448 12.6349 28.8899 39.8173 12.6004 
29.0874 39.8911 12.5563 29.2668 39.9674 12.5024 29.4265 40.047 12.4386 
29.5659 40.1297 12.3663 29.6849 40.2147 12.2872 29.7842 40.3003 12.2041 
29.865 40.384 12.1206 29.9288 40.4629 12.0406 29.9775 40.5337 11.9682 
30.013 40.5933 11.9076 30.037 40.6388 11.8621 30.0509 40.6678 11.8346 
30.0556 40.6788 11.8269 
LINES 2 100
OFFSETS vtktypeint64
0 100 
CONNECTIVITY vtktypeint64
0 1 2 3 4 5 6 7 8 
9 10 11 12 13 14 15 16 17 
18 19 20 21 22 23 24 25 26 
27 28 29 30 31 32 33 34 35 
36 37 38 39 40 41 42 43 44 
45 46 47 48 49 50 51 52 53 
54 55 56 57 58 59 60 61 62 
63 64 65 66 67 68 69 70 71 
72 73 74 75 76 77 78 79 80 
81 82 83 84 85 86 87 88 89 
90 91 92 93 94 95 96 97 98 
99 
POINT_DATA 100
FIELD FieldData 3
_theta 1 100 double
0 0.031733259127 0.063466518254 0.095199777382 0.12693303651 0.15866629564 0.19039955476 0.22213281389 0.25386607302 
0.28559933214 0.31733259127 0.3490658504 0.38079910953 0.41253236865 0.44426562778 0.47599888691 0.50773214603 0.53946540516 
0.57119866429 0.60293192342 0.63466518254 0.66639844167 0.6981317008 0.72986495992 0.76159821905 0.79333147818 0.82506473731 
0.85679799643 0.88853125556 0.92026451469 0.95199777382 0.98373103294 1.0154642921 1.0471975512 1.0789308103 1.1106640695 
1.1423973286 1.1741305877 1.2058638468 1.237597106 1.2693303651 1.3010636242 1.3327968833 1.3645301425 1.3962634016 
1.4279966607 1.4597299198 1.491463179 1.5231964381 1.5549296972 1.5866629564 1.6183962155 1.6501294746 1.6818627337 
1.7135959929 1.745329252 1.7770625111 1.8087957702 1.8405290294 1.8722622885 1.9039955476 1.9357288068 1.9674620659 
1.999195325 2.0309285841 2.0626618433 2.0943951024 2.1261283615 2.1578616206 2.1895948798 2.2213281389 2.253061398 
2.2847946572 2.3165279163 2.3482611754 2.3799944345 2.4117276937 2.4434609528 2.4751942119 2.506927471 2.5386607302 
2.5703939893 2.6021272484 2.6338605076 2.6655937667 2.6973270258 2.7290602849 2.7607935441 2.7925268032 2.8242600623 
2.8559933214 2.8877265806 2.9194598397 2.9511930988 2.982926358 3.0146596171 3.0463928762 3.0781261353 3.1098593945 
3.1415926536 
_radius 1 100 double
5.0156529253e-14 0.26644859042 0.5309031642 0.79155502534 1.0466889951 1.2946474689 1.5337731867 1.7623864238 1.9788498255 
2.1817384739 2.3700837893 2.5436235066 2.702979968 2.8497041981 2.986155901 3.1152310945 3.2399900147 3.3632660637 
3.4873400239 3.6137386858 3.7431737819 3.8755959282 4.0103159894 4.1461469746 4.2815365766 4.4146833245 4.543647536 
4.6664740098 4.7813351969 4.8866875969 4.9814199189 5.0649660218 5.1373600486 5.1992223373 5.2516780845 5.2962225433 
5.334554378 5.3684014604 5.3993609417 5.4287694485 5.457612307 5.4864748017 5.5155344805 5.544591618 5.5731344568 
5.6004346038 5.6256636401 5.6480151164 5.6668105971 5.6815689222 5.6920259978 5.6981054477 5.6998528016 5.6973527051 
5.6906487279 5.6796811857 5.6642531235 5.6440294577 5.6185688149 5.5873816522 5.5500028367 5.5060637331 5.4553494291 
5.3978312834 5.3336718788 5.2632056988 5.1869019674 5.1053162975 5.0190373508 4.9286349354 4.8346156871 4.7373907234 
4.6372579198 4.5344015147 4.4289124395 4.3208308151 4.2102057579 4.0971588224 3.9819301117 3.8648840558 3.7464572746 
3.6270442083 3.5068351248 3.3856399408 3.2627421643 3.1368244929 3.0059911079 2.8678865182 2.7198852722 2.5593112331 
2.383647788 2.1907205914 1.9788593279 1.7470570296 1.4951358916 1.2239042578 0.93526733756 0.63224781047 0.31888432654 
7.1299516365e-14 
_area 1 100 double
0 0.20503556289 0.81917991374 1.8393277537 3.2584166349 5.0600893551 7.2105281034 9.65191191 12.302320459 
15.063663487 17.835830622 20.533461744 23.101180314 25.523405537 27.825921735 30.068268374 32.328645827 34.685841879 
37.204070596 39.924804104 42.865517916 46.022325808 49.373568095 52.882964475 56.502153609 60.173017622 63.830329628 
67.404989357 70.827633947 74.032232796 76.959622064 79.56140833 81.804666171 83.677153782 85.191751529 86.388214752 
87.330660365 88.100422686 88.785425797 89.468267282 90.215324061 91.068593725 92.041275874 93.117589427 94.25714153 
95.403984034 96.499227648 97.492577835 98.342934883 99.006608385 99.437912686 99.607623476 99.512685179 99.171091859 
98.610588344 97.857209454 96.928095531 95.830622403 94.566444198 93.137120726 91.547778032 89.806768959 87.921359227 
85.890651264 83.703086623 81.349039669 78.835068372 76.18553385 73.434816789 70.617100319 67.761180569 64.891110705 
62.02842687 59.193059417 56.402145171 53.66803007 50.997556658 48.393930497 45.860500282 43.402673731 41.024445314 
38.721724173 36.478583827 34.269121816 32.062520468 29.827953721 27.537952495 25.170703606 22.712287759 20.159371081 
17.522198606 14.827404932 12.120155417 9.4652310541 6.9465768606 4.6644275679 2.7288052968 1.2486971662 0.31783680082 
2.842170943e-13 
