# vtk DataFile Version 5.1
vtk output
ASCII
DATASET POLYDATA
POINTS 1002 float
-6.10773 -0.51617 -3.11945 5.68367 -0.00498792 -4.74607 -5.1929 0.219643 3.64339 
6.14734 -0.134304 5.7667 0.137746 6.37711 -2.54818 -0.477896 6.57482 2.85896 
-0.352417 -6.34443 -2.65718 -0.525296 -7.99826 4.61675 9.8052 4.53687 -0.350686 
-10.1104 5.05751 -0.411471 11.2301 -4.35468 -1.49478 -11.0819 -4.75518 -0.45473 
-4.96848 -0.409636 -2.84597 -3.73852 -0.321167 -2.72816 -2.4566 -0.251617 -2.87433 
-1.0965 -0.134736 -3.20057 0.382437 0.0807743 -3.68684 1.86481 0.29986 -4.39016 
3.10355 0.356401 -5.06281 4.02333 0.231166 -5.30083 4.81593 0.0672557 -5.08507 
-5.74091 0.148713 -3.10294 -5.2945 0.828889 -3.0207 -4.76656 1.47826 -2.83845 
-4.13348 2.19304 -2.71368 -3.36983 3.06434 -2.85585 -2.51741 3.96571 -3.16678 
-1.69673 4.70563 -3.30181 -0.997301 5.28958 -3.12732 -0.404498 5.83509 -2.81468 
-5.71135 -1.07843 -2.94341 -5.2168 -1.63029 -2.84711 -4.67739 -2.16913 -3.09154 
-4.11918 -2.71438 -3.781 -3.47328 -3.30617 -4.54816 -2.68824 -3.99428 -4.82004 
-1.88581 -4.75345 -4.46785 -1.24158 -5.45349 -3.83166 -0.77017 -5.98366 -3.20821 
-6.99254 -0.20867 -3.31529 -7.88111 0.15159 -3.3049 -8.75506 0.529858 -3.16724 
-9.52211 0.893127 -3.09032 -10.0122 1.32902 -3.0242 -10.1803 2.01046 -2.73582 
-10.1836 2.93934 -2.21445 -10.171 3.87928 -1.6297 -10.1595 4.60272 -1.03811 
-7.00402 -0.966287 -3.31613 -7.91609 -1.37535 -3.50026 -8.81592 -1.77352 -3.62056 
-9.76974 -2.31843 -3.67086 -10.7877 -3.0953 -3.60688 -11.6198 -3.94238 -3.28954 
-11.9608 -4.60128 -2.6538 -11.8239 -4.93725 -1.84769 -11.4681 -4.95897 -1.0828 
5.4244 0.606915 -4.79928 5.19144 1.33535 -4.91696 4.87835 2.13644 -5.07525 
4.39985 2.93441 -5.00634 3.78946 3.68288 -4.49979 3.10782 4.36649 -3.80919 
2.3522 4.96275 -3.35274 1.54885 5.47171 -3.14215 0.790476 5.93488 -2.90968 
5.41912 -0.549136 -4.85589 5.12326 -1.08952 -4.85002 4.6112 -1.68702 -4.63988 
3.81965 -2.4304 -4.28025 2.97397 -3.26901 -3.9312 2.27976 -4.00506 -3.65268 
1.62762 -4.57197 -3.37575 0.88478 -5.11766 -3.08162 0.168436 -5.73757 -2.83321 
6.55098 0.395738 -4.5326 7.56063 0.91699 -4.42097 8.46091 1.47547 -4.2986 
9.08748 1.98458 -4.0194 9.55672 2.45261 -3.5954 9.9971 2.95314 -3.10352 
10.283 3.49375 -2.50632 10.2792 3.98785 -1.76916 10.0693 4.34572 -1.00097 
6.56886 -0.334476 -4.55319 7.69431 -0.661265 -4.42779 8.84529 -1.06879 -4.34618 
9.76275 -1.60709 -4.22522 10.4967 -2.26577 -4.00825 11.2776 -3.01138 -3.70838 
11.9883 -3.73905 -3.33766 12.2349 -4.25322 -2.8529 11.8982 -4.43449 -2.22225 
-4.35048 0.0739908 3.98602 -3.39957 -0.0580803 4.23286 -2.34325 -0.181488 4.43948 
-1.18 -0.309192 4.70641 0.0934883 -0.406 4.96718 1.43081 -0.409717 5.09766 
2.74854 -0.325959 5.18492 3.9938 -0.22821 5.37871 5.13809 -0.166474 5.62757 
-5.00323 0.770461 3.96541 -4.7508 1.35615 4.25282 -4.41555 2.04291 4.38311 
-4.01739 2.87459 4.37623 -3.5436 3.79135 4.36018 -2.9539 4.65843 4.33929 
-2.29347 5.36213 4.16322 -1.65883 5.87175 3.77138 -1.06805 6.24554 3.28639 
-4.855 -0.472449 3.63639 -4.47254 -1.25987 3.80796 -4.05056 -2.09583 4.12305 
-3.58152 -2.95693 4.34227 -3.04435 -3.8424 4.31194 -2.45668 -4.73687 4.24227 
-1.89215 -5.63326 4.4027 -1.39953 -6.52703 4.69625 -0.95754 -7.35055 4.81481 
-5.90676 0.715491 3.43975 -6.69324 1.2132 3.20835 -7.54218 1.68375 2.93216 
-8.37794 2.15759 2.57404 -9.1084 2.718 2.12385 -9.71683 3.39032 1.63145 
-10.2034 4.0758 1.13949 -10.4728 4.62793 0.635707 -10.4268 4.95596 0.108743 
-5.83543 -0.051299 3.21609 -6.60447 -0.394334 2.83903 -7.54093 -0.832569 2.60014 
-8.60291 -1.34889 2.44902 -9.61785 -1.88492 2.24441 -10.3827 -2.41528 1.91429 
-10.8286 -2.99319 1.46221 -11.0327 -3.64641 0.888378 -11.0997 -4.28033 0.221155 
5.82825 0.52483 5.39767 5.38799 1.16719 5.04457 4.82825 1.80469 4.75134 
4.12067 2.53555 4.38826 3.27797 3.34687 3.89263 2.41395 4.06927 3.46772 
1.63555 4.6678 3.28898 0.929622 5.29191 3.23581 0.229942 5.97514 3.10645 
5.73042 -0.837043 5.94635 5.13651 -1.58552 5.83327 4.44874 -2.34464 5.49883 
3.75694 -3.15239 5.18043 3.03097 -4.09524 5.08659 2.18195 -5.17073 5.22311 
1.2621 -6.22104 5.41213 0.45506 -7.06406 5.4304 -0.127667 -7.63958 5.15424 
6.90252 0.303582 5.43521 7.59984 0.734374 4.76134 8.25155 1.11467 3.92995 
8.88049 1.49523 3.20466 9.45179 2.02827 2.62901 9.87481 2.73577 2.05228 
10.0808 3.40329 1.42659 10.0829 3.86853 0.822266 9.96312 4.20498 0.246504 
6.88356 -0.524789 5.94559 7.57808 -0.874527 5.84322 8.20557 -1.1537 5.17658 
8.85156 -1.44937 3.95793 9.55778 -1.83401 2.67199 10.1479 -2.23794 1.73421 
10.4798 -2.62252 0.990914 10.6996 -3.09898 0.142721 10.9748 -3.71985 -0.759367 
0.0924821 6.96909 -2.11179 0.0226649 7.48802 -1.60991 -0.10881 7.83553 -1.06319 
-0.299417 8.00207 -0.403638 -0.481982 8.05078 0.371427 -0.586684 8.01374 1.07927 
-0.609281 7.85405 1.58899 -0.584867 7.53611 1.99823 -0.537534 7.08639 2.42786 
1.11658 6.67433 -2.65494 2.22432 6.9644 -2.81719 3.36422 7.05775 -2.77811 
4.46741 6.86974 -2.43591 5.57505 6.60113 -2.02956 6.7145 6.45944 -1.77849 
7.77066 6.30841 -1.5723 8.61578 5.89867 -1.23902 9.26105 5.24074 -0.799004 
-0.809884 6.51168 -2.33366 -1.82104 6.67987 -2.25879 -2.94547 6.78449 -2.25078 
-4.15232 6.7341 -2.09238 -5.28818 6.50276 -1.68462 -6.27847 6.13605 -1.20315 
-7.24213 5.76305 -0.86449 -8.2696 5.50515 -0.686951 -9.2718 5.32181 -0.561891 
0.642272 6.60992 2.70004 1.88182 6.70868 2.55628 3.09636 6.8139 2.30191 
4.19783 6.73145 1.90255 5.28096 6.33362 1.46838 6.44433 5.79069 1.07488 
7.56973 5.39377 0.688657 8.48543 5.18404 0.302474 9.19479 4.95492 -0.0446867 
-1.59924 6.82995 2.81802 -2.76122 6.99234 2.81115 -3.90786 7.24655 2.76828 
-5.06292 7.76236 2.62074 -6.23053 8.20142 2.44893 -7.30235 7.95727 2.27506 
-8.18646 7.0679 1.86844 -8.91399 6.16414 1.11251 -9.54777 5.56129 0.255872 
-0.227577 -6.90526 -2.24633 0.0725309 -7.49156 -1.78482 0.317785 -7.98711 -1.15405 
0.265074 -8.32237 -0.362162 -0.0185525 -8.57519 0.425972 -0.246301 -8.82206 1.15314 
-0.318344 -8.95734 1.96189 -0.358577 -8.83656 2.91882 -0.442676 -8.47653 3.87195 
0.399041 -6.18644 -2.14451 1.42686 -5.8986 -1.53375 2.78245 -5.7329 -1.08476 
4.20993 -5.86979 -1.03705 5.47539 -6.21415 -1.24955 6.74178 -6.47677 -1.39849 
8.19881 -6.39878 -1.46033 9.61364 -5.91254 -1.56122 10.6391 -5.16126 -1.62379 
-1.06929 -6.57818 -2.78055 -1.99403 -6.48801 -2.80025 -3.21016 -6.17624 -2.75708 
-4.54501 -5.85501 -2.65388 -5.75012 -5.56885 -2.42328 -6.87205 -5.2609 -2.08506 
-8.11325 -5.02867 -1.74336 -9.39602 -4.96991 -1.39179 -10.4317 -4.94879 -0.953276 
0.190312 -8.23392 4.52697 1.08327 -8.19013 4.13765 2.14262 -7.92361 3.54058 
3.32828 -7.513 2.89808 4.6681 -6.96604 2.24317 6.16232 -6.31021 1.49932 
7.65603 -5.66383 0.679469 8.99508 -5.12652 -0.120858 10.1742 -4.70446 -0.850235 
-1.16419 -7.82431 4.08447 -1.94437 -7.43479 3.41664 -2.94682 -6.93031 2.77429 
-4.09119 -6.38018 2.1758 -5.22465 -5.73545 1.49903 -6.38647 -5.0297 0.775513 
-7.7114 -4.5268 0.225002 -9.09183 -4.42485 -0.0682793 -10.2553 -4.59502 -0.242946 
10.5755 3.70169 -0.244026 11.5406 2.76098 -0.163015 12.6462 1.92793 -0.222657 
13.6815 1.25586 -0.47041 14.3382 0.474838 -0.839316 14.3834 -0.625702 -1.20963 
13.85 -1.83712 -1.49269 13.0093 -2.85445 -1.64569 12.1109 -3.65084 -1.64649 
-10.9114 4.29236 -0.561499 -11.7924 3.02177 -0.577922 -12.7569 1.49899 -0.534153 
-13.5772 0.300565 -0.51866 -13.8335 -0.42832 -0.562854 -13.4056 -1.20874 -0.594505 
-12.7049 -2.37862 -0.525317 -12.14 -3.6034 -0.401756 -11.6777 -4.42405 -0.360517 
-4.5508 0.257949 -2.91325 -4.05427 0.906805 -2.95277 -3.24697 0.324378 -2.91658 
-3.44594 1.58448 -2.96086 -2.64851 0.965537 -3.10949 -1.84419 0.399872 -3.13328 
-2.70448 2.43294 -3.05675 -1.91207 1.73555 -3.28411 -1.12383 1.10259 -3.41382 
-0.36385 0.58216 -3.4956 -1.87207 3.3901 -3.25592 -1.08256 2.69081 -3.43706 
-0.316866 1.96469 -3.6724 0.391212 1.36556 -3.85917 1.12971 0.850962 -4.07193 
-1.05698 4.1966 -3.36105 -0.270438 3.59778 -3.47118 0.49419 2.89353 -3.79658 
1.1506 2.2179 -4.20335 1.79975 1.62627 -4.51126 2.48948 1.01668 -4.78263 
-0.350267 4.79078 -3.25692 0.435693 4.2749 -3.34754 1.22439 3.67521 -3.69065 
1.89264 3.01775 -4.31316 2.48209 2.36789 -4.84369 3.06243 1.69015 -5.08826 
3.5956 0.951856 -5.20872 0.248228 5.34077 -3.06201 1.02716 4.8517 -3.20184 
1.83791 4.32088 -3.48062 2.56121 3.71138 -4.11629 3.18346 3.04401 -4.83893 
3.73069 2.32286 -5.19924 4.17544 1.53893 -5.20116 4.51683 0.755404 -5.13041 
-6.59198 0.518787 -3.24694 -7.4483 0.900906 -3.25306 -6.08149 1.23786 -3.0274 
-8.27887 1.26208 -3.18311 -6.85083 1.63636 -2.96938 -5.46819 1.93086 -2.6733 
-8.94328 1.67188 -3.06065 -7.56038 2.06461 -2.87352 -6.10001 2.41033 -2.5302 
-4.73062 2.72419 -2.49673 -9.27894 2.30845 -2.79119 -8.08435 2.6624 -2.69473 
-6.64286 3.01768 -2.42506 -5.20515 3.33747 -2.3643 -3.85214 3.66739 -2.72793 
-9.32335 3.20258 -2.36792 -8.31896 3.46846 -2.41436 -7.04693 3.78529 -2.31395 
-5.6118 4.09451 -2.29345 -4.21357 4.37139 -2.61199 -2.91934 4.59497 -3.06899 
-9.27017 4.12037 -1.87192 -8.32271 4.29146 -2.04498 -7.24557 4.54353 -2.12726 
-5.972 4.86753 -2.20842 -4.58546 5.15421 -2.45907 -3.2636 5.32672 -2.82865 
-2.08341 5.35715 -3.0768 -9.24942 4.83555 -1.28155 -8.26273 4.96177 -1.48946 
-7.26127 5.16925 -1.68638 -6.19977 5.51091 -1.91991 -4.98728 5.8605 -2.21486 
-3.68655 6.07409 -2.49751 -2.47192 6.09484 -2.66656 -1.39949 5.97523 -2.73989 
-8.616 5.92825 0.27375 -7.91756 6.9278 1.28673 -7.50674 6.38383 0.263408 
-7.17519 8.25948 2.05135 -6.76015 7.80105 1.28719 -6.42948 6.91901 -0.00040768 
-6.30633 9.08946 2.30782 -6.02051 9.18457 1.88403 -5.67359 8.38737 0.758886 
-5.46781 7.32157 -0.655514 -5.27273 8.794 2.2755 -5.1838 9.468 1.93097 
-4.9193 9.26319 1.06689 -4.68345 8.38264 -0.261334 -4.4592 7.45343 -1.41881 
-4.15422 7.93837 2.24097 -4.20818 8.63665 1.79619 -4.06272 8.93253 1.07965 
-3.84253 8.63804 -0.0435821 -3.5974 8.02779 -1.12858 -3.28662 7.39931 -1.82002 
-2.99369 7.38786 2.24865 -3.11304 7.7932 1.75833 -3.06297 8.10847 1.15808 
[...]
POINT_DATA 1002
FIELD FieldData 4
_paraPhi 1 1002 double
6.2831853072 3.1415926536 6.2831853072 3.1415926536 4.7123889804 4.7123889804 1.5707963268 1.5707963268 3.6951670125 
5.7296109483 2.5880182947 0.5535743589 6.2831853072 6.2831853072 6.2831853072 6.2831853072 3.1415926536 3.1415926536 
3.1415926536 3.1415926536 3.1415926536 6.1053039672 5.898798347 5.6768734901 5.4599499503 5.2659633393 5.1032165617 
4.9713148346 4.8656852733 4.7809517865 0.17788134 0.38438696014 0.60631181711 0.82323535693 1.0172219679 1.1799687454 
1.3118704726 1.4175000338 1.5022335207 6.1892828907 6.1070320098 6.035312792 5.9728339911 5.9183214791 5.8706119594 
5.8286879411 5.7916808611 5.7588591896 0.093902416448 0.17615329733 0.2478725152 0.31035131605 0.36486382811 0.41257334776 
0.45449736604 0.4915044461 0.52432611754 3.3194739936 3.5259796137 3.7479044707 3.9648280105 4.1588146215 4.321561399 
4.4534631262 4.5590926874 4.6438261743 2.9637113136 2.7572056934 2.5352808365 2.3183572967 2.1243706857 1.9616239082 
1.829722181 1.7240926197 1.6393591329 3.23549507 3.3177459509 3.3894651688 3.4519439696 3.5064564817 3.5541660013 
3.5960900196 3.6330970997 3.6659187711 3.0476902371 2.9654393563 2.8937201384 2.8312413375 2.7767288255 2.7290193058 
2.6870952876 2.6500882075 2.617266536 6.2831853072 6.2831853072 6.2831853072 6.2831853072 3.1415926536 3.1415926536 
3.1415926536 3.1415926536 3.1415926536 6.1053039672 5.898798347 5.6768734901 5.4599499503 5.2659633393 5.1032165617 
4.9713148346 4.8656852733 4.7809517865 0.17788134 0.38438696014 0.60631181711 0.82323535693 1.0172219679 1.1799687454 
1.3118704726 1.4175000338 1.5022335207 6.1892828907 6.1070320098 6.035312792 5.9728339911 5.9183214791 5.8706119594 
5.8286879411 5.7916808611 5.7588591896 0.093902416448 0.17615329733 0.2478725152 0.31035131605 0.36486382811 0.41257334776 
0.45449736604 0.4915044461 0.52432611754 3.3194739936 3.5259796137 3.7479044707 3.9648280105 4.1588146215 4.321561399 
4.4534631262 4.5590926874 4.6438261743 2.9637113136 2.7572056934 2.5352808365 2.3183572967 2.1243706857 1.9616239082 
1.829722181 1.7240926197 1.6393591329 3.23549507 3.3177459509 3.3894651688 3.4519439696 3.5064564817 3.5541660013 
3.5960900196 3.6330970997 3.6659187711 3.0476902371 2.9654393563 2.8937201384 2.8312413375 2.7767288255 2.7290193058 
2.6870952876 2.6500882075 2.617266536 4.7123889804 4.7123889804 4.7123889804 4.7123889804 4.7123889804 4.7123889804 
4.7123889804 4.7123889804 4.7123889804 4.6087898617 4.4991390697 4.3857031936 4.2712800401 4.1588146215 4.0509635631 
3.94975894 3.8564636551 3.7716124825 4.8159880991 4.9256388911 5.0390747672 5.1534979207 5.2659633393 5.3738143976 
5.4750190208 5.5683143056 5.6531654782 4.6087898617 4.4991390697 4.3857031936 4.2712800401 4.1588146215 4.0509635631 
3.94975894 3.8564636551 3.7716124825 4.8159880991 4.9256388911 5.0390747672 5.1534979207 5.2659633393 5.3738143976 
5.4750190208 5.5683143056 5.6531654782 1.5707963268 1.5707963268 1.5707963268 1.5707963268 1.5707963268 1.5707963268 
1.5707963268 1.5707963268 1.5707963268 1.6743954455 1.7840462375 1.8974821136 2.0119052671 2.1243706857 2.232221744 
2.3334263672 2.426721652 2.5115728246 1.4671972081 1.3575464161 1.24411054 1.1296873865 1.0172219679 0.90937090954 
0.80816628637 0.71487100155 0.63001982895 1.6743954455 1.7840462375 1.8974821136 2.0119052671 2.1243706857 2.232221744 
2.3334263672 2.426721652 2.5115728246 1.4671972081 1.3575464161 1.24411054 1.1296873865 1.0172219679 0.90937090954 
0.80816628637 0.71487100155 0.63001982895 3.6007720849 3.4966939854 3.3839471039 3.2645756454 3.1415926536 3.0186096618 
2.8992382033 2.7864913217 2.6824132222 5.8240058758 5.9280839753 6.0408308569 6.1602023154 6.2831853072 0.12298299178 
0.2423544503 0.35510133185 0.45917943135 6.0560271438 5.7885595667 5.9702140275 5.5125918794 5.6029703303 5.7885595667 
5.2659633393 5.2659633393 5.2659633393 5.2659633393 5.0674903122 5.0120975802 4.9155579264 4.7123889804 4.1588146215 
4.9155579264 4.8353719722 4.7123889804 4.5092200343 4.1588146215 3.6362183941 4.8004512023 4.7123889804 4.5894059886 
4.4126803806 4.1588146215 3.8218076305 3.4545639333 4.7123889804 4.6243267584 4.5092200343 4.3572876485 4.1588146215 
3.9121860814 3.6362183941 3.368750817 6.0174235957 5.9434319871 5.8263323547 5.8809213739 5.7674481418 5.6279784266 
5.8278025282 5.718968232 5.5891129425 5.4372443565 5.7823484065 5.678536687 5.5575666702 5.4192596322 5.2659633393 
5.743164462 5.6444075337 5.5314983644 5.4046708639 5.2659633393 5.1195510325 5.7091357773 5.6152775188 5.5096229709 
5.3926039573 5.2659633393 5.1329233157 4.9978930058 5.6793730533 5.5901633916 5.4910209005 5.3824597928 5.2659633393 
5.1440684722 5.0201624502 4.8979782167 5.5683143056 5.4750190208 5.4750190208 5.3738143976 5.3738143976 5.3738143976 
5.2659633393 5.2659633393 5.2659633393 5.2659633393 5.1534979207 5.1534979207 5.1534979207 5.1534979207 5.1534979207 
5.0390747672 5.0390747672 5.0390747672 5.0390747672 5.0390747672 5.0390747672 4.9256388911 4.9256388911 4.9256388911 
4.9256388911 4.9256388911 4.9256388911 4.9256388911 4.8159880991 4.8159880991 4.8159880991 4.8159880991 4.8159880991 
4.8159880991 4.8159880991 4.8159880991 4.6087898617 4.6087898617 4.4991390697 4.6087898617 4.4991390697 4.3857031936 
4.6087898617 4.4991390697 4.3857031936 4.2712800401 4.6087898617 4.4991390697 4.3857031936 4.2712800401 4.1588146215 
4.6087898617 4.4991390697 4.3857031936 4.2712800401 4.1588146215 4.0509635631 4.6087898617 4.4991390697 4.3857031936 
4.2712800401 4.1588146215 4.0509635631 3.94975894 4.6087898617 4.4991390697 4.3857031936 4.2712800401 4.1588146215 
4.0509635631 3.94975894 3.8564636551 4.526799744 4.4046155105 4.426884955 4.2807094886 4.2918546451 4.3052269283 
4.1588146215 4.1588146215 4.1588146215 4.1588146215 4.042318168 4.0321740035 4.0201070968 4.0055183285 3.9875336042 
3.9337570603 3.9151549899 3.8932795963 3.8672112905 3.8356650183 3.7967995342 3.8346145692 3.809500442 3.7803704271 
3.7462412737 3.7058097288 3.657329819 3.5984456061 3.7454049075 3.7156421835 3.6816134988 3.6424295543 3.5969754326 
3.5438565869 3.4813459737 3.4073543651 3.5642842451 3.4524645613 3.5233842518 3.3320300872 3.403123212 3.4773852225 
3.20576226 3.2746326772 3.348015857 3.4255060145 3.0774230472 3.1415926536 3.2112816139 3.2864685043 3.3668817272 
2.95115522 3.00855263 3.0719036933 3.1415926536 3.2178377658 3.3005964304 2.8307207459 2.8800620952 2.9351694502 
2.9967168029 3.0653475414 3.1415926536 3.225752376 2.718901062 2.7598010554 2.8058000847 2.8576792927 2.91630358 
2.9825888767 3.0574329311 3.1415926536 3.5642842451 3.5233842518 3.4524645613 3.4773852225 3.403123212 3.3320300872 
3.4255060145 3.348015857 3.2746326772 3.20576226 3.3668817272 3.2864685043 3.2112816139 3.1415926536 3.0774230472 
3.3005964304 3.2178377658 3.1415926536 3.0719036933 3.00855263 2.95115522 3.225752376 3.1415926536 3.0653475414 
2.9967168029 2.9351694502 2.8800620952 2.8307207459 3.1415926536 3.0574329311 2.9825888767 2.91630358 2.8576792927 
2.8058000847 2.7598010554 2.718901062 4.526799744 4.426884955 4.4046155105 4.3052269283 4.2918546451 4.2807094886 
4.1588146215 4.1588146215 4.1588146215 4.1588146215 3.9875336042 4.0055183285 4.0201070968 4.0321740035 4.042318168 
3.7967995342 3.8356650183 3.8672112905 3.8932795963 3.9151549899 3.9337570603 3.5984456061 3.657329819 3.7058097288 
3.7462412737 3.7803704271 3.809500442 3.8346145692 3.4073543651 3.4813459737 3.5438565869 3.5969754326 3.6424295543 
3.6816134988 3.7156421835 3.7454049075 4.7123889804 4.8004512023 4.6243267584 4.9155579264 4.7123889804 4.5092200343 
5.0674903122 4.8353719722 4.5894059886 4.3572876485 5.2659633393 5.0120975802 4.7123889804 4.4126803806 4.1588146215 
5.5125918794 5.2659633393 4.9155579264 4.5092200343 4.1588146215 3.9121860814 5.7885595667 5.6029703303 5.2659633393 
4.7123889804 4.1588146215 3.8218076305 3.6362183941 6.0560271438 5.9702140275 5.7885595667 5.2659633393 4.1588146215 
3.6362183941 3.4545639333 3.368750817 0.22715816343 0.49462574053 0.3129712797 0.77059342779 0.68021497688 0.49462574053 
1.0172219679 1.0172219679 1.0172219679 1.0172219679 1.2156949949 1.271087727 1.3676273807 1.5707963268 2.1243706857 
1.3676273807 1.447813335 1.5707963268 1.7739652728 2.1243706857 2.6469669131 1.4827341049 1.5707963268 1.6937793186 
1.8705049266 2.1243706857 2.4613776767 2.8286213739 1.5707963268 1.6588585487 1.7739652728 1.9258976586 2.1243706857 
2.3709992258 2.6469669131 2.9144344902 1.7563855631 1.8785697967 1.8563003522 2.0024758186 1.9913306621 1.9779583789 
2.1243706857 2.1243706857 2.1243706857 2.1243706857 2.2408671392 2.2510113037 2.2630782103 2.2776669786 2.295651703 
2.3494282469 2.3680303173 2.3899057108 2.4159740166 2.4475202889 2.486385773 2.448570738 2.4736848652 2.5028148801 
2.5369440334 2.5773755784 2.6258554882 2.6847397011 2.5377803997 2.5675431237 2.6015718084 2.6407557529 2.6862098746 
2.7393287203 2.8018393335 2.8758309421 1.6743954455 1.6743954455 1.7840462375 1.6743954455 1.7840462375 1.8974821136 
1.6743954455 1.7840462375 1.8974821136 2.0119052671 1.6743954455 1.7840462375 1.8974821136 2.0119052671 2.1243706857 
1.6743954455 1.7840462375 1.8974821136 2.0119052671 2.1243706857 2.232221744 1.6743954455 1.7840462375 1.8974821136 
2.0119052671 2.1243706857 2.232221744 2.3334263672 1.6743954455 1.7840462375 1.8974821136 2.0119052671 2.1243706857 
2.232221744 2.3334263672 2.426721652 1.4671972081 1.3575464161 1.4671972081 1.24411054 1.3575464161 1.4671972081 
1.1296873865 1.24411054 1.3575464161 1.4671972081 1.0172219679 1.1296873865 1.24411054 1.3575464161 1.4671972081 
0.90937090954 1.0172219679 1.1296873865 1.24411054 1.3575464161 1.4671972081 0.80816628637 0.90937090954 1.0172219679 
1.1296873865 1.24411054 1.3575464161 1.4671972081 0.71487100155 0.80816628637 0.90937090954 1.0172219679 1.1296873865 
1.24411054 1.3575464161 1.4671972081 0.60381225391 0.57404952988 0.69302191562 0.54002084522 0.66790778838 0.79216440667 
0.50083690068 0.63877777351 0.77356233629 0.90072551443 0.45538277901 0.60464862014 0.75168694275 0.89058134991 1.0172219679 
0.40226393329 0.56421707518 0.72561863695 0.87851444325 1.0172219679 1.139116835 0.33975332011 0.51573716537 0.69407236469 
0.86392567495 1.0172219679 1.1502619915 1.2630228569 0.26576171152 0.45685295248 0.6552068806 0.84594095064 1.0172219679 
1.1636342747 1.2852923014 1.3852070904 0.22715816343 0.3129712797 0.49462574053 0.49462574053 0.68021497688 0.77059342779 
1.0172219679 1.0172219679 1.0172219679 1.0172219679 2.1243706857 1.5707963268 1.3676273807 1.271087727 1.2156949949 
2.6469669131 2.1243706857 1.7739652728 1.5707963268 1.447813335 1.3676273807 2.8286213739 2.4613776767 2.1243706857 
1.8705049266 1.6937793186 1.5707963268 1.4827341049 2.9144344902 2.6469669131 2.3709992258 2.1243706857 1.9258976586 
1.7739652728 1.6588585487 1.5707963268 1.7563855631 1.8563003522 1.8785697967 1.9779583789 1.9913306621 2.0024758186 
2.1243706857 2.1243706857 2.1243706857 2.1243706857 2.295651703 2.2776669786 2.2630782103 2.2510113037 2.2408671392 
2.486385773 2.4475202889 2.4159740166 2.3899057108 2.3680303173 2.3494282469 2.6847397011 2.6258554882 2.5773755784 
2.5369440334 2.5028148801 2.4736848652 2.448570738 2.8758309421 2.8018393335 2.7393287203 2.6862098746 2.6407557529 
2.6015718084 2.5675431237 2.5377803997 5.8604937156 5.901393709 5.9723133995 5.9473927383 6.0216547488 6.0927478736 
5.9992719463 6.0767621038 6.1501452836 6.2190157008 6.0578962336 6.1383094565 6.2134963469 0 0.064169606361 
6.1241815303 6.206940195 6.2831853072 0.069688960264 0.13304002361 0.19043743361 6.1990255847 0 0.07624511221 
0.14487585072 0.20642320337 0.26153055843 0.3108719077 0 0.084159722458 0.15900377685 0.22528907359 0.28391336087 
0.3357925689 0.38179159818 0.42269159155 5.8604937156 5.9723133995 5.901393709 6.0927478736 6.0216547488 5.9473927383 
6.2190157008 6.1501452836 6.0767621038 5.9992719463 0.064169606361 0 6.2134963469 6.1383094565 6.0578962336 
0.19043743361 0.13304002361 0.069688960264 6.2831853072 6.206940195 6.1241815303 0.3108719077 0.26153055843 0.20642320337 
0.14487585072 0.07624511221 6.2831853072 6.1990255847 0.42269159155 0.38179159818 0.3357925689 0.28391336087 0.22528907359 
0.15900377685 0.084159722458 0 5.6793730533 5.7091357773 5.5901633916 5.743164462 5.6152775188 5.4910209005 
5.7823484065 5.6444075337 5.5096229709 5.3824597928 5.8278025282 5.678536687 5.5314983644 5.3926039573 5.2659633393 
5.8809213739 5.718968232 5.5575666702 5.4046708639 5.2659633393 5.1440684722 5.9434319871 5.7674481418 5.5891129425 
5.4192596322 5.2659633393 5.1329233157 5.0201624502 6.0174235957 5.8263323547 5.6279784266 5.4372443565 5.2659633393 
5.1195510325 4.9978930058 4.8979782167 1.3852070904 1.2852923014 1.2630228569 1.1636342747 1.1502619915 1.139116835 
1.0172219679 1.0172219679 1.0172219679 1.0172219679 0.84594095064 0.86392567495 0.87851444325 0.89058134991 0.90072551443 
0.6552068806 0.69407236469 0.72561863695 0.75168694275 0.77356233629 0.79216440667 0.45685295248 0.51573716537 0.56421707518 
0.60464862014 0.63877777351 0.66790778838 0.69302191562 0.26576171152 0.33975332011 0.40226393329 0.45538277901 0.50083690068 
0.54002084522 0.57404952988 0.60381225391 
_paraPhiHalf 1 1002 double
0 3.1415926536 0 3.1415926536 1.5707963268 1.5707963268 1.5707963268 1.5707963268 2.5880182947 
0.5535743589 2.5880182947 0.5535743589 0 0 0 0 3.1415926536 3.1415926536 
3.1415926536 3.1415926536 3.1415926536 0.17788134 0.38438696014 0.60631181711 0.82323535693 1.0172219679 1.1799687454 
1.3118704726 1.4175000338 1.5022335207 0.17788134 0.38438696014 0.60631181711 0.82323535693 1.0172219679 1.1799687454 
1.3118704726 1.4175000338 1.5022335207 0.093902416448 0.17615329733 0.2478725152 0.31035131605 0.36486382811 0.41257334776 
0.45449736604 0.4915044461 0.52432611754 0.093902416448 0.17615329733 0.2478725152 0.31035131605 0.36486382811 0.41257334776 
0.45449736604 0.4915044461 0.52432611754 2.9637113136 2.7572056934 2.5352808365 2.3183572967 2.1243706857 1.9616239082 
1.829722181 1.7240926197 1.6393591329 2.9637113136 2.7572056934 2.5352808365 2.3183572967 2.1243706857 1.9616239082 
1.829722181 1.7240926197 1.6393591329 3.0476902371 2.9654393563 2.8937201384 2.8312413375 2.7767288255 2.7290193058 
2.6870952876 2.6500882075 2.617266536 3.0476902371 2.9654393563 2.8937201384 2.8312413375 2.7767288255 2.7290193058 
2.6870952876 2.6500882075 2.617266536 0 0 0 0 3.1415926536 3.1415926536 
3.1415926536 3.1415926536 3.1415926536 0.17788134 0.38438696014 0.60631181711 0.82323535693 1.0172219679 1.1799687454 
1.3118704726 1.4175000338 1.5022335207 0.17788134 0.38438696014 0.60631181711 0.82323535693 1.0172219679 1.1799687454 
1.3118704726 1.4175000338 1.5022335207 0.093902416448 0.17615329733 0.2478725152 0.31035131605 0.36486382811 0.41257334776 
0.45449736604 0.4915044461 0.52432611754 0.093902416448 0.17615329733 0.2478725152 0.31035131605 0.36486382811 0.41257334776 
0.45449736604 0.4915044461 0.52432611754 2.9637113136 2.7572056934 2.5352808365 2.3183572967 2.1243706857 1.9616239082 
1.829722181 1.7240926197 1.6393591329 2.9637113136 2.7572056934 2.5352808365 2.3183572967 2.1243706857 1.9616239082 
1.829722181 1.7240926197 1.6393591329 3.0476902371 2.9654393563 2.8937201384 2.8312413375 2.7767288255 2.7290193058 
2.6870952876 2.6500882075 2.617266536 3.0476902371 2.9654393563 2.8937201384 2.8312413375 2.7767288255 2.7290193058 
2.6870952876 2.6500882075 2.617266536 1.5707963268 1.5707963268 1.5707963268 1.5707963268 1.5707963268 1.5707963268 
1.5707963268 1.5707963268 1.5707963268 1.6743954455 1.7840462375 1.8974821136 2.0119052671 2.1243706857 2.232221744 
2.3334263672 2.426721652 2.5115728246 1.4671972081 1.3575464161 1.24411054 1.1296873865 1.0172219679 0.90937090954 
0.80816628637 0.71487100155 0.63001982895 1.6743954455 1.7840462375 1.8974821136 2.0119052671 2.1243706857 2.232221744 
2.3334263672 2.426721652 2.5115728246 1.4671972081 1.3575464161 1.24411054 1.1296873865 1.0172219679 0.90937090954 
0.80816628637 0.71487100155 0.63001982895 1.5707963268 1.5707963268 1.5707963268 1.5707963268 1.5707963268 1.5707963268 
1.5707963268 1.5707963268 1.5707963268 1.6743954455 1.7840462375 1.8974821136 2.0119052671 2.1243706857 2.232221744 
2.3334263672 2.426721652 2.5115728246 1.4671972081 1.3575464161 1.24411054 1.1296873865 1.0172219679 0.90937090954 
0.80816628637 0.71487100155 0.63001982895 1.6743954455 1.7840462375 1.8974821136 2.0119052671 2.1243706857 2.232221744 
2.3334263672 2.426721652 2.5115728246 1.4671972081 1.3575464161 1.24411054 1.1296873865 1.0172219679 0.90937090954 
0.80816628637 0.71487100155 0.63001982895 2.6824132222 2.7864913217 2.8992382033 3.0186096618 3.1415926536 3.0186096618 
2.8992382033 2.7864913217 2.6824132222 0.45917943135 0.35510133185 0.2423544503 0.12298299178 0 0.12298299178 
0.2423544503 0.35510133185 0.45917943135 0.22715816343 0.49462574053 0.3129712797 0.77059342779 0.68021497688 0.49462574053 
1.0172219679 1.0172219679 1.0172219679 1.0172219679 1.2156949949 1.271087727 1.3676273807 1.5707963268 2.1243706857 
1.3676273807 1.447813335 1.5707963268 1.7739652728 2.1243706857 2.6469669131 1.4827341049 1.5707963268 1.6937793186 
1.8705049266 2.1243706857 2.4613776767 2.8286213739 1.5707963268 1.6588585487 1.7739652728 1.9258976586 2.1243706857 
2.3709992258 2.6469669131 2.9144344902 0.26576171152 0.33975332011 0.45685295248 0.40226393329 0.51573716537 0.6552068806 
0.45538277901 0.56421707518 0.69407236469 0.84594095064 0.50083690068 0.60464862014 0.72561863695 0.86392567495 1.0172219679 
0.54002084522 0.63877777351 0.75168694275 0.87851444325 1.0172219679 1.1636342747 0.57404952988 0.66790778838 0.77356233629 
0.89058134991 1.0172219679 1.1502619915 1.2852923014 0.60381225391 0.69302191562 0.79216440667 0.90072551443 1.0172219679 
1.139116835 1.2630228569 1.3852070904 0.71487100155 0.80816628637 0.80816628637 0.90937090954 0.90937090954 0.90937090954 
1.0172219679 1.0172219679 1.0172219679 1.0172219679 1.1296873865 1.1296873865 1.1296873865 1.1296873865 1.1296873865 
1.24411054 1.24411054 1.24411054 1.24411054 1.24411054 1.24411054 1.3575464161 1.3575464161 1.3575464161 
1.3575464161 1.3575464161 1.3575464161 1.3575464161 1.4671972081 1.4671972081 1.4671972081 1.4671972081 1.4671972081 
1.4671972081 1.4671972081 1.4671972081 1.6743954455 1.6743954455 1.7840462375 1.6743954455 1.7840462375 1.8974821136 
1.6743954455 1.7840462375 1.8974821136 2.0119052671 1.6743954455 1.7840462375 1.8974821136 2.0119052671 2.1243706857 
1.6743954455 1.7840462375 1.8974821136 2.0119052671 2.1243706857 2.232221744 1.6743954455 1.7840462375 1.8974821136 
2.0119052671 2.1243706857 2.232221744 2.3334263672 1.6743954455 1.7840462375 1.8974821136 2.0119052671 2.1243706857 
2.232221744 2.3334263672 2.426721652 1.7563855631 1.8785697967 1.8563003522 2.0024758186 1.9913306621 1.9779583789 
2.1243706857 2.1243706857 2.1243706857 2.1243706857 2.2408671392 2.2510113037 2.2630782103 2.2776669786 2.295651703 
2.3494282469 2.3680303173 2.3899057108 2.4159740166 2.4475202889 2.486385773 2.448570738 2.4736848652 2.5028148801 
2.5369440334 2.5773755784 2.6258554882 2.6847397011 2.5377803997 2.5675431237 2.6015718084 2.6407557529 2.6862098746 
2.7393287203 2.8018393335 2.8758309421 2.718901062 2.8307207459 2.7598010554 2.95115522 2.8800620952 2.8058000847 
3.0774230472 3.00855263 2.9351694502 2.8576792927 3.0774230472 3.1415926536 3.0719036933 2.9967168029 2.91630358 
2.95115522 3.00855263 3.0719036933 3.1415926536 3.0653475414 2.9825888767 2.8307207459 2.8800620952 2.9351694502 
2.9967168029 3.0653475414 3.1415926536 3.0574329311 2.718901062 2.7598010554 2.8058000847 2.8576792927 2.91630358 
2.9825888767 3.0574329311 3.1415926536 2.718901062 2.7598010554 2.8307207459 2.8058000847 2.8800620952 2.95115522 
2.8576792927 2.9351694502 3.00855263 3.0774230472 2.91630358 2.9967168029 3.0719036933 3.1415926536 3.0774230472 
2.9825888767 3.0653475414 3.1415926536 3.0719036933 3.00855263 2.95115522 3.0574329311 3.1415926536 3.0653475414 