# vtk DataFile Version 5.1
vtk output
ASCII
DATASET POLYDATA
POINTS 100 float
24.1375 45.4074 10.0359 24.143 45.4044 10.0422 24.1578 45.3932 10.0566 
24.1794 45.3739 10.0786 24.2036 45.3465 10.1073 24.2252 45.3109 10.1413 
24.2388 45.2668 10.1794 24.239 45.2142 10.2199 24.2211 45.1526 10.2614 
24.1816 45.0815 10.3024 24.1188 45.0004 10.3416 24.0322 44.9086 10.3781 
23.9234 44.8057 10.4111 23.7952 44.6912 10.4403 23.6513 44.5648 10.4659 
23.4961 44.4266 10.4881 23.3342 44.2767 10.5079 23.1694 44.1159 10.5261 
23.0049 43.9451 10.5439 22.8426 43.7652 10.5626 22.6834 43.5776 10.5834 
22.5266 43.3836 10.6075 22.3708 43.1846 10.636 22.2135 42.9817 10.6698 
22.052 42.7761 10.7094 21.8836 42.5687 10.7555 21.7059 42.36 10.8083 
21.5174 42.1506 10.8681 21.3172 41.9409 10.9351 21.1055 41.7313 11.0094 
20.8836 41.522 11.0911 20.6531 41.3136 11.1803 20.4166 41.1065 11.2771 
20.1766 40.9014 11.3817 19.9355 40.6987 11.494 19.6955 40.4993 11.6139 
19.4583 40.3034 11.7409 19.2246 40.1113 11.8746 18.9947 39.923 12.0138 
18.7682 39.7379 12.1574 18.5443 39.5553 12.3039 18.3218 39.3738 12.4515 
18.0994 39.1919 12.5985 17.8762 39.0079 12.7429 17.6512 38.8202 12.8831 
17.424 38.6275 13.0177 17.1946 38.4285 13.1456 16.9633 38.223 13.2662 
16.7306 38.0109 13.3794 16.4973 37.7932 13.4856 16.2639 37.5711 13.5856 
16.031 37.3467 13.6805 15.7988 37.122 13.7716 15.5674 36.8992 13.8603 
15.3363 36.6803 13.9479 15.105 36.4667 14.0354 14.8729 36.2593 14.1237 
14.6391 36.0582 14.2132 14.4033 35.8629 14.3041 14.1651 35.6719 14.3961 
13.9246 35.4835 14.4892 13.682 35.2955 14.5828 13.4383 35.1059 14.6768 
13.1942 34.913 14.7711 12.9511 34.7156 14.8659 12.7099 34.5131 14.9618 
12.4717 34.3062 15.0594 12.2371 34.0961 15.1598 12.0064 33.8847 15.264 
11.7794 33.6745 15.373 11.5557 33.4683 15.4877 11.3343 33.2686 15.6084 
11.114 33.0774 15.735 10.8936 32.8961 15.8671 10.6717 32.7251 16.0034 
10.4474 32.5638 16.1425 10.2198 32.4104 16.2825 9.98864 32.2625 16.4217 
9.75395 32.1171 16.5583 9.5162 31.9709 16.691 9.27623 31.8208 16.8189 
9.03517 31.6642 16.9419 8.79436 31.4993 17.0608 8.55521 31.3255 17.1766 
8.3192 31.1432 17.2913 8.08772 30.9541 17.4069 7.86217 30.7608 17.5254 
7.64384 30.5668 17.6485 7.43406 30.3759 17.7775 7.23415 30.1921 17.9123 
7.04553 30.0192 18.0521 6.86974 29.8604 18.1947 6.70844 29.7183 18.3369 
6.56342 29.5947 18.4744 6.43652 29.4905 18.6024 6.32957 29.4059 18.7157 
6.2443 29.3408 18.8094 6.18219 29.2946 18.8788 6.14441 29.2668 18.9206 
6.13167 29.2569 18.9326 
LINES 2 100
OFFSETS vtktypeint64
0 100 
CONNECTIVITY vtktypeint64
0 1 2 3 4 5 6 7 8 
9 10 11 12 13 14 15 16 17 
18 19 20 21 22 23 24 25 26 
27 28 29 30 31 32 33 34 35 
36 37 38 39 40 41 42 43 44 
45 46 47 48 49 50 51 52 53 
54 55 56 57 58 59 60 61 62 
63 64 65 66 67 68 69 70 71 
72 73 74 75 76 77 78 79 80 
81 82 83 84 85 86 87 88 89 
90 91 92 93 94 95 96 97 98 
99 
POINT_DATA 100
FIELD FieldData 3
_theta 1 100 double
0 0.031733259127 0.063466518254 0.095199777382 0.12693303651 0.15866629564 0.19039955476 0.22213281389 0.25386607302 
0.28559933214 0.31733259127 0.3490658504 0.38079910953 0.41253236865 0.44426562778 0.47599888691 0.50773214603 0.53946540516 
0.57119866429 0.60293192342 0.63466518254 0.66639844167 0.6981317008 0.72986495992 0.76159821905 0.79333147818 0.82506473731 
0.85679799643 0.88853125556 0.92026451469 0.95199777382 0.98373103294 1.0154642921 1.0471975512 1.0789308103 1.1106640695 
1.1423973286 1.1741305877 1.2058638468 1.237597106 1.2693303651 1.3010636242 1.3327968833 1.3645301425 1.3962634016 
1.4279966607 1.4597299198 1.491463179 1.5231964381 1.5549296972 1.5866629564 1.6183962155 1.6501294746 1.6818627337 
1.7135959929 1.745329252 1.7770625111 1.8087957702 1.8405290294 1.8722622885 1.9039955476 1.9357288068 1.9674620659 
1.999195325 2.0309285841 2.0626618433 2.0943951024 2.1261283615 2.1578616206 2.1895948798 2.2213281389 2.253061398 
2.2847946572 2.3165279163 2.3482611754 2.3799944345 2.4117276937 2.4434609528 2.4751942119 2.506927471 2.5386607302 
2.5703939893 2.6021272484 2.6338605076 2.6655937667 2.6973270258 2.7290602849 2.7607935441 2.7925268032 2.8242600623 
2.8559933214 2.8877265806 2.9194598397 2.9511930988 2.982926358 3.0146596171 3.0463928762 3.0781261353 3.1098593945 
3.1415926536 
_radius 1 100 double
1.2255574909e-13 0.30943619426 0.61613826877 0.9176329867 1.2118768212 1.4973444972 1.7730064293 2.0382099495 2.2925065592 
2.5354830083 2.7666515756 2.9854341973 3.1912424307 3.3836216315 3.5624048043 3.7278176946 3.8804936614 4.0213886789 
4.1516215995 4.2722898541 4.3843176407 4.4883810855 4.5849283819 4.6742824616 4.7567899727 4.8329707084 4.9036274992 
4.9698930248 5.0332087151 5.0952445096 5.1577736741 5.222516462 5.2909657646 5.3642112705 5.4427849152 5.5265535087 
5.6146790648 5.7056547845 5.7974126583 5.8874939992 5.9732745707 6.0522315149 6.1222250289 6.1817518489 6.2301236255 
6.2675359342 6.2950159157 6.3142580063 6.327372246 6.3365783971 6.3438841612 6.3507885607 6.3580510954 6.3655614641 
6.3723320446 6.3766167165 6.3761385951 6.3683913353 6.3509687994 6.3218775644 6.2797935296 6.2242337036 6.1556244456 
6.0752576626 5.9851374809 5.8877319905 5.7856572871 5.6813329639 5.5766573008 5.4727533292 5.3698300217 5.2671843959 
5.1633433729 5.0563167293 4.9439138152 4.8240722337 4.6951545936 4.5561825694 4.4069886855 4.2482730315 4.0815569131 
3.9090315947 3.7333083848 3.55708475 3.3827497959 3.2119645412 3.0452708435 2.8818034382 2.7191883948 2.5536918393 
2.3806300876 2.1949827442 1.9920953605 1.7683425117 1.5216454494 1.2517812408 0.96046336639 0.65120859232 0.32902906737 
4.7248855576e-14 
_area 1 100 double
0 0.27702330241 1.1015995093 2.4535717051 4.2976784986 6.5827963235 9.2434396257 12.204433508 15.388493968 
18.725113482 22.158053119 25.648503107 29.17230797 32.712422123 36.250229823 39.759571714 43.20537555 46.546571595 
49.741787942 52.756006126 55.566227644 58.163944446 60.552704004 62.742821159 64.750417438 66.603005608 68.341355368 
70.011317307 71.656847861 73.322028846 75.055987153 76.916162415 78.97105491 81.312444242 84.025240663 87.049815187 
90.335973302 93.854684979 97.549824489 101.30131803 104.9476668 108.3318018 111.32265136 113.83700814 115.83135208 
117.30009515 118.32596165 119.00579744 119.4249584 119.72043881 119.98135904 120.27259454 120.6275168 121.03630546 
121.44500754 121.7615424 121.86821309 121.63971495 120.96385192 119.76089091 117.99754522 115.69256891 112.91258427 
109.75928237 106.35171192 102.80838182 99.23274632 95.703203013 92.266734585 88.935515705 85.688311889 82.479856276 
79.257793903 75.980853772 72.629183827 69.200694694 65.697420148 62.116380566 58.453555694 54.713831352 50.91688853 
47.09652246 43.295661576 39.559280167 35.926348952 32.422383092 29.055060978 25.814896897 22.681086453 19.630979118 
16.651039328 13.74702572 10.950709211 8.3202571545 5.9327056458 3.870085384 2.2042618843 0.98681932877 0.24759164559 
2.0654615729e-13 
