# vtk DataFile Version 5.1
vtk output
ASCII
DATASET POLYDATA
POINTS 1002 float
-5.79497 -0.276942 -4.46445 5.34798 0.264977 -3.14304 -5.58074 0.271334 5.65974 
5.19046 -0.227528 3.95415 0.360717 6.49864 -3.71405 0.205523 5.58014 3.12059 
0.0686461 -6.48517 -3.37628 -0.184544 -6.34982 2.94227 9.96975 5.59373 -0.500099 
-10.5832 4.63987 -0.817167 10.4353 -5.05302 0.142514 -9.02936 -3.18731 -0.429827 
-4.87549 -0.330734 -4.38591 -3.71545 -0.278198 -4.27027 -2.29185 -0.161766 -4.12014 
-0.807483 -0.043934 -3.87612 0.429884 0.0542274 -3.49879 1.39738 0.123959 -3.07718 
2.36151 0.153875 -2.79383 3.43783 0.172059 -2.76078 4.47852 0.213095 -2.92496 
-5.47123 0.252706 -4.09866 -4.99501 0.879056 -3.87088 -4.41034 1.54795 -3.87298 
-3.72262 2.20106 -3.76814 -2.8664 2.91999 -3.23402 -1.90099 3.79658 -2.67203 
-1.06789 4.70637 -2.71613 -0.49608 5.46034 -3.25515 -0.0700589 6.03555 -3.6861 
-5.47369 -0.866255 -4.74318 -5.04431 -1.53535 -4.84751 -4.52369 -2.24789 -4.74645 
-3.93043 -2.95649 -4.51075 -3.25404 -3.65415 -4.1744 -2.4954 -4.33089 -3.80996 
-1.72707 -4.94427 -3.608 -1.04091 -5.48831 -3.60642 -0.456384 -5.99899 -3.58822 
-6.50601 0.170604 -4.27134 -7.29274 0.705755 -4.09987 -8.11626 1.30747 -3.99182 
-8.91166 1.90131 -3.84123 -9.72886 2.39454 -3.55011 -10.6175 2.80883 -3.18716 
-11.3396 3.28473 -2.79121 -11.5461 3.85597 -2.2534 -11.2045 4.36089 -1.54785 
-6.44871 -0.494351 -4.63988 -7.10871 -0.720153 -4.52319 -7.83893 -1.0224 -4.10129 
-8.60388 -1.38835 -3.68346 -9.2268 -1.75596 -3.41481 -9.57712 -2.12443 -2.97788 
-9.68104 -2.50002 -2.1929 -9.59814 -2.81683 -1.37293 -9.36022 -3.03142 -0.806612 
5.13444 0.880091 -2.94293 4.89664 1.56279 -2.68555 4.58976 2.31613 -2.57675 
4.13988 3.07186 -2.82992 3.51693 3.71473 -3.39549 2.80676 4.24694 -3.95282 
2.13971 4.80091 -4.23811 1.54576 5.42274 -4.23092 0.963421 6.01684 -4.02996 
5.06894 -0.387408 -3.14454 4.76828 -1.11363 -3.0605 4.35399 -1.90115 -2.92738 
3.72915 -2.72243 -2.95185 2.98272 -3.51428 -3.22157 2.33351 -4.20586 -3.50751 
1.82596 -4.81004 -3.59306 1.30792 -5.3963 -3.53993 0.697528 -5.97165 -3.47003 
6.0125 0.690438 -3.30307 6.70266 1.16867 -3.57268 7.42622 1.75781 -3.85022 
8.17029 2.46155 -3.85666 8.90075 3.16346 -3.41953 9.58475 3.79001 -2.74028 
10.1241 4.40689 -2.13698 10.3634 5.00975 -1.65049 10.2668 5.44168 -1.12621 
5.96999 -0.100257 -3.2865 6.67036 -0.537596 -3.29635 7.51362 -1.03893 -3.27954 
8.37102 -1.56096 -3.33445 8.96232 -2.07834 -3.33983 9.28451 -2.63693 -3.03947 
9.64228 -3.28679 -2.34732 10.1117 -3.98046 -1.43604 10.4358 -4.59947 -0.55731 
-4.62203 0.259829 5.4671 -3.58968 0.238123 5.29249 -2.47347 0.224614 5.24503 
-1.26296 0.201446 5.26946 -0.0163569 0.150975 5.21059 1.18811 0.0748552 5.02141 
2.33059 -0.0347478 4.77053 3.39888 -0.161859 4.49651 4.35521 -0.240959 4.20956 
-5.12011 0.845172 5.64472 -4.56101 1.54759 5.41631 -3.99724 2.33618 5.08102 
-3.46257 3.07211 4.79322 -2.8745 3.72959 4.66502 -2.17663 4.42444 4.67228 
-1.45407 5.09403 4.61872 -0.815195 5.49406 4.30841 -0.274073 5.5832 3.75328 
-5.33927 -0.28145 5.43516 -4.97997 -0.943894 5.21618 -4.54077 -1.72327 5.07309 
-4.03105 -2.51398 4.94213 -3.41926 -3.23366 4.65399 -2.70363 -3.92026 4.15654 
-1.95746 -4.6041 3.62936 -1.27471 -5.24261 3.27397 -0.693438 -5.81613 3.09141 
-6.26123 0.605684 5.84784 -6.92199 0.974355 5.78434 -7.52407 1.38885 5.16461 
-8.10721 1.83708 4.00286 -8.74736 2.26245 2.71768 -9.3914 2.63634 1.66547 
-9.90124 3.0411 0.84922 -10.252 3.56652 0.173935 -10.4882 4.15337 -0.375714 
-6.39492 -0.0914987 5.53637 -7.1371 -0.522419 5.05296 -7.75029 -0.971514 4.32285 
-8.36611 -1.3892 3.63436 -9.08854 -1.80064 3.09985 -9.67412 -2.2137 2.50394 
-9.80699 -2.53879 1.67909 -9.56714 -2.74141 0.784198 -9.26152 -2.92517 0.0635255 
4.92721 0.409361 4.05527 4.64855 1.11925 4.32003 4.27706 1.88096 4.56986 
3.73943 2.6613 4.61577 3.06854 3.44654 4.5595 2.39157 4.21302 4.58011 
1.78986 4.85338 4.5344 1.24467 5.25241 4.20012 0.717547 5.44434 3.65302 
4.99232 -0.880106 4.14853 4.79521 -1.52892 4.37257 4.46863 -2.16928 4.42677 
3.92522 -2.86468 4.30355 3.28626 -3.60948 4.20764 2.70592 -4.296 4.18183 
2.11339 -4.88355 4.03835 1.37747 -5.42205 3.71117 0.556939 -5.92197 3.31723 
5.85785 0.242602 3.78855 6.61177 0.771634 3.71924 7.41713 1.34724 3.61304 
8.22596 1.99033 3.28492 8.95379 2.65811 2.78761 9.49042 3.26541 2.3182 
9.80768 3.85534 1.82054 9.9756 4.51844 1.11052 10.0367 5.16426 0.259595 
5.88366 -0.564053 3.85007 6.68374 -0.948634 3.82085 7.5666 -1.43872 3.80429 
8.38043 -1.99852 3.67395 8.93821 -2.54405 3.28395 9.28381 -3.0942 2.60777 
9.67428 -3.71151 1.83968 10.1677 -4.3264 1.19707 10.5006 -4.79342 0.675824 
0.260884 7.02684 -3.248 0.170326 7.51112 -2.55228 0.106297 7.78941 -1.82356 
0.0600572 7.72082 -1.18777 0.0358675 7.3594 -0.545777 0.0556582 6.90078 0.230634 
0.105625 6.45883 1.05861 0.149154 6.05906 1.79685 0.179021 5.75295 2.45746 
1.29851 6.62861 -3.72894 2.42158 6.79433 -3.69592 3.54289 7.10705 -3.677 
4.48653 7.42096 -3.56366 5.34897 7.36828 -3.14665 6.34998 6.87951 -2.44305 
7.46753 6.36034 -1.74694 8.4958 6.10173 -1.25454 9.3255 5.9367 -0.886304 
-0.562308 6.57962 -3.414 -1.5818 6.43698 -2.99234 -2.69866 6.13835 -2.40194 
-3.84616 5.97716 -1.78554 -4.98382 6.1522 -1.40188 -6.19069 6.45169 -1.25668 
-7.50162 6.48354 -1.11794 -8.76524 6.09861 -0.925341 -9.80587 5.42132 -0.811551 
1.01888 5.57957 2.75571 1.93837 5.62418 2.29733 2.94468 5.52757 1.71007 
3.9918 5.24403 1.03655 5.10105 5.02315 0.509544 6.30999 5.12178 0.334171 
7.49665 5.46073 0.358342 8.48222 5.75004 0.251932 9.26741 5.7985 -0.0825263 
-0.633725 5.82542 3.04343 -1.57198 6.42677 3.05206 -2.52827 7.28222 3.11707 
-3.45003 7.79397 2.9984 -4.46443 7.47744 2.47156 -5.71836 6.66669 1.67578 
-7.09209 6.0207 0.959306 -8.36073 5.64018 0.411201 -9.49642 5.22289 -0.146 
0.0611806 -7.0793 -3.0031 0.162349 -7.68335 -2.39988 0.311243 -8.24156 -1.62174 
0.410461 -8.63473 -0.830687 0.422205 -8.72372 -0.131538 0.327565 -8.49114 0.541001 
0.113674 -8.05266 1.26663 -0.123478 -7.51476 1.97529 -0.234609 -6.93035 2.54297 
0.973625 -6.65868 -3.04319 1.94005 -6.79168 -2.59705 3.0368 -6.86173 -2.25232 
4.28073 -6.92525 -2.135 5.49116 -7.01429 -2.09765 6.49359 -7.00345 -1.87925 
7.42889 -6.74454 -1.40248 8.50887 -6.26083 -0.803637 9.61575 -5.67262 -0.257201 
-0.909784 -6.6632 -3.37855 -1.92899 -6.85098 -3.25214 -2.87716 -7.07768 -3.0577 
-3.81065 -7.30735 -2.83156 -4.88626 -7.3666 -2.47392 -6.04442 -7.02117 -1.92436 
-7.0301 -6.19117 -1.35812 -7.75837 -5.07094 -0.965653 -8.3781 -3.99298 -0.705624 
0.772174 -6.65436 2.93647 1.84179 -6.96467 2.76925 3.08776 -7.17186 2.43715 
4.60948 -7.18719 2.01431 6.26703 -7.07183 1.58519 7.6346 -6.94703 1.23052 
8.51384 -6.76977 0.986597 9.16165 -6.39037 0.781211 9.82351 -5.78156 0.509268 
-1.16206 -6.41328 2.66404 -2.1463 -6.49905 2.36258 -3.1734 -6.57231 2.08441 
-4.28783 -6.50708 1.86436 -5.38672 -6.22875 1.65964 -6.27984 -5.7868 1.32982 
-6.94949 -5.22122 0.801603 -7.56789 -4.53595 0.219681 -8.26645 -3.81374 -0.20577 
10.797 4.95818 -0.471607 11.6594 4.03829 -0.38877 12.2032 2.98796 -0.289043 
11.9927 1.9272 -0.262504 11.19 0.776358 -0.338382 10.6301 -0.540122 -0.411964 
10.7533 -1.88523 -0.353921 11.0732 -3.09336 -0.166039 10.9865 -4.13978 0.0332031 
-11.7263 3.72159 -1.33531 -12.94 2.78056 -1.83296 -13.9216 1.83638 -2.0417 
-14.2535 0.823288 -1.78088 -13.8441 -0.256888 -1.15103 -13.0462 -1.19867 -0.489619 
-12.1467 -1.79377 -0.115923 -11.1337 -2.14283 -0.102354 -10.0323 -2.55223 -0.277661 
-4.43085 0.297668 -4.08445 -3.87433 1.00503 -3.97231 -3.17444 0.437202 -4.09874 
-3.23717 1.69771 -3.90892 -2.59763 1.18266 -3.98752 -1.73424 0.564729 -3.99099 
-2.45679 2.38273 -3.48709 -1.92555 1.88868 -3.63057 -1.17211 1.29502 -3.69175 
-0.322656 0.625255 -3.64063 -1.51962 3.20183 -2.82517 -1.07166 2.64083 -2.97317 
-0.427277 2.05629 -3.10686 0.275996 1.35846 -3.15789 0.873465 0.675979 -3.13356 
-0.63575 4.13144 -2.65301 -0.186192 3.5031 -2.64491 0.449481 2.89874 -2.69368 
1.13143 2.21913 -2.69016 1.60846 1.45218 -2.64827 1.94819 0.748862 -2.6912 
0.00493714 4.94218 -3.1785 0.49461 4.30814 -3.08444 1.15232 3.69539 -2.98663 
1.92957 3.08215 -2.77023 2.5147 2.34601 -2.46503 2.81475 1.54159 -2.34033 
3.06739 0.810428 -2.50468 0.483321 5.53872 -3.80322 1.01134 4.91758 -3.82291 
1.63638 4.29977 -3.71819 2.41399 3.74475 -3.37876 3.15349 3.12807 -2.82547 
3.63958 2.36739 -2.38406 3.92106 1.5708 -2.35001 4.17779 0.85077 -2.62773 
-6.17071 0.73625 -3.93852 -6.93703 1.36741 -3.90483 -5.66792 1.40892 -3.79462 
-7.70501 2.07879 -3.93934 -6.41287 2.11155 -3.81223 -5.05177 2.10164 -3.7844 
-8.39947 2.66714 -3.81274 -7.13219 2.81921 -3.72881 -5.78101 2.79225 -3.55 
-4.30302 2.77379 -3.46186 -9.07934 3.06377 -3.43633 -7.72372 3.31593 -3.386 
-6.45886 3.41196 -3.05985 -4.9908 3.41334 -2.85834 -3.35841 3.53402 -2.79356 
-9.74956 3.52535 -2.91832 -8.22466 3.775 -2.88877 -6.93618 3.93642 -2.51478 
-5.61219 3.98584 -2.17665 -3.99818 4.11293 -2.22822 -2.35809 4.41007 -2.47157 
-10.1742 4.24048 -2.29254 -8.63856 4.5431 -2.32886 -7.23242 4.69181 -2.11474 
-5.97685 4.66009 -1.78416 -4.57793 4.65609 -1.82259 -2.99296 4.89541 -2.28548 
-1.56365 5.25499 -2.81522 -10.1623 4.98299 -1.5525 -8.83915 5.47547 -1.65613 
-7.42123 5.70217 -1.70065 -6.11817 5.59604 -1.59819 -4.88531 5.36824 -1.64602 
-3.55199 5.38045 -2.10471 -2.19238 5.68235 -2.75838 -1.01752 5.97593 -3.29892 
-8.6862 6.06062 -0.206444 -7.47826 6.36022 0.293388 -7.61983 6.66585 -0.394739 
-6.17236 6.52399 0.83852 -6.39558 6.69149 0.109599 -6.35208 6.83342 -0.633436 
-4.88413 6.92914 1.53712 -5.16418 6.53813 0.70303 -5.1798 6.61893 -0.0873094 
-5.06496 6.63441 -0.860853 -3.75231 7.38078 2.17405 -4.01362 6.66146 1.29741 
-4.0696 6.40387 0.484432 -3.97126 6.56499 -0.372802 -3.89815 6.47674 -1.21288 
-2.73248 7.27368 2.4621 -2.93453 6.82366 1.63543 -3.01693 6.53491 0.826082 
-2.95331 6.72812 0.0335971 -2.87576 6.9157 -0.879339 -2.83072 6.65748 -1.786 
-1.71626 6.6222 2.45579 -1.86237 6.61275 1.69604 -1.96127 6.65506 0.870549 
[...]
POINT_DATA 1002
FIELD FieldData 4
_paraPhi 1 1002 double
6.2831853072 3.1415926536 6.2831853072 3.1415926536 4.7123889804 4.7123889804 1.5707963268 1.5707963268 3.6951670125 
5.7296109483 2.5880182947 0.5535743589 6.2831853072 6.2831853072 6.2831853072 6.2831853072 3.1415926536 3.1415926536 
3.1415926536 3.1415926536 3.1415926536 6.1053039672 5.898798347 5.6768734901 5.4599499503 5.2659633393 5.1032165617 
4.9713148346 4.8656852733 4.7809517865 0.17788134 0.38438696014 0.60631181711 0.82323535693 1.0172219679 1.1799687454 
1.3118704726 1.4175000338 1.5022335207 6.1892828907 6.1070320098 6.035312792 5.9728339911 5.9183214791 5.8706119594 
5.8286879411 5.7916808611 5.7588591896 0.093902416448 0.17615329733 0.2478725152 0.31035131605 0.36486382811 0.41257334776 
0.45449736604 0.4915044461 0.52432611754 3.3194739936 3.5259796137 3.7479044707 3.9648280105 4.1588146215 4.321561399 
4.4534631262 4.5590926874 4.6438261743 2.9637113136 2.7572056934 2.5352808365 2.3183572967 2.1243706857 1.9616239082 
1.829722181 1.7240926197 1.6393591329 3.23549507 3.3177459509 3.3894651688 3.4519439696 3.5064564817 3.5541660013 
3.5960900196 3.6330970997 3.6659187711 3.0476902371 2.9654393563 2.8937201384 2.8312413375 2.7767288255 2.7290193058 
2.6870952876 2.6500882075 2.617266536 6.2831853072 6.2831853072 6.2831853072 6.2831853072 3.1415926536 3.1415926536 
3.1415926536 3.1415926536 3.1415926536 6.1053039672 5.898798347 5.6768734901 5.4599499503 5.2659633393 5.1032165617 
4.9713148346 4.8656852733 4.7809517865 0.17788134 0.38438696014 0.60631181711 0.82323535693 1.0172219679 1.1799687454 
1.3118704726 1.4175000338 1.5022335207 6.1892828907 6.1070320098 6.035312792 5.9728339911 5.9183214791 5.8706119594 
5.8286879411 5.7916808611 5.7588591896 0.093902416448 0.17615329733 0.2478725152 0.31035131605 0.36486382811 0.41257334776 
0.45449736604 0.4915044461 0.52432611754 3.3194739936 3.5259796137 3.7479044707 3.9648280105 4.1588146215 4.321561399 
4.4534631262 4.5590926874 4.6438261743 2.9637113136 2.7572056934 2.5352808365 2.3183572967 2.1243706857 1.9616239082 
1.829722181 1.7240926197 1.6393591329 3.23549507 3.3177459509 3.3894651688 3.4519439696 3.5064564817 3.5541660013 
3.5960900196 3.6330970997 3.6659187711 3.0476902371 2.9654393563 2.8937201384 2.8312413375 2.7767288255 2.7290193058 
2.6870952876 2.6500882075 2.617266536 4.7123889804 4.7123889804 4.7123889804 4.7123889804 4.7123889804 4.7123889804 
4.7123889804 4.7123889804 4.7123889804 4.6087898617 4.4991390697 4.3857031936 4.2712800401 4.1588146215 4.0509635631 
3.94975894 3.8564636551 3.7716124825 4.8159880991 4.9256388911 5.0390747672 5.1534979207 5.2659633393 5.3738143976 
5.4750190208 5.5683143056 5.6531654782 4.6087898617 4.4991390697 4.3857031936 4.2712800401 4.1588146215 4.0509635631 
3.94975894 3.8564636551 3.7716124825 4.8159880991 4.9256388911 5.0390747672 5.1534979207 5.2659633393 5.3738143976 
5.4750190208 5.5683143056 5.6531654782 1.5707963268 1.5707963268 1.5707963268 1.5707963268 1.5707963268 1.5707963268 
1.5707963268 1.5707963268 1.5707963268 1.6743954455 1.7840462375 1.8974821136 2.0119052671 2.1243706857 2.232221744 
2.3334263672 2.426721652 2.5115728246 1.4671972081 1.3575464161 1.24411054 1.1296873865 1.0172219679 0.90937090954 
0.80816628637 0.71487100155 0.63001982895 1.6743954455 1.7840462375 1.8974821136 2.0119052671 2.1243706857 2.232221744 
2.3334263672 2.426721652 2.5115728246 1.4671972081 1.3575464161 1.24411054 1.1296873865 1.0172219679 0.90937090954 
0.80816628637 0.71487100155 0.63001982895 3.6007720849 3.4966939854 3.3839471039 3.2645756454 3.1415926536 3.0186096618 
2.8992382033 2.7864913217 2.6824132222 5.8240058758 5.9280839753 6.0408308569 6.1602023154 6.2831853072 0.12298299178 
0.2423544503 0.35510133185 0.45917943135 6.0560271438 5.7885595667 5.9702140275 5.5125918794 5.6029703303 5.7885595667 
5.2659633393 5.2659633393 5.2659633393 5.2659633393 5.0674903122 5.0120975802 4.9155579264 4.7123889804 4.1588146215 
4.9155579264 4.8353719722 4.7123889804 4.5092200343 4.1588146215 3.6362183941 4.8004512023 4.7123889804 4.5894059886 
4.4126803806 4.1588146215 3.8218076305 3.4545639333 4.7123889804 4.6243267584 4.5092200343 4.3572876485 4.1588146215 
3.9121860814 3.6362183941 3.368750817 6.0174235957 5.9434319871 5.8263323547 5.8809213739 5.7674481418 5.6279784266 
5.8278025282 5.718968232 5.5891129425 5.4372443565 5.7823484065 5.678536687 5.5575666702 5.4192596322 5.2659633393 
5.743164462 5.6444075337 5.5314983644 5.4046708639 5.2659633393 5.1195510325 5.7091357773 5.6152775188 5.5096229709 
5.3926039573 5.2659633393 5.1329233157 4.9978930058 5.6793730533 5.5901633916 5.4910209005 5.3824597928 5.2659633393 
5.1440684722 5.0201624502 4.8979782167 5.5683143056 5.4750190208 5.4750190208 5.3738143976 5.3738143976 5.3738143976 
5.2659633393 5.2659633393 5.2659633393 5.2659633393 5.1534979207 5.1534979207 5.1534979207 5.1534979207 5.1534979207 
5.0390747672 5.0390747672 5.0390747672 5.0390747672 5.0390747672 5.0390747672 4.9256388911 4.9256388911 4.9256388911 
4.9256388911 4.9256388911 4.9256388911 4.9256388911 4.8159880991 4.8159880991 4.8159880991 4.8159880991 4.8159880991 
4.8159880991 4.8159880991 4.8159880991 4.6087898617 4.6087898617 4.4991390697 4.6087898617 4.4991390697 4.3857031936 
4.6087898617 4.4991390697 4.3857031936 4.2712800401 4.6087898617 4.4991390697 4.3857031936 4.2712800401 4.1588146215 
4.6087898617 4.4991390697 4.3857031936 4.2712800401 4.1588146215 4.0509635631 4.6087898617 4.4991390697 4.3857031936 
4.2712800401 4.1588146215 4.0509635631 3.94975894 4.6087898617 4.4991390697 4.3857031936 4.2712800401 4.1588146215 
4.0509635631 3.94975894 3.8564636551 4.526799744 4.4046155105 4.426884955 4.2807094886 4.2918546451 4.3052269283 
4.1588146215 4.1588146215 4.1588146215 4.1588146215 4.042318168 4.0321740035 4.0201070968 4.0055183285 3.9875336042 
3.9337570603 3.9151549899 3.8932795963 3.8672112905 3.8356650183 3.7967995342 3.8346145692 3.809500442 3.7803704271 
3.7462412737 3.7058097288 3.657329819 3.5984456061 3.7454049075 3.7156421835 3.6816134988 3.6424295543 3.5969754326 
3.5438565869 3.4813459737 3.4073543651 3.5642842451 3.4524645613 3.5233842518 3.3320300872 3.403123212 3.4773852225 
3.20576226 3.2746326772 3.348015857 3.4255060145 3.0774230472 3.1415926536 3.2112816139 3.2864685043 3.3668817272 
2.95115522 3.00855263 3.0719036933 3.1415926536 3.2178377658 3.3005964304 2.8307207459 2.8800620952 2.9351694502 
2.9967168029 3.0653475414 3.1415926536 3.225752376 2.718901062 2.7598010554 2.8058000847 2.8576792927 2.91630358 
2.9825888767 3.0574329311 3.1415926536 3.5642842451 3.5233842518 3.4524645613 3.4773852225 3.403123212 3.3320300872 
3.4255060145 3.348015857 3.2746326772 3.20576226 3.3668817272 3.2864685043 3.2112816139 3.1415926536 3.0774230472 
3.3005964304 3.2178377658 3.1415926536 3.0719036933 3.00855263 2.95115522 3.225752376 3.1415926536 3.0653475414 
2.9967168029 2.9351694502 2.8800620952 2.8307207459 3.1415926536 3.0574329311 2.9825888767 2.91630358 2.8576792927 
2.8058000847 2.7598010554 2.718901062 4.526799744 4.426884955 4.4046155105 4.3052269283 4.2918546451 4.2807094886 
4.1588146215 4.1588146215 4.1588146215 4.1588146215 3.9875336042 4.0055183285 4.0201070968 4.0321740035 4.042318168 
3.7967995342 3.8356650183 3.8672112905 3.8932795963 3.9151549899 3.9337570603 3.5984456061 3.657329819 3.7058097288 
3.7462412737 3.7803704271 3.809500442 3.8346145692 3.4073543651 3.4813459737 3.5438565869 3.5969754326 3.6424295543 
3.6816134988 3.7156421835 3.7454049075 4.7123889804 4.8004512023 4.6243267584 4.9155579264 4.7123889804 4.5092200343 
5.0674903122 4.8353719722 4.5894059886 4.3572876485 5.2659633393 5.0120975802 4.7123889804 4.4126803806 4.1588146215 
5.5125918794 5.2659633393 4.9155579264 4.5092200343 4.1588146215 3.9121860814 5.7885595667 5.6029703303 5.2659633393 
4.7123889804 4.1588146215 3.8218076305 3.6362183941 6.0560271438 5.9702140275 5.7885595667 5.2659633393 4.1588146215 
3.6362183941 3.4545639333 3.368750817 0.22715816343 0.49462574053 0.3129712797 0.77059342779 0.68021497688 0.49462574053 
1.0172219679 1.0172219679 1.0172219679 1.0172219679 1.2156949949 1.271087727 1.3676273807 1.5707963268 2.1243706857 
1.3676273807 1.447813335 1.5707963268 1.7739652728 2.1243706857 2.6469669131 1.4827341049 1.5707963268 1.6937793186 
1.8705049266 2.1243706857 2.4613776767 2.8286213739 1.5707963268 1.6588585487 1.7739652728 1.9258976586 2.1243706857 
2.3709992258 2.6469669131 2.9144344902 1.7563855631 1.8785697967 1.8563003522 2.0024758186 1.9913306621 1.9779583789 
2.1243706857 2.1243706857 2.1243706857 2.1243706857 2.2408671392 2.2510113037 2.2630782103 2.2776669786 2.295651703 
2.3494282469 2.3680303173 2.3899057108 2.4159740166 2.4475202889 2.486385773 2.448570738 2.4736848652 2.5028148801 
2.5369440334 2.5773755784 2.6258554882 2.6847397011 2.5377803997 2.5675431237 2.6015718084 2.6407557529 2.6862098746 
2.7393287203 2.8018393335 2.8758309421 1.6743954455 1.6743954455 1.7840462375 1.6743954455 1.7840462375 1.8974821136 
1.6743954455 1.7840462375 1.8974821136 2.0119052671 1.6743954455 1.7840462375 1.8974821136 2.0119052671 2.1243706857 
1.6743954455 1.7840462375 1.8974821136 2.0119052671 2.1243706857 2.232221744 1.6743954455 1.7840462375 1.8974821136 
2.0119052671 2.1243706857 2.232221744 2.3334263672 1.6743954455 1.7840462375 1.8974821136 2.0119052671 2.1243706857 
2.232221744 2.3334263672 2.426721652 1.4671972081 1.3575464161 1.4671972081 1.24411054 1.3575464161 1.4671972081 
1.1296873865 1.24411054 1.3575464161 1.4671972081 1.0172219679 1.1296873865 1.24411054 1.3575464161 1.4671972081 
0.90937090954 1.0172219679 1.1296873865 1.24411054 1.3575464161 1.4671972081 0.80816628637 0.90937090954 1.0172219679 
1.1296873865 1.24411054 1.3575464161 1.4671972081 0.71487100155 0.80816628637 0.90937090954 1.0172219679 1.1296873865 
1.24411054 1.3575464161 1.4671972081 0.60381225391 0.57404952988 0.69302191562 0.54002084522 0.66790778838 0.79216440667 
0.50083690068 0.63877777351 0.77356233629 0.90072551443 0.45538277901 0.60464862014 0.75168694275 0.89058134991 1.0172219679 
0.40226393329 0.56421707518 0.72561863695 0.87851444325 1.0172219679 1.139116835 0.33975332011 0.51573716537 0.69407236469 
0.86392567495 1.0172219679 1.1502619915 1.2630228569 0.26576171152 0.45685295248 0.6552068806 0.84594095064 1.0172219679 
1.1636342747 1.2852923014 1.3852070904 0.22715816343 0.3129712797 0.49462574053 0.49462574053 0.68021497688 0.77059342779 
1.0172219679 1.0172219679 1.0172219679 1.0172219679 2.1243706857 1.5707963268 1.3676273807 1.271087727 1.2156949949 
2.6469669131 2.1243706857 1.7739652728 1.5707963268 1.447813335 1.3676273807 2.8286213739 2.4613776767 2.1243706857 
1.8705049266 1.6937793186 1.5707963268 1.4827341049 2.9144344902 2.6469669131 2.3709992258 2.1243706857 1.9258976586 
1.7739652728 1.6588585487 1.5707963268 1.7563855631 1.8563003522 1.8785697967 1.9779583789 1.9913306621 2.0024758186 
2.1243706857 2.1243706857 2.1243706857 2.1243706857 2.295651703 2.2776669786 2.2630782103 2.2510113037 2.2408671392 
2.486385773 2.4475202889 2.4159740166 2.3899057108 2.3680303173 2.3494282469 2.6847397011 2.6258554882 2.5773755784 
2.5369440334 2.5028148801 2.4736848652 2.448570738 2.8758309421 2.8018393335 2.7393287203 2.6862098746 2.6407557529 
2.6015718084 2.5675431237 2.5377803997 5.8604937156 5.901393709 5.9723133995 5.9473927383 6.0216547488 6.0927478736 
5.9992719463 6.0767621038 6.1501452836 6.2190157008 6.0578962336 6.1383094565 6.2134963469 0 0.064169606361 
6.1241815303 6.206940195 6.2831853072 0.069688960264 0.13304002361 0.19043743361 6.1990255847 0 0.07624511221 
0.14487585072 0.20642320337 0.26153055843 0.3108719077 0 0.084159722458 0.15900377685 0.22528907359 0.28391336087 
0.3357925689 0.38179159818 0.42269159155 5.8604937156 5.9723133995 5.901393709 6.0927478736 6.0216547488 5.9473927383 
6.2190157008 6.1501452836 6.0767621038 5.9992719463 0.064169606361 0 6.2134963469 6.1383094565 6.0578962336 
0.19043743361 0.13304002361 0.069688960264 6.2831853072 6.206940195 6.1241815303 0.3108719077 0.26153055843 0.20642320337 
0.14487585072 0.07624511221 6.2831853072 6.1990255847 0.42269159155 0.38179159818 0.3357925689 0.28391336087 0.22528907359 
0.15900377685 0.084159722458 0 5.6793730533 5.7091357773 5.5901633916 5.743164462 5.6152775188 5.4910209005 
5.7823484065 5.6444075337 5.5096229709 5.3824597928 5.8278025282 5.678536687 5.5314983644 5.3926039573 5.2659633393 
5.8809213739 5.718968232 5.5575666702 5.4046708639 5.2659633393 5.1440684722 5.9434319871 5.7674481418 5.5891129425 
5.4192596322 5.2659633393 5.1329233157 5.0201624502 6.0174235957 5.8263323547 5.6279784266 5.4372443565 5.2659633393 
5.1195510325 4.9978930058 4.8979782167 1.3852070904 1.2852923014 1.2630228569 1.1636342747 1.1502619915 1.139116835 
1.0172219679 1.0172219679 1.0172219679 1.0172219679 0.84594095064 0.86392567495 0.87851444325 0.89058134991 0.90072551443 
0.6552068806 0.69407236469 0.72561863695 0.75168694275 0.77356233629 0.79216440667 0.45685295248 0.51573716537 0.56421707518 
0.60464862014 0.63877777351 0.66790778838 0.69302191562 0.26576171152 0.33975332011 0.40226393329 0.45538277901 0.50083690068 
0.54002084522 0.57404952988 0.60381225391 
_paraPhiHalf 1 1002 double
0 3.1415926536 0 3.1415926536 1.5707963268 1.5707963268 1.5707963268 1.5707963268 2.5880182947 
0.5535743589 2.5880182947 0.5535743589 0 0 0 0 3.1415926536 3.1415926536 
3.1415926536 3.1415926536 3.1415926536 0.17788134 0.38438696014 0.60631181711 0.82323535693 1.0172219679 1.1799687454 
1.3118704726 1.4175000338 1.5022335207 0.17788134 0.38438696014 0.60631181711 0.82323535693 1.0172219679 1.1799687454 
1.3118704726 1.4175000338 1.5022335207 0.093902416448 0.17615329733 0.2478725152 0.31035131605 0.36486382811 0.41257334776 
0.45449736604 0.4915044461 0.52432611754 0.093902416448 0.17615329733 0.2478725152 0.31035131605 0.36486382811 0.41257334776 
0.45449736604 0.4915044461 0.52432611754 2.9637113136 2.7572056934 2.5352808365 2.3183572967 2.1243706857 1.9616239082 
1.829722181 1.7240926197 1.6393591329 2.9637113136 2.7572056934 2.5352808365 2.3183572967 2.1243706857 1.9616239082 
1.829722181 1.7240926197 1.6393591329 3.0476902371 2.9654393563 2.8937201384 2.8312413375 2.7767288255 2.7290193058 
2.6870952876 2.6500882075 2.617266536 3.0476902371 2.9654393563 2.8937201384 2.8312413375 2.7767288255 2.7290193058 
2.6870952876 2.6500882075 2.617266536 0 0 0 0 3.1415926536 3.1415926536 
3.1415926536 3.1415926536 3.1415926536 0.17788134 0.38438696014 0.60631181711 0.82323535693 1.0172219679 1.1799687454 
1.3118704726 1.4175000338 1.5022335207 0.17788134 0.38438696014 0.60631181711 0.82323535693 1.0172219679 1.1799687454 
1.3118704726 1.4175000338 1.5022335207 0.093902416448 0.17615329733 0.2478725152 0.31035131605 0.36486382811 0.41257334776 
0.45449736604 0.4915044461 0.52432611754 0.093902416448 0.17615329733 0.2478725152 0.31035131605 0.36486382811 0.41257334776 
0.45449736604 0.4915044461 0.52432611754 2.9637113136 2.7572056934 2.5352808365 2.3183572967 2.1243706857 1.9616239082 
1.829722181 1.7240926197 1.6393591329 2.9637113136 2.7572056934 2.5352808365 2.3183572967 2.1243706857 1.9616239082 
1.829722181 1.7240926197 1.6393591329 3.0476902371 2.9654393563 2.8937201384 2.8312413375 2.7767288255 2.7290193058 
2.6870952876 2.6500882075 2.617266536 3.0476902371 2.9654393563 2.8937201384 2.8312413375 2.7767288255 2.7290193058 
2.6870952876 2.6500882075 2.617266536 1.5707963268 1.5707963268 1.5707963268 1.5707963268 1.5707963268 1.5707963268 
1.5707963268 1.5707963268 1.5707963268 1.6743954455 1.7840462375 1.8974821136 2.0119052671 2.1243706857 2.232221744 
2.3334263672 2.426721652 2.5115728246 1.4671972081 1.3575464161 1.24411054 1.1296873865 1.0172219679 0.90937090954 
0.80816628637 0.71487100155 0.63001982895 1.6743954455 1.7840462375 1.8974821136 2.0119052671 2.1243706857 2.232221744 
2.3334263672 2.426721652 2.5115728246 1.4671972081 1.3575464161 1.24411054 1.1296873865 1.0172219679 0.90937090954 
0.80816628637 0.71487100155 0.63001982895 1.5707963268 1.5707963268 1.5707963268 1.5707963268 1.5707963268 1.5707963268 
1.5707963268 1.5707963268 1.5707963268 1.6743954455 1.7840462375 1.8974821136 2.0119052671 2.1243706857 2.232221744 
2.3334263672 2.426721652 2.5115728246 1.4671972081 1.3575464161 1.24411054 1.1296873865 1.0172219679 0.90937090954 
0.80816628637 0.71487100155 0.63001982895 1.6743954455 1.7840462375 1.8974821136 2.0119052671 2.1243706857 2.232221744 
2.3334263672 2.426721652 2.5115728246 1.4671972081 1.3575464161 1.24411054 1.1296873865 1.0172219679 0.90937090954 
0.80816628637 0.71487100155 0.63001982895 2.6824132222 2.7864913217 2.8992382033 3.0186096618 3.1415926536 3.0186096618 
2.8992382033 2.7864913217 2.6824132222 0.45917943135 0.35510133185 0.2423544503 0.12298299178 0 0.12298299178 
0.2423544503 0.35510133185 0.45917943135 0.22715816343 0.49462574053 0.3129712797 0.77059342779 0.68021497688 0.49462574053 
1.0172219679 1.0172219679 1.0172219679 1.0172219679 1.2156949949 1.271087727 1.3676273807 1.5707963268 2.1243706857 
1.3676273807 1.447813335 1.5707963268 1.7739652728 2.1243706857 2.6469669131 1.4827341049 1.5707963268 1.6937793186 
1.8705049266 2.1243706857 2.4613776767 2.8286213739 1.5707963268 1.6588585487 1.7739652728 1.9258976586 2.1243706857 
2.3709992258 2.6469669131 2.9144344902 0.26576171152 0.33975332011 0.45685295248 0.40226393329 0.51573716537 0.6552068806 
0.45538277901 0.56421707518 0.69407236469 0.84594095064 0.50083690068 0.60464862014 0.72561863695 0.86392567495 1.0172219679 
0.54002084522 0.63877777351 0.75168694275 0.87851444325 1.0172219679 1.1636342747 0.57404952988 0.66790778838 0.77356233629 
0.89058134991 1.0172219679 1.1502619915 1.2852923014 0.60381225391 0.69302191562 0.79216440667 0.90072551443 1.0172219679 
1.139116835 1.2630228569 1.3852070904 0.71487100155 0.80816628637 0.80816628637 0.90937090954 0.90937090954 0.90937090954 
1.0172219679 1.0172219679 1.0172219679 1.0172219679 1.1296873865 1.1296873865 1.1296873865 1.1296873865 1.1296873865 
1.24411054 1.24411054 1.24411054 1.24411054 1.24411054 1.24411054 1.3575464161 1.3575464161 1.3575464161 
1.3575464161 1.3575464161 1.3575464161 1.3575464161 1.4671972081 1.4671972081 1.4671972081 1.4671972081 1.4671972081 
1.4671972081 1.4671972081 1.4671972081 1.6743954455 1.6743954455 1.7840462375 1.6743954455 1.7840462375 1.8974821136 
1.6743954455 1.7840462375 1.8974821136 2.0119052671 1.6743954455 1.7840462375 1.8974821136 2.0119052671 2.1243706857 
1.6743954455 1.7840462375 1.8974821136 2.0119052671 2.1243706857 2.232221744 1.6743954455 1.7840462375 1.8974821136 
2.0119052671 2.1243706857 2.232221744 2.3334263672 1.6743954455 1.7840462375 1.8974821136 2.0119052671 2.1243706857 
2.232221744 2.3334263672 2.426721652 1.7563855631 1.8785697967 1.8563003522 2.0024758186 1.9913306621 1.9779583789 
2.1243706857 2.1243706857 2.1243706857 2.1243706857 2.2408671392 2.2510113037 2.2630782103 2.2776669786 2.295651703 
2.3494282469 2.3680303173 2.3899057108 2.4159740166 2.4475202889 2.486385773 2.448570738 2.4736848652 2.5028148801 
2.5369440334 2.5773755784 2.6258554882 2.6847397011 2.5377803997 2.5675431237 2.6015718084 2.6407557529 2.6862098746 
2.7393287203 2.8018393335 2.8758309421 2.718901062 2.8307207459 2.7598010554 2.95115522 2.8800620952 2.8058000847 
3.0774230472 3.00855263 2.9351694502 2.8576792927 3.0774230472 3.1415926536 3.0719036933 2.9967168029 2.91630358 
2.95115522 3.00855263 3.0719036933 3.1415926536 3.0653475414 2.9825888767 2.8307207459 2.8800620952 2.9351694502 
2.9967168029 3.0653475414 3.1415926536 3.0574329311 2.718901062 2.7598010554 2.8058000847 2.8576792927 2.91630358 
2.9825888767 3.0574329311 3.1415926536 2.718901062 2.7598010554 2.8307207459 2.8058000847 2.8800620952 2.95115522 
2.8576792927 2.9351694502 3.00855263 3.0774230472 2.91630358 2.9967168029 3.0719036933 3.1415926536 3.0774230472 
2.9825888767 3.0653475414 3.1415926536 3.0719036933 3.00855263 2.95115522 3.0574329311 3.1415926536 3.0653475414 