# vtk DataFile Version 5.1
vtk output
ASCII
DATASET POLYDATA
POINTS 1002 float
-5.87342 -0.0164131 -3.82261 5.48457 -0.0801671 -3.78685 -5.63492 0.0262286 5.08809 
5.19657 0.243201 3.59219 0.383053 6.9632 -2.79124 0.931571 6.62475 2.64704 
0.0646588 -6.56759 -2.51781 0.362861 -6.43997 2.66814 10.2337 4.33828 -0.388677 
-11.3507 5.03092 -1.84193 9.56426 -4.9528 -0.712396 -8.86894 -4.42286 0.171568 
-4.96691 -0.0554568 -3.92079 -3.88627 -0.117368 -3.89782 -2.62617 -0.176979 -3.69856 
-1.27384 -0.17953 -3.38984 0.0544078 -0.108299 -3.15076 1.32718 -0.01492 -3.15673 
2.56062 0.0399692 -3.42562 3.70608 0.0359204 -3.76609 4.68521 -0.0140809 -3.9244 
-5.5883 0.594895 -3.83432 -5.1657 1.23184 -3.78605 -4.65597 1.86975 -3.62194 
-4.12368 2.53508 -3.33311 -3.52543 3.27079 -2.89349 -2.75915 4.04171 -2.31214 
-1.85749 4.78604 -1.82678 -0.978272 5.52128 -1.77138 -0.229082 6.26964 -2.18867 
-5.49942 -0.641656 -3.85861 -4.95978 -1.29744 -3.82717 -4.30063 -1.98248 -3.73005 
-3.63917 -2.71466 -3.59167 -3.04965 -3.49897 -3.43662 -2.481 -4.27755 -3.2777 
-1.85092 -4.96858 -3.10435 -1.17094 -5.5569 -2.90308 -0.516916 -6.08306 -2.6953 
-6.59163 0.417417 -3.68465 -7.38773 0.944582 -3.61328 -8.27073 1.54421 -3.71811 
-9.11632 2.149 -3.8083 -9.81366 2.73135 -3.58797 -10.4571 3.34602 -3.19047 
-11.1319 4.00647 -2.96197 -11.6392 4.59078 -2.82814 -11.7154 4.94702 -2.47166 
-6.53433 -0.394183 -3.75447 -7.19695 -0.822881 -3.74149 -7.80611 -1.26242 -3.70896 
-8.31007 -1.69384 -3.50774 -8.71579 -2.14637 -3.1047 -9.02737 -2.64548 -2.59382 
-9.18582 -3.1688 -1.99485 -9.16595 -3.66978 -1.26896 -9.03488 -4.1009 -0.495211 
5.14455 0.499326 -3.48022 4.76175 1.1666 -3.18267 4.33438 1.92201 -2.90807 
3.78795 2.72669 -2.64967 3.06886 3.50484 -2.42054 2.27791 4.22843 -2.25822 
1.60281 4.96201 -2.22486 1.11672 5.73359 -2.36256 0.742418 6.44163 -2.60268 
5.27332 -0.611667 -4.12564 4.90326 -1.22309 -4.06089 4.43529 -1.89081 -3.54874 
3.97603 -2.55189 -2.93423 3.49776 -3.23028 -2.6515 2.85929 -4.00898 -2.688 
2.06312 -4.83561 -2.71995 1.28066 -5.55582 -2.64382 0.622026 -6.11461 -2.56788 
6.00283 0.222414 -3.14114 6.55597 0.631804 -2.28957 7.27023 1.17504 -1.62686 
8.18461 1.81559 -1.48375 9.17771 2.51493 -1.82125 10.0546 3.22988 -2.21569 
10.6351 3.83021 -2.22752 10.8112 4.18474 -1.77176 10.6234 4.31373 -1.07655 
6.14166 -0.465864 -3.77262 6.79538 -0.878847 -3.64714 7.37922 -1.32096 -3.35208 
7.92311 -1.76558 -2.98547 8.52932 -2.18748 -2.74035 9.15617 -2.65172 -2.59301 
9.59937 -3.25423 -2.30158 9.75618 -3.94781 -1.78193 9.70951 -4.55715 -1.19808 
-4.78581 -0.0395407 4.81375 -3.89052 -0.116285 4.43425 -2.83247 -0.109381 4.27024 
-1.59017 -0.00865248 4.40692 -0.331951 0.0737401 4.489 0.815609 0.0768064 4.22416 
1.9394 0.0811545 3.82958 3.1141 0.146413 3.63252 4.24009 0.220788 3.61886 
-5.33052 0.590977 4.96383 -4.9336 1.18432 4.58449 -4.39271 1.85938 4.16714 
-3.68021 2.61822 4.0084 -2.82405 3.38914 4.04513 -1.92998 4.13645 3.91939 
-1.11238 4.87894 3.52561 -0.392257 5.57492 3.09605 0.280444 6.1521 2.81247 
-5.36665 -0.620361 4.96462 -5.10359 -1.37291 4.85703 -4.84289 -2.14296 4.81475 
-4.41947 -2.83435 4.678 -3.66988 -3.47246 4.2662 -2.71496 -4.1509 3.73266 
-1.83614 -4.84672 3.38069 -1.10561 -5.45627 3.21002 -0.394929 -5.96506 3.0023 
-6.36284 0.392152 5.1554 -7.16721 0.706777 4.98331 -7.98998 1.01874 4.48876 
-8.75699 1.44252 3.67509 -9.41332 2.00819 2.65496 -9.96662 2.61612 1.61248 
-10.4699 3.21313 0.661538 -10.9265 3.84516 -0.222258 -11.2515 4.49305 -1.07398 
-6.41018 -0.354511 5.0042 -7.32144 -0.835057 4.61295 -8.26102 -1.36891 4.16326 
-9.05484 -1.89342 3.86295 -9.53402 -2.3542 3.5269 -9.63381 -2.74421 2.87219 
-9.47038 -3.13395 2.01857 -9.24408 -3.58329 1.27411 -9.05224 -4.04493 0.700549 
5.02125 0.866071 3.78712 4.77474 1.55681 4.03573 4.40297 2.28124 4.20187 
3.88881 2.96877 4.12216 3.28632 3.59038 3.75174 2.69201 4.2216 3.2387 
2.17659 4.92857 2.83218 1.74144 5.63533 2.66987 1.33948 6.21193 2.66853 
4.79284 -0.379253 3.49375 4.36114 -1.08556 3.43353 3.90868 -1.86816 3.38421 
3.40226 -2.6825 3.23898 2.86497 -3.4694 3.00685 2.38534 -4.20342 2.86682 
1.96773 -4.87726 2.89 1.51198 -5.46983 2.929 0.962783 -5.9796 2.85109 
5.95097 0.594444 3.52132 6.67366 0.938871 3.23566 7.41302 1.30381 2.81159 
8.24237 1.73274 2.47668 9.10314 2.25696 2.30892 9.81135 2.85755 2.06936 
10.2453 3.43679 1.54518 10.4151 3.87986 0.839141 10.3874 4.1606 0.165835 
5.83923 -0.154782 3.43769 6.52421 -0.609981 3.1982 7.25649 -1.1271 2.8005 
7.9983 -1.69231 2.31745 8.65775 -2.24811 1.89987 9.12959 -2.77724 1.50414 
9.38708 -3.35203 0.983382 9.5059 -3.98925 0.378301 9.56336 -4.56583 -0.187765 
0.492093 7.55636 -3.13892 0.578523 8.02945 -3.05277 0.633157 8.47399 -2.32901 
0.686247 8.99591 -1.28426 0.79977 9.40326 -0.408351 0.979316 9.30992 0.296602 
1.13052 8.67244 1.09549 1.15896 7.85569 1.89725 1.06851 7.16339 2.42205 
1.16035 7.29399 -3.20423 1.96938 7.44727 -3.33277 2.89378 7.32204 -3.12228 
3.99318 6.94895 -2.64544 5.22363 6.47039 -2.02296 6.44555 5.97193 -1.38689 
7.5475 5.45838 -0.890659 8.52746 4.98017 -0.622473 9.4251 4.61062 -0.509221 
-0.435042 6.90738 -2.43431 -1.49958 6.68503 -1.92453 -2.78469 6.35602 -1.50337 
-4.17917 6.11786 -1.4206 -5.59055 6.15543 -1.69912 -7.0117 6.37589 -2.11325 
-8.41525 6.46139 -2.40125 -9.67167 6.21421 -2.43223 -10.6552 5.68704 -2.21699 
1.84454 6.84404 2.53177 2.74204 7.01189 2.35038 3.58972 7.08664 2.07192 
4.47435 7.01579 1.70819 5.47432 6.71619 1.34396 6.49928 6.15121 1.07284 
7.43644 5.46109 0.86562 8.33826 4.88497 0.581573 9.28898 4.53399 0.141689 
0.0547781 6.66833 2.61055 -0.898062 6.72567 2.52565 -1.90132 6.81345 2.40198 
-3.13606 6.71308 2.04471 -4.74778 6.25504 1.31331 -6.47705 5.72108 0.477247 
-7.95831 5.48555 -0.162069 -9.19582 5.46353 -0.703227 -10.3439 5.34466 -1.3005 
0.0598148 -7.17131 -2.38183 0.0336123 -7.8723 -2.16391 0.0365377 -8.55033 -1.69835 
0.137445 -9.02144 -0.909863 0.345766 -9.16048 0.00996457 0.563412 -8.94474 0.764495 
0.662317 -8.43059 1.301 0.611056 -7.75005 1.77362 0.483489 -7.05692 2.25044 
1.00102 -6.70822 -2.3429 2.09611 -6.67073 -2.03383 3.34518 -6.51288 -1.709 
4.63882 -6.52399 -1.70082 5.84872 -6.8509 -2.13621 6.96466 -7.14097 -2.55623 
7.98112 -6.9743 -2.44148 8.77522 -6.39462 -1.86381 9.27227 -5.67784 -1.21822 
-0.835745 -6.67003 -2.48489 -1.8319 -6.74547 -2.32087 -2.91926 -6.84803 -2.10856 
-4.02241 -6.94781 -1.95028 -5.05954 -6.95216 -1.82353 -6.02514 -6.80259 -1.58455 
-6.92603 -6.46877 -1.15993 -7.71156 -5.92303 -0.644203 -8.34675 -5.20317 -0.179927 
1.55981 -6.69793 2.39631 2.79246 -7.0486 2.17537 3.91187 -7.34988 2.09653 
4.8778 -7.406 1.999 5.83354 -7.19107 1.57095 6.88739 -6.88246 0.791837 
7.90572 -6.5848 0.0323859 8.68576 -6.20457 -0.407503 9.2007 -5.64717 -0.585573 
-0.790662 -6.6379 2.66074 -2.06218 -6.91285 2.58978 -3.33781 -7.16507 2.47443 
-4.48905 -7.23562 2.30739 -5.48482 -7.06339 2.01234 -6.3844 -6.7438 1.58197 
-7.19478 -6.35157 1.15654 -7.86137 -5.83645 0.828867 -8.39296 -5.16565 0.529994 
11.2631 4.04833 -0.547904 12.1754 3.5656 -0.484671 12.7283 2.75847 -0.209979 
12.7924 1.69919 0.0253457 12.4443 0.591384 -0.0303284 11.8512 -0.505934 -0.301969 
11.1561 -1.66683 -0.507065 10.4929 -2.86404 -0.554141 9.96131 -3.98033 -0.585124 
-12.1989 4.31696 -1.74975 -12.8308 3.5106 -1.41264 -13.1073 2.58501 -0.912176 
-13.04 1.4667 -0.51183 -12.7176 0.235562 -0.399842 -12.1459 -0.859059 -0.430353 
-11.3221 -1.73055 -0.345169 -10.3888 -2.55419 -0.128118 -9.54265 -3.46902 0.0698109 
-4.5989 0.559886 -3.91682 -4.07241 1.21614 -3.74795 -3.42737 0.522936 -3.77268 
-3.47242 1.90927 -3.4015 -2.83346 1.22567 -3.41172 -2.10796 0.500096 -3.38127 
-2.87724 2.65999 -2.99841 -2.22773 1.98011 -2.94418 -1.53998 1.22755 -2.89778 
-0.749806 0.516073 -2.99594 -2.22075 3.44398 -2.60735 -1.64587 2.77409 -2.61925 
-1.00419 1.99313 -2.51512 -0.232065 1.22106 -2.61848 0.600789 0.577001 -2.93711 
-1.4256 4.18993 -2.23016 -0.971123 3.54707 -2.45191 -0.420657 2.79835 -2.43341 
0.309304 1.97308 -2.47712 1.16636 1.24518 -2.81406 1.95807 0.64266 -3.23192 
-0.587116 4.90944 -2.01654 -0.191406 4.25909 -2.29666 0.300866 3.58058 -2.45763 
0.976635 2.80244 -2.54955 1.79872 1.98994 -2.79954 2.59954 1.27974 -3.22163 
3.23845 0.654094 -3.58701 0.147645 5.67142 -2.15889 0.535398 4.97374 -2.21316 
1.02947 4.287 -2.34895 1.70008 3.5884 -2.51412 2.48462 2.80603 -2.73206 
3.22839 1.99647 -3.04777 3.83346 1.25683 -3.39904 4.3066 0.594303 -3.69716 
-6.27738 1.11117 -3.67953 -7.04859 1.73249 -3.62388 -5.84657 1.80688 -3.65184 
-7.86964 2.41082 -3.70993 -6.60123 2.49184 -3.63368 -5.37147 2.46858 -3.54738 
-8.62654 3.0325 -3.70537 -7.34163 3.20076 -3.68623 -6.10931 3.1711 -3.52812 
-4.84437 3.14952 -3.23283 -9.31384 3.58429 -3.49811 -7.99671 3.80552 -3.617 
-6.73634 3.86483 -3.4576 -5.49477 3.83894 -3.03301 -4.13239 3.90584 -2.57605 
-10.0124 4.1991 -3.31801 -8.62956 4.37471 -3.46334 -7.25261 4.46291 -3.28178 
-5.97713 4.47543 -2.74865 -4.63272 4.54677 -2.13438 -3.18814 4.68812 -1.80356 
-10.6081 4.89532 -3.20319 -9.23734 5.07366 -3.32871 -7.75215 5.09999 -3.10475 
-6.36506 5.03994 -2.52097 -5.01369 5.07429 -1.82023 -3.57397 5.25826 -1.41035 
-2.16146 5.44585 -1.45934 -10.8467 5.45876 -2.86839 -9.63092 5.79029 -3.03368 
-8.18695 5.84841 -2.86907 -6.72945 5.68404 -2.37396 -5.3326 5.55908 -1.74454 
-3.91335 5.68422 -1.3409 -2.48833 5.96833 -1.39182 -1.22254 6.19399 -1.77454 
-9.59928 6.05303 -1.57593 -8.39097 6.18379 -0.87336 -8.56722 6.61422 -1.6901 
-6.98237 6.297 -0.203908 -7.25693 6.82281 -0.902321 -7.25029 6.86634 -1.61236 
-5.27253 6.69341 0.539195 -5.65435 7.13254 -0.177788 -5.80444 7.23451 -0.867245 
-5.76137 6.81648 -1.42869 -3.50398 7.20923 1.28254 -3.85926 7.65199 0.467076 
-4.08918 7.79547 -0.280016 -4.20636 7.42144 -0.924374 -4.24106 6.73227 -1.33303 
-2.06332 7.41643 1.76119 -2.26303 8.01911 0.912107 -2.42227 8.38774 0.105475 
-2.54925 8.2117 -0.593268 -2.68675 7.56329 -1.19694 -2.78537 6.86593 -1.52511 
-0.93734 7.32092 2.00438 -1.01523 8.02658 1.17898 -1.09293 8.67076 0.325629 
[...]
POINT_DATA 1002
FIELD FieldData 4
_paraPhi 1 1002 double
6.2831853072 3.1415926536 6.2831853072 3.1415926536 4.7123889804 4.7123889804 1.5707963268 1.5707963268 3.6951670125 
5.7296109483 2.5880182947 0.5535743589 6.2831853072 6.2831853072 6.2831853072 6.2831853072 3.1415926536 3.1415926536 
3.1415926536 3.1415926536 3.1415926536 6.1053039672 5.898798347 5.6768734901 5.4599499503 5.2659633393 5.1032165617 
4.9713148346 4.8656852733 4.7809517865 0.17788134 0.38438696014 0.60631181711 0.82323535693 1.0172219679 1.1799687454 
1.3118704726 1.4175000338 1.5022335207 6.1892828907 6.1070320098 6.035312792 5.9728339911 5.9183214791 5.8706119594 
5.8286879411 5.7916808611 5.7588591896 0.093902416448 0.17615329733 0.2478725152 0.31035131605 0.36486382811 0.41257334776 
0.45449736604 0.4915044461 0.52432611754 3.3194739936 3.5259796137 3.7479044707 3.9648280105 4.1588146215 4.321561399 
4.4534631262 4.5590926874 4.6438261743 2.9637113136 2.7572056934 2.5352808365 2.3183572967 2.1243706857 1.9616239082 
1.829722181 1.7240926197 1.6393591329 3.23549507 3.3177459509 3.3894651688 3.4519439696 3.5064564817 3.5541660013 
3.5960900196 3.6330970997 3.6659187711 3.0476902371 2.9654393563 2.8937201384 2.8312413375 2.7767288255 2.7290193058 
2.6870952876 2.6500882075 2.617266536 6.2831853072 6.2831853072 6.2831853072 6.2831853072 3.1415926536 3.1415926536 
3.1415926536 3.1415926536 3.1415926536 6.1053039672 5.898798347 5.6768734901 5.4599499503 5.2659633393 5.1032165617 
4.9713148346 4.8656852733 4.7809517865 0.17788134 0.38438696014 0.60631181711 0.82323535693 1.0172219679 1.1799687454 
1.3118704726 1.4175000338 1.5022335207 6.1892828907 6.1070320098 6.035312792 5.9728339911 5.9183214791 5.8706119594 
5.8286879411 5.7916808611 5.7588591896 0.093902416448 0.17615329733 0.2478725152 0.31035131605 0.36486382811 0.41257334776 
0.45449736604 0.4915044461 0.52432611754 3.3194739936 3.5259796137 3.7479044707 3.9648280105 4.1588146215 4.321561399 
4.4534631262 4.5590926874 4.6438261743 2.9637113136 2.7572056934 2.5352808365 2.3183572967 2.1243706857 1.9616239082 
1.829722181 1.7240926197 1.6393591329 3.23549507 3.3177459509 3.3894651688 3.4519439696 3.5064564817 3.5541660013 
3.5960900196 3.6330970997 3.6659187711 3.0476902371 2.9654393563 2.8937201384 2.8312413375 2.7767288255 2.7290193058 
2.6870952876 2.6500882075 2.617266536 4.7123889804 4.7123889804 4.7123889804 4.7123889804 4.7123889804 4.7123889804 
4.7123889804 4.7123889804 4.7123889804 4.6087898617 4.4991390697 4.3857031936 4.2712800401 4.1588146215 4.0509635631 
3.94975894 3.8564636551 3.7716124825 4.8159880991 4.9256388911 5.0390747672 5.1534979207 5.2659633393 5.3738143976 
5.4750190208 5.5683143056 5.6531654782 4.6087898617 4.4991390697 4.3857031936 4.2712800401 4.1588146215 4.0509635631 
3.94975894 3.8564636551 3.7716124825 4.8159880991 4.9256388911 5.0390747672 5.1534979207 5.2659633393 5.3738143976 
5.4750190208 5.5683143056 5.6531654782 1.5707963268 1.5707963268 1.5707963268 1.5707963268 1.5707963268 1.5707963268 
1.5707963268 1.5707963268 1.5707963268 1.6743954455 1.7840462375 1.8974821136 2.0119052671 2.1243706857 2.232221744 
2.3334263672 2.426721652 2.5115728246 1.4671972081 1.3575464161 1.24411054 1.1296873865 1.0172219679 0.90937090954 
0.80816628637 0.71487100155 0.63001982895 1.6743954455 1.7840462375 1.8974821136 2.0119052671 2.1243706857 2.232221744 
2.3334263672 2.426721652 2.5115728246 1.4671972081 1.3575464161 1.24411054 1.1296873865 1.0172219679 0.90937090954 
0.80816628637 0.71487100155 0.63001982895 3.6007720849 3.4966939854 3.3839471039 3.2645756454 3.1415926536 3.0186096618 
2.8992382033 2.7864913217 2.6824132222 5.8240058758 5.9280839753 6.0408308569 6.1602023154 6.2831853072 0.12298299178 
0.2423544503 0.35510133185 0.45917943135 6.0560271438 5.7885595667 5.9702140275 5.5125918794 5.6029703303 5.7885595667 
5.2659633393 5.2659633393 5.2659633393 5.2659633393 5.0674903122 5.0120975802 4.9155579264 4.7123889804 4.1588146215 
4.9155579264 4.8353719722 4.7123889804 4.5092200343 4.1588146215 3.6362183941 4.8004512023 4.7123889804 4.5894059886 
4.4126803806 4.1588146215 3.8218076305 3.4545639333 4.7123889804 4.6243267584 4.5092200343 4.3572876485 4.1588146215 
3.9121860814 3.6362183941 3.368750817 6.0174235957 5.9434319871 5.8263323547 5.8809213739 5.7674481418 5.6279784266 
5.8278025282 5.718968232 5.5891129425 5.4372443565 5.7823484065 5.678536687 5.5575666702 5.4192596322 5.2659633393 
5.743164462 5.6444075337 5.5314983644 5.4046708639 5.2659633393 5.1195510325 5.7091357773 5.6152775188 5.5096229709 
5.3926039573 5.2659633393 5.1329233157 4.9978930058 5.6793730533 5.5901633916 5.4910209005 5.3824597928 5.2659633393 
5.1440684722 5.0201624502 4.8979782167 5.5683143056 5.4750190208 5.4750190208 5.3738143976 5.3738143976 5.3738143976 
5.2659633393 5.2659633393 5.2659633393 5.2659633393 5.1534979207 5.1534979207 5.1534979207 5.1534979207 5.1534979207 
5.0390747672 5.0390747672 5.0390747672 5.0390747672 5.0390747672 5.0390747672 4.9256388911 4.9256388911 4.9256388911 
4.9256388911 4.9256388911 4.9256388911 4.9256388911 4.8159880991 4.8159880991 4.8159880991 4.8159880991 4.8159880991 
4.8159880991 4.8159880991 4.8159880991 4.6087898617 4.6087898617 4.4991390697 4.6087898617 4.4991390697 4.3857031936 
4.6087898617 4.4991390697 4.3857031936 4.2712800401 4.6087898617 4.4991390697 4.3857031936 4.2712800401 4.1588146215 
4.6087898617 4.4991390697 4.3857031936 4.2712800401 4.1588146215 4.0509635631 4.6087898617 4.4991390697 4.3857031936 
4.2712800401 4.1588146215 4.0509635631 3.94975894 4.6087898617 4.4991390697 4.3857031936 4.2712800401 4.1588146215 
4.0509635631 3.94975894 3.8564636551 4.526799744 4.4046155105 4.426884955 4.2807094886 4.2918546451 4.3052269283 
4.1588146215 4.1588146215 4.1588146215 4.1588146215 4.042318168 4.0321740035 4.0201070968 4.0055183285 3.9875336042 
3.9337570603 3.9151549899 3.8932795963 3.8672112905 3.8356650183 3.7967995342 3.8346145692 3.809500442 3.7803704271 
3.7462412737 3.7058097288 3.657329819 3.5984456061 3.7454049075 3.7156421835 3.6816134988 3.6424295543 3.5969754326 
3.5438565869 3.4813459737 3.4073543651 3.5642842451 3.4524645613 3.5233842518 3.3320300872 3.403123212 3.4773852225 
3.20576226 3.2746326772 3.348015857 3.4255060145 3.0774230472 3.1415926536 3.2112816139 3.2864685043 3.3668817272 
2.95115522 3.00855263 3.0719036933 3.1415926536 3.2178377658 3.3005964304 2.8307207459 2.8800620952 2.9351694502 
2.9967168029 3.0653475414 3.1415926536 3.225752376 2.718901062 2.7598010554 2.8058000847 2.8576792927 2.91630358 
2.9825888767 3.0574329311 3.1415926536 3.5642842451 3.5233842518 3.4524645613 3.4773852225 3.403123212 3.3320300872 
3.4255060145 3.348015857 3.2746326772 3.20576226 3.3668817272 3.2864685043 3.2112816139 3.1415926536 3.0774230472 
3.3005964304 3.2178377658 3.1415926536 3.0719036933 3.00855263 2.95115522 3.225752376 3.1415926536 3.0653475414 
2.9967168029 2.9351694502 2.8800620952 2.8307207459 3.1415926536 3.0574329311 2.9825888767 2.91630358 2.8576792927 
2.8058000847 2.7598010554 2.718901062 4.526799744 4.426884955 4.4046155105 4.3052269283 4.2918546451 4.2807094886 
4.1588146215 4.1588146215 4.1588146215 4.1588146215 3.9875336042 4.0055183285 4.0201070968 4.0321740035 4.042318168 
3.7967995342 3.8356650183 3.8672112905 3.8932795963 3.9151549899 3.9337570603 3.5984456061 3.657329819 3.7058097288 
3.7462412737 3.7803704271 3.809500442 3.8346145692 3.4073543651 3.4813459737 3.5438565869 3.5969754326 3.6424295543 
3.6816134988 3.7156421835 3.7454049075 4.7123889804 4.8004512023 4.6243267584 4.9155579264 4.7123889804 4.5092200343 
5.0674903122 4.8353719722 4.5894059886 4.3572876485 5.2659633393 5.0120975802 4.7123889804 4.4126803806 4.1588146215 
5.5125918794 5.2659633393 4.9155579264 4.5092200343 4.1588146215 3.9121860814 5.7885595667 5.6029703303 5.2659633393 
4.7123889804 4.1588146215 3.8218076305 3.6362183941 6.0560271438 5.9702140275 5.7885595667 5.2659633393 4.1588146215 
3.6362183941 3.4545639333 3.368750817 0.22715816343 0.49462574053 0.3129712797 0.77059342779 0.68021497688 0.49462574053 
1.0172219679 1.0172219679 1.0172219679 1.0172219679 1.2156949949 1.271087727 1.3676273807 1.5707963268 2.1243706857 
1.3676273807 1.447813335 1.5707963268 1.7739652728 2.1243706857 2.6469669131 1.4827341049 1.5707963268 1.6937793186 
1.8705049266 2.1243706857 2.4613776767 2.8286213739 1.5707963268 1.6588585487 1.7739652728 1.9258976586 2.1243706857 
2.3709992258 2.6469669131 2.9144344902 1.7563855631 1.8785697967 1.8563003522 2.0024758186 1.9913306621 1.9779583789 
2.1243706857 2.1243706857 2.1243706857 2.1243706857 2.2408671392 2.2510113037 2.2630782103 2.2776669786 2.295651703 
2.3494282469 2.3680303173 2.3899057108 2.4159740166 2.4475202889 2.486385773 2.448570738 2.4736848652 2.5028148801 
2.5369440334 2.5773755784 2.6258554882 2.6847397011 2.5377803997 2.5675431237 2.6015718084 2.6407557529 2.6862098746 
2.7393287203 2.8018393335 2.8758309421 1.6743954455 1.6743954455 1.7840462375 1.6743954455 1.7840462375 1.8974821136 
1.6743954455 1.7840462375 1.8974821136 2.0119052671 1.6743954455 1.7840462375 1.8974821136 2.0119052671 2.1243706857 
1.6743954455 1.7840462375 1.8974821136 2.0119052671 2.1243706857 2.232221744 1.6743954455 1.7840462375 1.8974821136 
2.0119052671 2.1243706857 2.232221744 2.3334263672 1.6743954455 1.7840462375 1.8974821136 2.0119052671 2.1243706857 
2.232221744 2.3334263672 2.426721652 1.4671972081 1.3575464161 1.4671972081 1.24411054 1.3575464161 1.4671972081 
1.1296873865 1.24411054 1.3575464161 1.4671972081 1.0172219679 1.1296873865 1.24411054 1.3575464161 1.4671972081 
0.90937090954 1.0172219679 1.1296873865 1.24411054 1.3575464161 1.4671972081 0.80816628637 0.90937090954 1.0172219679 
1.1296873865 1.24411054 1.3575464161 1.4671972081 0.71487100155 0.80816628637 0.90937090954 1.0172219679 1.1296873865 
1.24411054 1.3575464161 1.4671972081 0.60381225391 0.57404952988 0.69302191562 0.54002084522 0.66790778838 0.79216440667 
0.50083690068 0.63877777351 0.77356233629 0.90072551443 0.45538277901 0.60464862014 0.75168694275 0.89058134991 1.0172219679 
0.40226393329 0.56421707518 0.72561863695 0.87851444325 1.0172219679 1.139116835 0.33975332011 0.51573716537 0.69407236469 
0.86392567495 1.0172219679 1.1502619915 1.2630228569 0.26576171152 0.45685295248 0.6552068806 0.84594095064 1.0172219679 
1.1636342747 1.2852923014 1.3852070904 0.22715816343 0.3129712797 0.49462574053 0.49462574053 0.68021497688 0.77059342779 
1.0172219679 1.0172219679 1.0172219679 1.0172219679 2.1243706857 1.5707963268 1.3676273807 1.271087727 1.2156949949 
2.6469669131 2.1243706857 1.7739652728 1.5707963268 1.447813335 1.3676273807 2.8286213739 2.4613776767 2.1243706857 
1.8705049266 1.6937793186 1.5707963268 1.4827341049 2.9144344902 2.6469669131 2.3709992258 2.1243706857 1.9258976586 
1.7739652728 1.6588585487 1.5707963268 1.7563855631 1.8563003522 1.8785697967 1.9779583789 1.9913306621 2.0024758186 
2.1243706857 2.1243706857 2.1243706857 2.1243706857 2.295651703 2.2776669786 2.2630782103 2.2510113037 2.2408671392 
2.486385773 2.4475202889 2.4159740166 2.3899057108 2.3680303173 2.3494282469 2.6847397011 2.6258554882 2.5773755784 
2.5369440334 2.5028148801 2.4736848652 2.448570738 2.8758309421 2.8018393335 2.7393287203 2.6862098746 2.6407557529 
2.6015718084 2.5675431237 2.5377803997 5.8604937156 5.901393709 5.9723133995 5.9473927383 6.0216547488 6.0927478736 
5.9992719463 6.0767621038 6.1501452836 6.2190157008 6.0578962336 6.1383094565 6.2134963469 0 0.064169606361 
6.1241815303 6.206940195 6.2831853072 0.069688960264 0.13304002361 0.19043743361 6.1990255847 0 0.07624511221 
0.14487585072 0.20642320337 0.26153055843 0.3108719077 0 0.084159722458 0.15900377685 0.22528907359 0.28391336087 
0.3357925689 0.38179159818 0.42269159155 5.8604937156 5.9723133995 5.901393709 6.0927478736 6.0216547488 5.9473927383 
6.2190157008 6.1501452836 6.0767621038 5.9992719463 0.064169606361 0 6.2134963469 6.1383094565 6.0578962336 
0.19043743361 0.13304002361 0.069688960264 6.2831853072 6.206940195 6.1241815303 0.3108719077 0.26153055843 0.20642320337 
0.14487585072 0.07624511221 6.2831853072 6.1990255847 0.42269159155 0.38179159818 0.3357925689 0.28391336087 0.22528907359 
0.15900377685 0.084159722458 0 5.6793730533 5.7091357773 5.5901633916 5.743164462 5.6152775188 5.4910209005 
5.7823484065 5.6444075337 5.5096229709 5.3824597928 5.8278025282 5.678536687 5.5314983644 5.3926039573 5.2659633393 
5.8809213739 5.718968232 5.5575666702 5.4046708639 5.2659633393 5.1440684722 5.9434319871 5.7674481418 5.5891129425 
5.4192596322 5.2659633393 5.1329233157 5.0201624502 6.0174235957 5.8263323547 5.6279784266 5.4372443565 5.2659633393 
5.1195510325 4.9978930058 4.8979782167 1.3852070904 1.2852923014 1.2630228569 1.1636342747 1.1502619915 1.139116835 
1.0172219679 1.0172219679 1.0172219679 1.0172219679 0.84594095064 0.86392567495 0.87851444325 0.89058134991 0.90072551443 
0.6552068806 0.69407236469 0.72561863695 0.75168694275 0.77356233629 0.79216440667 0.45685295248 0.51573716537 0.56421707518 
0.60464862014 0.63877777351 0.66790778838 0.69302191562 0.26576171152 0.33975332011 0.40226393329 0.45538277901 0.50083690068 
0.54002084522 0.57404952988 0.60381225391 
_paraPhiHalf 1 1002 double
0 3.1415926536 0 3.1415926536 1.5707963268 1.5707963268 1.5707963268 1.5707963268 2.5880182947 
0.5535743589 2.5880182947 0.5535743589 0 0 0 0 3.1415926536 3.1415926536 
3.1415926536 3.1415926536 3.1415926536 0.17788134 0.38438696014 0.60631181711 0.82323535693 1.0172219679 1.1799687454 
1.3118704726 1.4175000338 1.5022335207 0.17788134 0.38438696014 0.60631181711 0.82323535693 1.0172219679 1.1799687454 
1.3118704726 1.4175000338 1.5022335207 0.093902416448 0.17615329733 0.2478725152 0.31035131605 0.36486382811 0.41257334776 
0.45449736604 0.4915044461 0.52432611754 0.093902416448 0.17615329733 0.2478725152 0.31035131605 0.36486382811 0.41257334776 
0.45449736604 0.4915044461 0.52432611754 2.9637113136 2.7572056934 2.5352808365 2.3183572967 2.1243706857 1.9616239082 
1.829722181 1.7240926197 1.6393591329 2.9637113136 2.7572056934 2.5352808365 2.3183572967 2.1243706857 1.9616239082 
1.829722181 1.7240926197 1.6393591329 3.0476902371 2.9654393563 2.8937201384 2.8312413375 2.7767288255 2.7290193058 
2.6870952876 2.6500882075 2.617266536 3.0476902371 2.9654393563 2.8937201384 2.8312413375 2.7767288255 2.7290193058 
2.6870952876 2.6500882075 2.617266536 0 0 0 0 3.1415926536 3.1415926536 
3.1415926536 3.1415926536 3.1415926536 0.17788134 0.38438696014 0.60631181711 0.82323535693 1.0172219679 1.1799687454 
1.3118704726 1.4175000338 1.5022335207 0.17788134 0.38438696014 0.60631181711 0.82323535693 1.0172219679 1.1799687454 
1.3118704726 1.4175000338 1.5022335207 0.093902416448 0.17615329733 0.2478725152 0.31035131605 0.36486382811 0.41257334776 
0.45449736604 0.4915044461 0.52432611754 0.093902416448 0.17615329733 0.2478725152 0.31035131605 0.36486382811 0.41257334776 
0.45449736604 0.4915044461 0.52432611754 2.9637113136 2.7572056934 2.5352808365 2.3183572967 2.1243706857 1.9616239082 
1.829722181 1.7240926197 1.6393591329 2.9637113136 2.7572056934 2.5352808365 2.3183572967 2.1243706857 1.9616239082 
1.829722181 1.7240926197 1.6393591329 3.0476902371 2.9654393563 2.8937201384 2.8312413375 2.7767288255 2.7290193058 
2.6870952876 2.6500882075 2.617266536 3.0476902371 2.9654393563 2.8937201384 2.8312413375 2.7767288255 2.7290193058 
2.6870952876 2.6500882075 2.617266536 1.5707963268 1.5707963268 1.5707963268 1.5707963268 1.5707963268 1.5707963268 
1.5707963268 1.5707963268 1.5707963268 1.6743954455 1.7840462375 1.8974821136 2.0119052671 2.1243706857 2.232221744 
2.3334263672 2.426721652 2.5115728246 1.4671972081 1.3575464161 1.24411054 1.1296873865 1.0172219679 0.90937090954 
0.80816628637 0.71487100155 0.63001982895 1.6743954455 1.7840462375 1.8974821136 2.0119052671 2.1243706857 2.232221744 
2.3334263672 2.426721652 2.5115728246 1.4671972081 1.3575464161 1.24411054 1.1296873865 1.0172219679 0.90937090954 
0.80816628637 0.71487100155 0.63001982895 1.5707963268 1.5707963268 1.5707963268 1.5707963268 1.5707963268 1.5707963268 
1.5707963268 1.5707963268 1.5707963268 1.6743954455 1.7840462375 1.8974821136 2.0119052671 2.1243706857 2.232221744 
2.3334263672 2.426721652 2.5115728246 1.4671972081 1.3575464161 1.24411054 1.1296873865 1.0172219679 0.90937090954 
0.80816628637 0.71487100155 0.63001982895 1.6743954455 1.7840462375 1.8974821136 2.0119052671 2.1243706857 2.232221744 
2.3334263672 2.426721652 2.5115728246 1.4671972081 1.3575464161 1.24411054 1.1296873865 1.0172219679 0.90937090954 
0.80816628637 0.71487100155 0.63001982895 2.6824132222 2.7864913217 2.8992382033 3.0186096618 3.1415926536 3.0186096618 
2.8992382033 2.7864913217 2.6824132222 0.45917943135 0.35510133185 0.2423544503 0.12298299178 0 0.12298299178 
0.2423544503 0.35510133185 0.45917943135 0.22715816343 0.49462574053 0.3129712797 0.77059342779 0.68021497688 0.49462574053 
1.0172219679 1.0172219679 1.0172219679 1.0172219679 1.2156949949 1.271087727 1.3676273807 1.5707963268 2.1243706857 
1.3676273807 1.447813335 1.5707963268 1.7739652728 2.1243706857 2.6469669131 1.4827341049 1.5707963268 1.6937793186 
1.8705049266 2.1243706857 2.4613776767 2.8286213739 1.5707963268 1.6588585487 1.7739652728 1.9258976586 2.1243706857 
2.3709992258 2.6469669131 2.9144344902 0.26576171152 0.33975332011 0.45685295248 0.40226393329 0.51573716537 0.6552068806 
0.45538277901 0.56421707518 0.69407236469 0.84594095064 0.50083690068 0.60464862014 0.72561863695 0.86392567495 1.0172219679 
0.54002084522 0.63877777351 0.75168694275 0.87851444325 1.0172219679 1.1636342747 0.57404952988 0.66790778838 0.77356233629 
0.89058134991 1.0172219679 1.1502619915 1.2852923014 0.60381225391 0.69302191562 0.79216440667 0.90072551443 1.0172219679 
1.139116835 1.2630228569 1.3852070904 0.71487100155 0.80816628637 0.80816628637 0.90937090954 0.90937090954 0.90937090954 
1.0172219679 1.0172219679 1.0172219679 1.0172219679 1.1296873865 1.1296873865 1.1296873865 1.1296873865 1.1296873865 
1.24411054 1.24411054 1.24411054 1.24411054 1.24411054 1.24411054 1.3575464161 1.3575464161 1.3575464161 
1.3575464161 1.3575464161 1.3575464161 1.3575464161 1.4671972081 1.4671972081 1.4671972081 1.4671972081 1.4671972081 
1.4671972081 1.4671972081 1.4671972081 1.6743954455 1.6743954455 1.7840462375 1.6743954455 1.7840462375 1.8974821136 
1.6743954455 1.7840462375 1.8974821136 2.0119052671 1.6743954455 1.7840462375 1.8974821136 2.0119052671 2.1243706857 
1.6743954455 1.7840462375 1.8974821136 2.0119052671 2.1243706857 2.232221744 1.6743954455 1.7840462375 1.8974821136 
2.0119052671 2.1243706857 2.232221744 2.3334263672 1.6743954455 1.7840462375 1.8974821136 2.0119052671 2.1243706857 
2.232221744 2.3334263672 2.426721652 1.7563855631 1.8785697967 1.8563003522 2.0024758186 1.9913306621 1.9779583789 
2.1243706857 2.1243706857 2.1243706857 2.1243706857 2.2408671392 2.2510113037 2.2630782103 2.2776669786 2.295651703 
2.3494282469 2.3680303173 2.3899057108 2.4159740166 2.4475202889 2.486385773 2.448570738 2.4736848652 2.5028148801 
2.5369440334 2.5773755784 2.6258554882 2.6847397011 2.5377803997 2.5675431237 2.6015718084 2.6407557529 2.6862098746 
2.7393287203 2.8018393335 2.8758309421 2.718901062 2.8307207459 2.7598010554 2.95115522 2.8800620952 2.8058000847 
3.0774230472 3.00855263 2.9351694502 2.8576792927 3.0774230472 3.1415926536 3.0719036933 2.9967168029 2.91630358 
2.95115522 3.00855263 3.0719036933 3.1415926536 3.0653475414 2.9825888767 2.8307207459 2.8800620952 2.9351694502 
2.9967168029 3.0653475414 3.1415926536 3.0574329311 2.718901062 2.7598010554 2.8058000847 2.8576792927 2.91630358 
2.9825888767 3.0574329311 3.1415926536 2.718901062 2.7598010554 2.8307207459 2.8058000847 2.8800620952 2.95115522 
2.8576792927 2.9351694502 3.00855263 3.0774230472 2.91630358 2.9967168029 3.0719036933 3.1415926536 3.0774230472 
2.9825888767 3.0653475414 3.1415926536 3.0719036933 3.00855263 2.95115522 3.0574329311 3.1415926536 3.0653475414 