# vtk DataFile Version 5.1
vtk output
ASCII
DATASET POLYDATA
POINTS 1002 float
-4.57201 0.0562817 -3.32523 5.33195 0.271839 -4.96707 -5.25664 0.187342 2.89364 
5.29714 -0.0854732 5.07752 -0.750493 6.64703 -3.5802 -0.329309 5.18058 1.86238 
-0.215443 -5.65146 -2.34921 -0.217303 -5.09345 2.34314 10.2044 3.06881 0.977162 
-8.78838 4.29936 -0.14027 8.40955 -3.98017 0.0118494 -8.69254 -4.95514 0.687344 
-3.88837 0.197014 -3.60561 -3.16125 0.317691 -3.97166 -2.37433 0.407017 -4.40489 
-1.41273 0.415799 -4.66262 -0.217026 0.319672 -4.61606 1.05031 0.217596 -4.56884 
2.18556 0.227856 -4.7903 3.20594 0.313052 -5.07569 4.24646 0.345405 -5.13282 
-4.25658 0.783703 -3.40298 -3.90514 1.57722 -3.48492 -3.53751 2.40594 -3.6592 
-3.19466 3.27318 -3.94114 -2.90543 4.15887 -4.169 -2.61506 4.96351 -4.17822 
-2.2293 5.60527 -4.03733 -1.73884 6.09308 -3.9101 -1.22059 6.44583 -3.79686 
-4.45184 -0.514906 -3.40132 -4.22382 -1.10134 -3.39443 -3.82862 -1.81992 -3.28733 
-3.42846 -2.69164 -3.29093 -3.21092 -3.53456 -3.5101 -2.9827 -4.14132 -3.6243 
-2.39498 -4.51864 -3.3385 -1.51554 -4.84046 -2.8486 -0.721105 -5.22746 -2.49717 
-5.07846 0.389332 -3.1284 -5.64135 0.851959 -2.95137 -6.14862 1.36379 -2.69235 
-6.49641 1.8108 -2.22162 -6.79454 2.21992 -1.63836 -7.27001 2.69963 -1.26031 
-7.90509 3.21978 -1.16814 -8.44001 3.66601 -1.06231 -8.71757 4.01487 -0.696629 
-5.1641 -0.516323 -3.03803 -5.78512 -1.17467 -2.68107 -6.45906 -1.82078 -2.40771 
-7.13231 -2.36794 -2.25765 -7.6487 -2.86005 -2.02924 -7.95003 -3.43189 -1.56424 
-8.17427 -4.09006 -0.973135 -8.42793 -4.64489 -0.40558 -8.63947 -4.92685 0.137497 
4.96551 0.664382 -4.85984 4.6034 1.17938 -4.77837 4.191 1.90935 -4.79891 
3.61451 2.69026 -4.86688 2.81338 3.31853 -4.84726 1.87756 3.90395 -4.68939 
0.988903 4.64587 -4.44661 0.268921 5.45608 -4.17253 -0.286802 6.13378 -3.88393 
4.97863 -0.0965649 -5.14483 4.52579 -0.627293 -5.12893 4.00082 -1.35497 -4.86992 
3.39555 -2.21931 -4.51971 2.67488 -3.12747 -4.24892 1.92412 -3.95828 -4.033 
1.31262 -4.55646 -3.73401 0.84726 -4.90089 -3.29567 0.370147 -5.19199 -2.79053 
6.2024 0.406662 -4.6707 7.04844 0.603696 -4.37372 7.78006 0.885053 -4.027 
8.3668 1.20477 -3.48005 8.89111 1.53474 -2.75806 9.43964 1.89487 -2.07704 
9.94038 2.25164 -1.46808 10.2419 2.54127 -0.750419 10.3057 2.78847 0.117667 
6.31301 -0.138489 -4.8416 7.33174 -0.754414 -4.66564 8.09511 -1.44288 -4.39225 
8.44921 -1.98375 -3.86667 8.58533 -2.39738 -3.11228 8.7664 -2.94243 -2.39715 
8.96231 -3.63097 -1.81389 8.97842 -4.12016 -1.20977 8.76003 -4.19012 -0.557032 
-4.39682 0.225989 2.54938 -3.41632 0.190172 2.55539 -2.33996 0.0893041 3.1003 
-1.16956 0.0027943 3.79572 0.154362 -0.0265009 4.15137 1.59521 -0.0554667 4.34475 
2.91483 -0.12236 4.77225 3.91443 -0.174233 5.24721 4.64988 -0.159166 5.35774 
-5.00848 0.741778 2.45781 -4.71964 1.27154 2.1398 -4.3064 1.75635 2.21992 
-3.74194 2.25297 2.57805 -3.11928 2.84206 2.75862 -2.52183 3.50605 2.55511 
-1.93907 4.11532 2.20689 -1.36124 4.56698 1.9771 -0.818624 4.88836 1.89145 
-4.99357 -0.386714 2.99537 -4.65905 -1.06158 2.94633 -4.15494 -1.7587 2.77333 
-3.47649 -2.42666 2.65936 -2.79855 -3.07405 2.68273 -2.28323 -3.67174 2.68602 
-1.86273 -4.14821 2.57027 -1.37353 -4.5047 2.44625 -0.791616 -4.80726 2.39445 
-5.9509 0.446796 3.03179 -6.78474 0.701721 3.01396 -7.79783 1.05824 2.8147 
-8.86399 1.63038 2.70544 -9.68951 2.38997 2.79544 -10.0504 3.12439 2.69801 
-9.97721 3.63331 2.10725 -9.65251 3.91809 1.24802 -9.2312 4.11002 0.465676 
-5.93066 -0.204207 3.27987 -6.60624 -0.593044 3.34327 -7.17797 -1.01007 3.09288 
-7.61717 -1.55486 2.86015 -7.99295 -2.19659 2.8637 -8.32958 -2.76406 2.87311 
-8.57632 -3.24113 2.5798 -8.71285 -3.78038 2.00108 -8.75199 -4.40264 1.32983 
5.08522 0.467035 5.17206 4.78818 0.999265 5.20537 4.3866 1.54967 5.08166 
3.77056 2.2476 4.71775 2.90442 3.10549 4.23365 2.05961 3.87936 3.84286 
1.5149 4.33942 3.49952 1.1169 4.56161 3.00168 0.524171 4.7928 2.37982 
5.04367 -0.715944 5.15194 4.73417 -1.37354 5.09253 4.36394 -2.02648 4.89371 
3.89743 -2.6564 4.55636 3.25627 -3.24326 4.10145 2.44436 -3.73233 3.63282 
1.60106 -4.07858 3.25948 0.860455 -4.34209 2.96158 0.259693 -4.65633 2.65862 
5.91646 0.3969 4.65558 6.66366 0.965546 4.1214 7.44499 1.55349 3.69211 
8.22707 2.09973 3.55307 9.09388 2.62138 3.623 10.0061 3.10474 3.58386 
10.6761 3.40092 3.21236 10.8717 3.41004 2.55079 10.6471 3.23971 1.76218 
5.83063 -0.389984 4.73271 6.44933 -0.726678 4.43866 7.11073 -1.09721 4.26622 
7.68207 -1.51706 4.0278 8.04867 -1.93 3.45012 8.20746 -2.23846 2.56967 
8.25012 -2.49618 1.71392 8.28419 -2.87803 1.07149 8.35185 -3.42282 0.54958 
-0.769354 7.00759 -3.11593 -0.802726 7.36485 -2.41926 -0.832376 7.69353 -1.51253 
-0.888888 7.94995 -0.607308 -1.03798 8.04348 0.0824651 -1.23016 7.83175 0.578244 
-1.27152 7.26036 1.00279 -1.05075 6.48594 1.35783 -0.674465 5.74949 1.6205 
-0.0412441 6.36931 -3.34971 0.672824 5.88373 -2.87923 1.52255 5.32096 -2.31945 
2.74229 4.85025 -1.846 4.29834 4.51565 -1.44302 5.78857 4.21155 -0.980914 
6.9734 3.84799 -0.450368 8.03557 3.47599 0.0659174 9.14958 3.20757 0.537214 
-1.51591 6.98946 -3.37731 -2.38015 7.26856 -3.05316 -3.27448 7.47651 -2.6946 
-4.13268 7.47836 -2.38206 -4.94065 7.1486 -2.08149 -5.70443 6.60508 -1.67912 
-6.44581 6.05208 -1.17568 -7.21613 5.50436 -0.720937 -8.02283 4.90306 -0.402061 
0.766152 5.27366 2.11061 1.93808 5.48899 2.38594 3.10223 5.64921 2.63469 
4.20377 5.57572 2.72294 5.25196 5.30004 2.53444 6.27846 4.95156 2.19519 
7.30549 4.53321 1.94208 8.34341 4.01874 1.76081 9.34704 3.49619 1.45705 
-1.60925 5.59592 1.58603 -2.82766 6.21437 1.67313 -3.71466 6.74731 2.05708 
-4.32332 6.8325 2.23016 -4.99843 6.45351 1.82427 -5.88472 5.98101 1.1866 
-6.79937 5.6556 0.806131 -7.59464 5.34733 0.60173 -8.26378 4.88594 0.282912 
-0.459836 -6.32419 -2.06272 -0.778231 -7.00353 -1.74223 -0.971527 -7.47453 -1.32319 
-0.904795 -7.64445 -0.751347 -0.650561 -7.58269 -0.0689813 -0.392739 -7.33325 0.593613 
-0.23 -6.87014 1.15968 -0.159652 -6.25185 1.64171 -0.162414 -5.62568 2.04433 
0.507837 -5.7404 -2.5486 1.21516 -5.8076 -2.68572 2.04954 -5.67368 -2.46924 
3.04819 -5.2988 -1.94944 4.0929 -4.90752 -1.55683 5.13848 -4.74779 -1.46133 
6.22135 -4.77658 -1.34327 7.22739 -4.73906 -0.967551 7.96702 -4.46585 -0.453969 
-1.18294 -6.16218 -2.13675 -2.26513 -7.04031 -2.15148 -3.20286 -7.96051 -2.20757 
-3.84358 -8.33144 -2.00304 -4.45401 -7.90329 -1.51806 -5.44284 -7.10519 -1.02177 
-6.72617 -6.47728 -0.638462 -7.80352 -6.05939 -0.251519 -8.40695 -5.59077 0.212742 
0.640709 -5.10916 2.42128 1.64142 -5.24471 2.42853 2.78976 -5.49894 2.35124 
3.9642 -5.78517 2.16254 4.94425 -5.90206 1.79339 5.66381 -5.6278 1.26865 
6.30308 -5.01354 0.774336 7.01753 -4.41651 0.445726 7.76032 -4.09549 0.229003 
-0.979368 -5.48737 2.09929 -1.78988 -5.88518 1.84775 -2.67509 -6.06023 1.54794 
-3.58816 -5.99869 1.26075 -4.51938 -5.91291 1.15647 -5.57501 -5.8919 1.25807 
-6.74034 -5.81121 1.34423 -7.75329 -5.59988 1.23591 -8.39366 -5.3039 0.974511 
11.1451 2.76943 0.890365 11.6683 2.33971 0.811806 11.7049 1.60545 0.811586 
11.5192 0.588679 0.859044 11.2712 -0.430173 0.804145 10.8083 -1.27575 0.579687 
10.1232 -2.05382 0.324751 9.46655 -2.83185 0.176465 8.93461 -3.50018 0.10154 
-9.44264 3.5456 -0.150335 -9.85705 2.80196 0.0733805 -9.96304 2.03914 0.516768 
-10.0068 1.07848 0.891115 -10.236 -0.116392 0.932465 -10.3919 -1.31535 0.779046 
-10.0829 -2.35848 0.724665 -9.47118 -3.30646 0.777471 -8.97989 -4.19733 0.776861 
-3.49247 0.894202 -3.63269 -3.07777 1.67694 -3.73382 -2.7591 1.04561 -4.09987 
-2.70035 2.54779 -4.05505 -2.36097 1.89929 -4.43229 -2.00974 1.22751 -4.74344 
-2.39344 3.48003 -4.48929 -1.98223 2.8316 -4.95919 -1.61286 2.17592 -5.30771 
-1.01605 1.30188 -5.11782 -2.12083 4.36445 -4.71732 -1.60961 3.70498 -5.32676 
-1.13214 3.06345 -5.76771 -0.515067 2.24367 -5.63116 0.30286 1.17252 -5.02382 
-1.77536 5.074 -4.62741 -1.20493 4.38654 -5.26806 -0.58357 3.69055 -5.74312 
0.111155 2.96049 -5.7465 0.920756 1.99452 -5.28989 1.67883 0.956927 -4.8528 
-1.30038 5.58376 -4.40453 -0.725609 4.86899 -4.93693 -0.0191065 4.07624 -5.3412 
0.767766 3.36044 -5.42546 1.58751 2.57486 -5.18349 2.331 1.63171 -4.90805 
2.86611 0.812923 -4.88694 -0.767405 5.93238 -4.17537 -0.202796 5.21802 -4.56629 
0.523115 4.37552 -4.88758 1.37266 3.62823 -5.03366 2.2326 2.96738 -4.97266 
2.97622 2.18497 -4.82939 3.52857 1.35629 -4.80293 3.91899 0.740593 -4.94868 
-4.83969 1.28036 -3.33866 -5.46257 1.84838 -3.28144 -4.54206 2.18857 -3.5518 
-5.90164 2.30967 -2.90993 -5.14381 2.768 -3.50122 -4.16312 3.06142 -3.74388 
-6.11714 2.63689 -2.16563 -5.48105 3.16063 -2.92841 -4.68762 3.62705 -3.55959 
-3.75927 3.92918 -3.86602 -6.41181 3.05507 -1.53838 -5.69661 3.53865 -2.10613 
-5.00826 4.09457 -2.89965 -4.20925 4.51774 -3.5027 -3.38076 4.77774 -3.83231 
-6.97508 3.66013 -1.37702 -6.12235 4.15071 -1.70549 -5.36384 4.70351 -2.29844 
-4.57411 5.15142 -2.94112 -3.75634 5.38419 -3.36283 -2.98359 5.51881 -3.6655 
-7.56909 4.24712 -1.33851 -6.6926 4.83757 -1.65298 -5.8714 5.4234 -2.09305 
-5.02136 5.89929 -2.57694 -4.13575 6.10964 -2.94042 -3.30335 6.12649 -3.20615 
-2.52288 6.12955 -3.5283 -7.91766 4.65184 -0.997133 -7.0845 5.2958 -1.35911 
-6.28714 5.90569 -1.82323 -5.4667 6.45806 -2.27932 -4.58198 6.81126 -2.60281 
-3.69702 6.86467 -2.83724 -2.84952 6.75686 -3.12064 -2.02052 6.6319 -3.47742 
-7.41759 5.47171 0.0438574 -6.69538 5.89628 0.378884 -6.5704 5.98424 -0.297757 
-5.86972 6.31557 0.650077 -5.81235 6.39646 0.0658679 -5.79028 6.48031 -0.772688 
-4.99648 6.91431 1.13126 -5.00299 7.02147 0.422718 -5.06132 7.00343 -0.337379 
-5.09027 7.11331 -1.25671 -4.27433 7.49459 1.73158 -4.25626 7.80968 0.917651 
-4.34205 7.80423 0.0904617 -4.45043 7.78499 -0.774317 -4.39799 7.76335 -1.67997 
-3.75054 7.57688 1.95436 -3.68391 8.20442 1.35602 -3.65847 8.46794 0.51875 
-3.73103 8.49035 -0.341515 -3.75369 8.39389 -1.25488 -3.57972 8.06526 -2.10586 
-3.09203 7.05532 1.72426 -3.13739 7.8773 1.43805 -3.00416 8.46423 0.813028 
[...]
POINT_DATA 1002
FIELD FieldData 4
_paraPhi 1 1002 double
6.2831853072 3.1415926536 6.2831853072 3.1415926536 4.7123889804 4.7123889804 1.5707963268 1.5707963268 3.6951670125 
5.7296109483 2.5880182947 0.5535743589 6.2831853072 6.2831853072 6.2831853072 6.2831853072 3.1415926536 3.1415926536 
3.1415926536 3.1415926536 3.1415926536 6.1053039672 5.898798347 5.6768734901 5.4599499503 5.2659633393 5.1032165617 
4.9713148346 4.8656852733 4.7809517865 0.17788134 0.38438696014 0.60631181711 0.82323535693 1.0172219679 1.1799687454 
1.3118704726 1.4175000338 1.5022335207 6.1892828907 6.1070320098 6.035312792 5.9728339911 5.9183214791 5.8706119594 
5.8286879411 5.7916808611 5.7588591896 0.093902416448 0.17615329733 0.2478725152 0.31035131605 0.36486382811 0.41257334776 
0.45449736604 0.4915044461 0.52432611754 3.3194739936 3.5259796137 3.7479044707 3.9648280105 4.1588146215 4.321561399 
4.4534631262 4.5590926874 4.6438261743 2.9637113136 2.7572056934 2.5352808365 2.3183572967 2.1243706857 1.9616239082 
1.829722181 1.7240926197 1.6393591329 3.23549507 3.3177459509 3.3894651688 3.4519439696 3.5064564817 3.5541660013 
3.5960900196 3.6330970997 3.6659187711 3.0476902371 2.9654393563 2.8937201384 2.8312413375 2.7767288255 2.7290193058 
2.6870952876 2.6500882075 2.617266536 6.2831853072 6.2831853072 6.2831853072 6.2831853072 3.1415926536 3.1415926536 
3.1415926536 3.1415926536 3.1415926536 6.1053039672 5.898798347 5.6768734901 5.4599499503 5.2659633393 5.1032165617 
4.9713148346 4.8656852733 4.7809517865 0.17788134 0.38438696014 0.60631181711 0.82323535693 1.0172219679 1.1799687454 
1.3118704726 1.4175000338 1.5022335207 6.1892828907 6.1070320098 6.035312792 5.9728339911 5.9183214791 5.8706119594 
5.8286879411 5.7916808611 5.7588591896 0.093902416448 0.17615329733 0.2478725152 0.31035131605 0.36486382811 0.41257334776 
0.45449736604 0.4915044461 0.52432611754 3.3194739936 3.5259796137 3.7479044707 3.9648280105 4.1588146215 4.321561399 
4.4534631262 4.5590926874 4.6438261743 2.9637113136 2.7572056934 2.5352808365 2.3183572967 2.1243706857 1.9616239082 
1.829722181 1.7240926197 1.6393591329 3.23549507 3.3177459509 3.3894651688 3.4519439696 3.5064564817 3.5541660013 
3.5960900196 3.6330970997 3.6659187711 3.0476902371 2.9654393563 2.8937201384 2.8312413375 2.7767288255 2.7290193058 
2.6870952876 2.6500882075 2.617266536 4.7123889804 4.7123889804 4.7123889804 4.7123889804 4.7123889804 4.7123889804 
4.7123889804 4.7123889804 4.7123889804 4.6087898617 4.4991390697 4.3857031936 4.2712800401 4.1588146215 4.0509635631 
3.94975894 3.8564636551 3.7716124825 4.8159880991 4.9256388911 5.0390747672 5.1534979207 5.2659633393 5.3738143976 
5.4750190208 5.5683143056 5.6531654782 4.6087898617 4.4991390697 4.3857031936 4.2712800401 4.1588146215 4.0509635631 
3.94975894 3.8564636551 3.7716124825 4.8159880991 4.9256388911 5.0390747672 5.1534979207 5.2659633393 5.3738143976 
5.4750190208 5.5683143056 5.6531654782 1.5707963268 1.5707963268 1.5707963268 1.5707963268 1.5707963268 1.5707963268 
1.5707963268 1.5707963268 1.5707963268 1.6743954455 1.7840462375 1.8974821136 2.0119052671 2.1243706857 2.232221744 
2.3334263672 2.426721652 2.5115728246 1.4671972081 1.3575464161 1.24411054 1.1296873865 1.0172219679 0.90937090954 
0.80816628637 0.71487100155 0.63001982895 1.6743954455 1.7840462375 1.8974821136 2.0119052671 2.1243706857 2.232221744 
2.3334263672 2.426721652 2.5115728246 1.4671972081 1.3575464161 1.24411054 1.1296873865 1.0172219679 0.90937090954 
0.80816628637 0.71487100155 0.63001982895 3.6007720849 3.4966939854 3.3839471039 3.2645756454 3.1415926536 3.0186096618 
2.8992382033 2.7864913217 2.6824132222 5.8240058758 5.9280839753 6.0408308569 6.1602023154 6.2831853072 0.12298299178 
0.2423544503 0.35510133185 0.45917943135 6.0560271438 5.7885595667 5.9702140275 5.5125918794 5.6029703303 5.7885595667 
5.2659633393 5.2659633393 5.2659633393 5.2659633393 5.0674903122 5.0120975802 4.9155579264 4.7123889804 4.1588146215 
4.9155579264 4.8353719722 4.7123889804 4.5092200343 4.1588146215 3.6362183941 4.8004512023 4.7123889804 4.5894059886 
4.4126803806 4.1588146215 3.8218076305 3.4545639333 4.7123889804 4.6243267584 4.5092200343 4.3572876485 4.1588146215 
3.9121860814 3.6362183941 3.368750817 6.0174235957 5.9434319871 5.8263323547 5.8809213739 5.7674481418 5.6279784266 
5.8278025282 5.718968232 5.5891129425 5.4372443565 5.7823484065 5.678536687 5.5575666702 5.4192596322 5.2659633393 
5.743164462 5.6444075337 5.5314983644 5.4046708639 5.2659633393 5.1195510325 5.7091357773 5.6152775188 5.5096229709 
5.3926039573 5.2659633393 5.1329233157 4.9978930058 5.6793730533 5.5901633916 5.4910209005 5.3824597928 5.2659633393 
5.1440684722 5.0201624502 4.8979782167 5.5683143056 5.4750190208 5.4750190208 5.3738143976 5.3738143976 5.3738143976 
5.2659633393 5.2659633393 5.2659633393 5.2659633393 5.1534979207 5.1534979207 5.1534979207 5.1534979207 5.1534979207 
5.0390747672 5.0390747672 5.0390747672 5.0390747672 5.0390747672 5.0390747672 4.9256388911 4.9256388911 4.9256388911 
4.9256388911 4.9256388911 4.9256388911 4.9256388911 4.8159880991 4.8159880991 4.8159880991 4.8159880991 4.8159880991 
4.8159880991 4.8159880991 4.8159880991 4.6087898617 4.6087898617 4.4991390697 4.6087898617 4.4991390697 4.3857031936 
4.6087898617 4.4991390697 4.3857031936 4.2712800401 4.6087898617 4.4991390697 4.3857031936 4.2712800401 4.1588146215 
4.6087898617 4.4991390697 4.3857031936 4.2712800401 4.1588146215 4.0509635631 4.6087898617 4.4991390697 4.3857031936 
4.2712800401 4.1588146215 4.0509635631 3.94975894 4.6087898617 4.4991390697 4.3857031936 4.2712800401 4.1588146215 
4.0509635631 3.94975894 3.8564636551 4.526799744 4.4046155105 4.426884955 4.2807094886 4.2918546451 4.3052269283 
4.1588146215 4.1588146215 4.1588146215 4.1588146215 4.042318168 4.0321740035 4.0201070968 4.0055183285 3.9875336042 
3.9337570603 3.9151549899 3.8932795963 3.8672112905 3.8356650183 3.7967995342 3.8346145692 3.809500442 3.7803704271 
3.7462412737 3.7058097288 3.657329819 3.5984456061 3.7454049075 3.7156421835 3.6816134988 3.6424295543 3.5969754326 
3.5438565869 3.4813459737 3.4073543651 3.5642842451 3.4524645613 3.5233842518 3.3320300872 3.403123212 3.4773852225 
3.20576226 3.2746326772 3.348015857 3.4255060145 3.0774230472 3.1415926536 3.2112816139 3.2864685043 3.3668817272 
2.95115522 3.00855263 3.0719036933 3.1415926536 3.2178377658 3.3005964304 2.8307207459 2.8800620952 2.9351694502 
2.9967168029 3.0653475414 3.1415926536 3.225752376 2.718901062 2.7598010554 2.8058000847 2.8576792927 2.91630358 
2.9825888767 3.0574329311 3.1415926536 3.5642842451 3.5233842518 3.4524645613 3.4773852225 3.403123212 3.3320300872 
3.4255060145 3.348015857 3.2746326772 3.20576226 3.3668817272 3.2864685043 3.2112816139 3.1415926536 3.0774230472 
3.3005964304 3.2178377658 3.1415926536 3.0719036933 3.00855263 2.95115522 3.225752376 3.1415926536 3.0653475414 
2.9967168029 2.9351694502 2.8800620952 2.8307207459 3.1415926536 3.0574329311 2.9825888767 2.91630358 2.8576792927 
2.8058000847 2.7598010554 2.718901062 4.526799744 4.426884955 4.4046155105 4.3052269283 4.2918546451 4.2807094886 
4.1588146215 4.1588146215 4.1588146215 4.1588146215 3.9875336042 4.0055183285 4.0201070968 4.0321740035 4.042318168 
3.7967995342 3.8356650183 3.8672112905 3.8932795963 3.9151549899 3.9337570603 3.5984456061 3.657329819 3.7058097288 
3.7462412737 3.7803704271 3.809500442 3.8346145692 3.4073543651 3.4813459737 3.5438565869 3.5969754326 3.6424295543 
3.6816134988 3.7156421835 3.7454049075 4.7123889804 4.8004512023 4.6243267584 4.9155579264 4.7123889804 4.5092200343 
5.0674903122 4.8353719722 4.5894059886 4.3572876485 5.2659633393 5.0120975802 4.7123889804 4.4126803806 4.1588146215 
5.5125918794 5.2659633393 4.9155579264 4.5092200343 4.1588146215 3.9121860814 5.7885595667 5.6029703303 5.2659633393 
4.7123889804 4.1588146215 3.8218076305 3.6362183941 6.0560271438 5.9702140275 5.7885595667 5.2659633393 4.1588146215 
3.6362183941 3.4545639333 3.368750817 0.22715816343 0.49462574053 0.3129712797 0.77059342779 0.68021497688 0.49462574053 
1.0172219679 1.0172219679 1.0172219679 1.0172219679 1.2156949949 1.271087727 1.3676273807 1.5707963268 2.1243706857 
1.3676273807 1.447813335 1.5707963268 1.7739652728 2.1243706857 2.6469669131 1.4827341049 1.5707963268 1.6937793186 
1.8705049266 2.1243706857 2.4613776767 2.8286213739 1.5707963268 1.6588585487 1.7739652728 1.9258976586 2.1243706857 
2.3709992258 2.6469669131 2.9144344902 1.7563855631 1.8785697967 1.8563003522 2.0024758186 1.9913306621 1.9779583789 
2.1243706857 2.1243706857 2.1243706857 2.1243706857 2.2408671392 2.2510113037 2.2630782103 2.2776669786 2.295651703 
2.3494282469 2.3680303173 2.3899057108 2.4159740166 2.4475202889 2.486385773 2.448570738 2.4736848652 2.5028148801 
2.5369440334 2.5773755784 2.6258554882 2.6847397011 2.5377803997 2.5675431237 2.6015718084 2.6407557529 2.6862098746 
2.7393287203 2.8018393335 2.8758309421 1.6743954455 1.6743954455 1.7840462375 1.6743954455 1.7840462375 1.8974821136 
1.6743954455 1.7840462375 1.8974821136 2.0119052671 1.6743954455 1.7840462375 1.8974821136 2.0119052671 2.1243706857 
1.6743954455 1.7840462375 1.8974821136 2.0119052671 2.1243706857 2.232221744 1.6743954455 1.7840462375 1.8974821136 
2.0119052671 2.1243706857 2.232221744 2.3334263672 1.6743954455 1.7840462375 1.8974821136 2.0119052671 2.1243706857 
2.232221744 2.3334263672 2.426721652 1.4671972081 1.3575464161 1.4671972081 1.24411054 1.3575464161 1.4671972081 
1.1296873865 1.24411054 1.3575464161 1.4671972081 1.0172219679 1.1296873865 1.24411054 1.3575464161 1.4671972081 
0.90937090954 1.0172219679 1.1296873865 1.24411054 1.3575464161 1.4671972081 0.80816628637 0.90937090954 1.0172219679 
1.1296873865 1.24411054 1.3575464161 1.4671972081 0.71487100155 0.80816628637 0.90937090954 1.0172219679 1.1296873865 
1.24411054 1.3575464161 1.4671972081 0.60381225391 0.57404952988 0.69302191562 0.54002084522 0.66790778838 0.79216440667 
0.50083690068 0.63877777351 0.77356233629 0.90072551443 0.45538277901 0.60464862014 0.75168694275 0.89058134991 1.0172219679 
0.40226393329 0.56421707518 0.72561863695 0.87851444325 1.0172219679 1.139116835 0.33975332011 0.51573716537 0.69407236469 
0.86392567495 1.0172219679 1.1502619915 1.2630228569 0.26576171152 0.45685295248 0.6552068806 0.84594095064 1.0172219679 
1.1636342747 1.2852923014 1.3852070904 0.22715816343 0.3129712797 0.49462574053 0.49462574053 0.68021497688 0.77059342779 
1.0172219679 1.0172219679 1.0172219679 1.0172219679 2.1243706857 1.5707963268 1.3676273807 1.271087727 1.2156949949 
2.6469669131 2.1243706857 1.7739652728 1.5707963268 1.447813335 1.3676273807 2.8286213739 2.4613776767 2.1243706857 
1.8705049266 1.6937793186 1.5707963268 1.4827341049 2.9144344902 2.6469669131 2.3709992258 2.1243706857 1.9258976586 
1.7739652728 1.6588585487 1.5707963268 1.7563855631 1.8563003522 1.8785697967 1.9779583789 1.9913306621 2.0024758186 
2.1243706857 2.1243706857 2.1243706857 2.1243706857 2.295651703 2.2776669786 2.2630782103 2.2510113037 2.2408671392 
2.486385773 2.4475202889 2.4159740166 2.3899057108 2.3680303173 2.3494282469 2.6847397011 2.6258554882 2.5773755784 
2.5369440334 2.5028148801 2.4736848652 2.448570738 2.8758309421 2.8018393335 2.7393287203 2.6862098746 2.6407557529 
2.6015718084 2.5675431237 2.5377803997 5.8604937156 5.901393709 5.9723133995 5.9473927383 6.0216547488 6.0927478736 
5.9992719463 6.0767621038 6.1501452836 6.2190157008 6.0578962336 6.1383094565 6.2134963469 0 0.064169606361 
6.1241815303 6.206940195 6.2831853072 0.069688960264 0.13304002361 0.19043743361 6.1990255847 0 0.07624511221 
0.14487585072 0.20642320337 0.26153055843 0.3108719077 0 0.084159722458 0.15900377685 0.22528907359 0.28391336087 
0.3357925689 0.38179159818 0.42269159155 5.8604937156 5.9723133995 5.901393709 6.0927478736 6.0216547488 5.9473927383 
6.2190157008 6.1501452836 6.0767621038 5.9992719463 0.064169606361 0 6.2134963469 6.1383094565 6.0578962336 
0.19043743361 0.13304002361 0.069688960264 6.2831853072 6.206940195 6.1241815303 0.3108719077 0.26153055843 0.20642320337 
0.14487585072 0.07624511221 6.2831853072 6.1990255847 0.42269159155 0.38179159818 0.3357925689 0.28391336087 0.22528907359 
0.15900377685 0.084159722458 0 5.6793730533 5.7091357773 5.5901633916 5.743164462 5.6152775188 5.4910209005 
5.7823484065 5.6444075337 5.5096229709 5.3824597928 5.8278025282 5.678536687 5.5314983644 5.3926039573 5.2659633393 
5.8809213739 5.718968232 5.5575666702 5.4046708639 5.2659633393 5.1440684722 5.9434319871 5.7674481418 5.5891129425 
5.4192596322 5.2659633393 5.1329233157 5.0201624502 6.0174235957 5.8263323547 5.6279784266 5.4372443565 5.2659633393 
5.1195510325 4.9978930058 4.8979782167 1.3852070904 1.2852923014 1.2630228569 1.1636342747 1.1502619915 1.139116835 
1.0172219679 1.0172219679 1.0172219679 1.0172219679 0.84594095064 0.86392567495 0.87851444325 0.89058134991 0.90072551443 
0.6552068806 0.69407236469 0.72561863695 0.75168694275 0.77356233629 0.79216440667 0.45685295248 0.51573716537 0.56421707518 
0.60464862014 0.63877777351 0.66790778838 0.69302191562 0.26576171152 0.33975332011 0.40226393329 0.45538277901 0.50083690068 
0.54002084522 0.57404952988 0.60381225391 
_paraPhiHalf 1 1002 double
0 3.1415926536 0 3.1415926536 1.5707963268 1.5707963268 1.5707963268 1.5707963268 2.5880182947 
0.5535743589 2.5880182947 0.5535743589 0 0 0 0 3.1415926536 3.1415926536 
3.1415926536 3.1415926536 3.1415926536 0.17788134 0.38438696014 0.60631181711 0.82323535693 1.0172219679 1.1799687454 
1.3118704726 1.4175000338 1.5022335207 0.17788134 0.38438696014 0.60631181711 0.82323535693 1.0172219679 1.1799687454 
1.3118704726 1.4175000338 1.5022335207 0.093902416448 0.17615329733 0.2478725152 0.31035131605 0.36486382811 0.41257334776 
0.45449736604 0.4915044461 0.52432611754 0.093902416448 0.17615329733 0.2478725152 0.31035131605 0.36486382811 0.41257334776 
0.45449736604 0.4915044461 0.52432611754 2.9637113136 2.7572056934 2.5352808365 2.3183572967 2.1243706857 1.9616239082 
1.829722181 1.7240926197 1.6393591329 2.9637113136 2.7572056934 2.5352808365 2.3183572967 2.1243706857 1.9616239082 
1.829722181 1.7240926197 1.6393591329 3.0476902371 2.9654393563 2.8937201384 2.8312413375 2.7767288255 2.7290193058 
2.6870952876 2.6500882075 2.617266536 3.0476902371 2.9654393563 2.8937201384 2.8312413375 2.7767288255 2.7290193058 
2.6870952876 2.6500882075 2.617266536 0 0 0 0 3.1415926536 3.1415926536 
3.1415926536 3.1415926536 3.1415926536 0.17788134 0.38438696014 0.60631181711 0.82323535693 1.0172219679 1.1799687454 
1.3118704726 1.4175000338 1.5022335207 0.17788134 0.38438696014 0.60631181711 0.82323535693 1.0172219679 1.1799687454 
1.3118704726 1.4175000338 1.5022335207 0.093902416448 0.17615329733 0.2478725152 0.31035131605 0.36486382811 0.41257334776 
0.45449736604 0.4915044461 0.52432611754 0.093902416448 0.17615329733 0.2478725152 0.31035131605 0.36486382811 0.41257334776 
0.45449736604 0.4915044461 0.52432611754 2.9637113136 2.7572056934 2.5352808365 2.3183572967 2.1243706857 1.9616239082 
1.829722181 1.7240926197 1.6393591329 2.9637113136 2.7572056934 2.5352808365 2.3183572967 2.1243706857 1.9616239082 
1.829722181 1.7240926197 1.6393591329 3.0476902371 2.9654393563 2.8937201384 2.8312413375 2.7767288255 2.7290193058 
2.6870952876 2.6500882075 2.617266536 3.0476902371 2.9654393563 2.8937201384 2.8312413375 2.7767288255 2.7290193058 
2.6870952876 2.6500882075 2.617266536 1.5707963268 1.5707963268 1.5707963268 1.5707963268 1.5707963268 1.5707963268 
1.5707963268 1.5707963268 1.5707963268 1.6743954455 1.7840462375 1.8974821136 2.0119052671 2.1243706857 2.232221744 
2.3334263672 2.426721652 2.5115728246 1.4671972081 1.3575464161 1.24411054 1.1296873865 1.0172219679 0.90937090954 
0.80816628637 0.71487100155 0.63001982895 1.6743954455 1.7840462375 1.8974821136 2.0119052671 2.1243706857 2.232221744 
2.3334263672 2.426721652 2.5115728246 1.4671972081 1.3575464161 1.24411054 1.1296873865 1.0172219679 0.90937090954 
0.80816628637 0.71487100155 0.63001982895 1.5707963268 1.5707963268 1.5707963268 1.5707963268 1.5707963268 1.5707963268 
1.5707963268 1.5707963268 1.5707963268 1.6743954455 1.7840462375 1.8974821136 2.0119052671 2.1243706857 2.232221744 
2.3334263672 2.426721652 2.5115728246 1.4671972081 1.3575464161 1.24411054 1.1296873865 1.0172219679 0.90937090954 
0.80816628637 0.71487100155 0.63001982895 1.6743954455 1.7840462375 1.8974821136 2.0119052671 2.1243706857 2.232221744 
2.3334263672 2.426721652 2.5115728246 1.4671972081 1.3575464161 1.24411054 1.1296873865 1.0172219679 0.90937090954 
0.80816628637 0.71487100155 0.63001982895 2.6824132222 2.7864913217 2.8992382033 3.0186096618 3.1415926536 3.0186096618 
2.8992382033 2.7864913217 2.6824132222 0.45917943135 0.35510133185 0.2423544503 0.12298299178 0 0.12298299178 
0.2423544503 0.35510133185 0.45917943135 0.22715816343 0.49462574053 0.3129712797 0.77059342779 0.68021497688 0.49462574053 
1.0172219679 1.0172219679 1.0172219679 1.0172219679 1.2156949949 1.271087727 1.3676273807 1.5707963268 2.1243706857 
1.3676273807 1.447813335 1.5707963268 1.7739652728 2.1243706857 2.6469669131 1.4827341049 1.5707963268 1.6937793186 
1.8705049266 2.1243706857 2.4613776767 2.8286213739 1.5707963268 1.6588585487 1.7739652728 1.9258976586 2.1243706857 
2.3709992258 2.6469669131 2.9144344902 0.26576171152 0.33975332011 0.45685295248 0.40226393329 0.51573716537 0.6552068806 
0.45538277901 0.56421707518 0.69407236469 0.84594095064 0.50083690068 0.60464862014 0.72561863695 0.86392567495 1.0172219679 
0.54002084522 0.63877777351 0.75168694275 0.87851444325 1.0172219679 1.1636342747 0.57404952988 0.66790778838 0.77356233629 
0.89058134991 1.0172219679 1.1502619915 1.2852923014 0.60381225391 0.69302191562 0.79216440667 0.90072551443 1.0172219679 
1.139116835 1.2630228569 1.3852070904 0.71487100155 0.80816628637 0.80816628637 0.90937090954 0.90937090954 0.90937090954 
1.0172219679 1.0172219679 1.0172219679 1.0172219679 1.1296873865 1.1296873865 1.1296873865 1.1296873865 1.1296873865 
1.24411054 1.24411054 1.24411054 1.24411054 1.24411054 1.24411054 1.3575464161 1.3575464161 1.3575464161 
1.3575464161 1.3575464161 1.3575464161 1.3575464161 1.4671972081 1.4671972081 1.4671972081 1.4671972081 1.4671972081 
1.4671972081 1.4671972081 1.4671972081 1.6743954455 1.6743954455 1.7840462375 1.6743954455 1.7840462375 1.8974821136 
1.6743954455 1.7840462375 1.8974821136 2.0119052671 1.6743954455 1.7840462375 1.8974821136 2.0119052671 2.1243706857 
1.6743954455 1.7840462375 1.8974821136 2.0119052671 2.1243706857 2.232221744 1.6743954455 1.7840462375 1.8974821136 
2.0119052671 2.1243706857 2.232221744 2.3334263672 1.6743954455 1.7840462375 1.8974821136 2.0119052671 2.1243706857 
2.232221744 2.3334263672 2.426721652 1.7563855631 1.8785697967 1.8563003522 2.0024758186 1.9913306621 1.9779583789 
2.1243706857 2.1243706857 2.1243706857 2.1243706857 2.2408671392 2.2510113037 2.2630782103 2.2776669786 2.295651703 
2.3494282469 2.3680303173 2.3899057108 2.4159740166 2.4475202889 2.486385773 2.448570738 2.4736848652 2.5028148801 
2.5369440334 2.5773755784 2.6258554882 2.6847397011 2.5377803997 2.5675431237 2.6015718084 2.6407557529 2.6862098746 
2.7393287203 2.8018393335 2.8758309421 2.718901062 2.8307207459 2.7598010554 2.95115522 2.8800620952 2.8058000847 
3.0774230472 3.00855263 2.9351694502 2.8576792927 3.0774230472 3.1415926536 3.0719036933 2.9967168029 2.91630358 
2.95115522 3.00855263 3.0719036933 3.1415926536 3.0653475414 2.9825888767 2.8307207459 2.8800620952 2.9351694502 
2.9967168029 3.0653475414 3.1415926536 3.0574329311 2.718901062 2.7598010554 2.8058000847 2.8576792927 2.91630358 
2.9825888767 3.0574329311 3.1415926536 2.718901062 2.7598010554 2.8307207459 2.8058000847 2.8800620952 2.95115522 
2.8576792927 2.9351694502 3.00855263 3.0774230472 2.91630358 2.9967168029 3.0719036933 3.1415926536 3.0774230472 
2.9825888767 3.0653475414 3.1415926536 3.0719036933 3.00855263 2.95115522 3.0574329311 3.1415926536 3.0653475414 