# vtk DataFile Version 5.1
vtk output
ASCII
DATASET POLYDATA
POINTS 100 float
5.7788 30.4998 11.7846 5.78982 30.5073 11.7858 5.82204 30.5271 11.7841 
5.87521 30.5583 11.779 5.9489 30.5993 11.7702 6.0425 30.6482 11.7573 
6.15514 30.7031 11.74 6.28574 30.7621 11.7182 6.43296 30.8238 11.6921 
6.59523 30.8871 11.6624 6.7708 30.9516 11.63 6.95782 31.0174 11.5962 
7.15441 31.0853 11.5626 7.35877 31.1562 11.531 7.56931 31.2317 11.5032 
7.78471 31.3128 11.4809 8.00405 31.401 11.4653 8.22677 31.4968 11.4575 
8.45277 31.6008 11.4579 8.68231 31.7126 11.4662 8.91594 31.8317 11.4819 
9.15445 31.9569 11.5038 9.39865 32.0869 11.5301 9.64932 32.2201 11.5592 
9.90705 32.3551 11.589 10.1721 32.4908 11.6176 10.4445 32.6261 11.6434 
10.7237 32.7606 11.6651 11.0089 32.8941 11.6815 11.299 33.0268 11.6923 
11.5926 33.1592 11.6972 11.8882 33.2918 11.6965 12.1842 33.4252 11.6907 
12.4794 33.5599 11.6802 12.7724 33.6961 11.6658 13.0622 33.8339 11.6481 
13.3482 33.9731 11.6275 13.6299 34.1133 11.6043 13.907 34.254 11.5787 
14.1795 34.3948 11.5504 14.4476 34.5353 11.5196 14.7112 34.6754 11.4859 
14.9706 34.8152 11.4495 15.2259 34.9551 11.4103 15.4771 35.0957 11.3689 
15.7243 35.2379 11.3258 15.9674 35.3823 11.282 16.2068 35.5299 11.2385 
16.4425 35.6811 11.1968 16.675 35.8365 11.1581 16.9048 35.9959 11.1239 
17.1326 36.1591 11.0952 17.3593 36.3255 11.073 17.5859 36.4944 11.0579 
17.8132 36.6651 11.0501 18.0422 36.8367 11.0493 18.2735 37.0088 11.055 
18.5075 37.1811 11.0662 18.7445 37.3537 11.0819 18.9841 37.5269 11.1007 
19.226 37.7012 11.1215 19.4693 37.8775 11.1431 19.7131 38.0563 11.1647 
19.9565 38.238 11.1855 20.1986 38.4227 11.2052 20.4388 38.6099 11.2239 
20.6766 38.7987 11.2417 20.9121 38.9877 11.2591 21.1457 39.1751 11.2766 
21.3781 39.3589 11.2948 21.6104 39.5371 11.3143 21.8439 39.7078 11.3354 
22.0799 39.8697 11.3584 22.3195 40.0221 11.3832 22.5638 40.1649 11.4095 
22.8134 40.2989 11.4371 23.0682 40.4254 11.4652 23.3279 40.5464 11.4933 
23.5915 40.6639 11.5206 23.8575 40.7801 11.5466 24.1239 40.8968 11.5708 
24.3884 41.0153 11.5929 24.6486 41.1359 11.6127 24.902 41.2584 11.6305 
25.1462 41.3815 11.6464 25.379 41.5031 11.6608 25.5985 41.6207 11.6742 
25.8032 41.7315 11.6872 25.9919 41.8328 11.7 26.1638 41.9223 11.7131 
26.3185 41.9981 11.7265 26.4558 42.0596 11.7403 26.5757 42.1067 11.754 
26.6786 42.1406 11.7674 26.7646 42.1631 11.7799 26.8341 42.1765 11.791 
26.8875 42.1833 11.7998 26.9251 42.186 11.806 26.9472 42.1866 11.809 
26.9539 42.1864 11.8087 
LINES 2 100
OFFSETS vtktypeint64
0 100 
CONNECTIVITY vtktypeint64
0 1 2 3 4 5 6 7 8 
9 10 11 12 13 14 15 16 17 
18 19 20 21 22 23 24 25 26 
27 28 29 30 31 32 33 34 35 
36 37 38 39 40 41 42 43 44 
45 46 47 48 49 50 51 52 53 
54 55 56 57 58 59 60 61 62 
63 64 65 66 67 68 69 70 71 
72 73 74 75 76 77 78 79 80 
81 82 83 84 85 86 87 88 89 
90 91 92 93 94 95 96 97 98 
99 
POINT_DATA 100
FIELD FieldData 3
_theta 1 100 double
0 0.031733259127 0.063466518254 0.095199777382 0.12693303651 0.15866629564 0.19039955476 0.22213281389 0.25386607302 
0.28559933214 0.31733259127 0.3490658504 0.38079910953 0.41253236865 0.44426562778 0.47599888691 0.50773214603 0.53946540516 
0.57119866429 0.60293192342 0.63466518254 0.66639844167 0.6981317008 0.72986495992 0.76159821905 0.79333147818 0.82506473731 
0.85679799643 0.88853125556 0.92026451469 0.95199777382 0.98373103294 1.0154642921 1.0471975512 1.0789308103 1.1106640695 
1.1423973286 1.1741305877 1.2058638468 1.237597106 1.2693303651 1.3010636242 1.3327968833 1.3645301425 1.3962634016 
1.4279966607 1.4597299198 1.491463179 1.5231964381 1.5549296972 1.5866629564 1.6183962155 1.6501294746 1.6818627337 
1.7135959929 1.745329252 1.7770625111 1.8087957702 1.8405290294 1.8722622885 1.9039955476 1.9357288068 1.9674620659 
1.999195325 2.0309285841 2.0626618433 2.0943951024 2.1261283615 2.1578616206 2.1895948798 2.2213281389 2.253061398 
2.2847946572 2.3165279163 2.3482611754 2.3799944345 2.4117276937 2.4434609528 2.4751942119 2.506927471 2.5386607302 
2.5703939893 2.6021272484 2.6338605076 2.6655937667 2.6973270258 2.7290602849 2.7607935441 2.7925268032 2.8242600623 
2.8559933214 2.8877265806 2.9194598397 2.9511930988 2.982926358 3.0146596171 3.0463928762 3.0781261353 3.1098593945 
3.1415926536 
_radius 1 100 double
1.9860273226e-15 0.31849339443 0.62857849448 0.92263098943 1.1944383563 1.4397270535 1.6564999259 1.8451565654 2.0083908038 
2.1508749094 2.2787464843 2.3989175112 2.5182433167 2.6426397285 2.776305201 2.9212311026 3.0771146052 3.2416553926 
3.4111131136 3.5809799647 3.7466559286 3.9040528648 4.0500750015 4.1829335941 4.3022662207 4.4090534209 4.5053561142 
4.5939300781 4.677797866 4.7598601904 4.8426003517 4.9278885761 5.0168582393 5.1098259967 5.206255246 5.3047872269 
5.4033641137 5.4994459432 5.5902957496 5.6732891167 5.7461989447 5.8074111789 5.856040283 5.8919323329 5.9155649479 
5.9278713492 5.9300260034 5.92323016 5.9085291937 5.886683823 5.8581073404 5.8228723772 5.7807829099 5.7314989249 
5.6746925248 5.6102077788 5.5381956512 5.4592008725 5.3741866976 5.2844918224 5.1917202994 5.097573351 5.0036444705 
4.9112134702 4.8210832306 4.7334973527 4.64815685 4.5643265232 4.4809978521 4.3970644221 4.3114714366 4.2233189837 
4.1319202647 4.0368306703 3.9378654096 3.8351138251 3.7289446919 3.6199862755 3.5090621295 3.3970702934 3.2848099876 
3.1727831193 3.0610187232 2.9489733404 2.8355407132 2.719165913 2.5980215298 2.4701871752 2.3337861927 2.1870665679 
2.0284476241 1.8565712902 1.6703884058 1.4692848157 1.2532267932 1.0228932077 0.77976209537 0.52612476354 0.26500827801 
4.4687532236e-14 
_area 1 100 double
0 0.3147150604 1.228239579 2.6536654483 4.4617945521 6.5017082456 8.6242880959 10.704777586 12.661153851 
14.466263855 16.152444719 17.806830176 19.554507374 21.529321981 23.840687051 26.549823311 29.662098441 33.132376666 
36.876674278 40.78511105 44.734771847 48.60348881 52.284898705 55.702699543 58.820541533 61.644535797 64.217381656 
66.605986205 68.887333376 71.138007095 73.429359806 75.825174599 78.376935367 81.115126325 84.039594641 87.113705332 
90.265192102 93.393646424 96.382755437 99.114952455 101.48624953 103.4191884 104.87195964 105.84180835 106.36122719 
106.48672398 106.2822718 105.80212021 105.07902317 104.12267253 102.92874449 101.49298951 99.820566423 97.923623617 
95.813668245 93.502607112 91.012304986 88.381622159 85.66280195 82.909462945 80.16662047 77.468497956 74.840858211 
72.303835699 69.884213704 67.592604362 65.395338943 63.257949017 61.140367495 59.023132928 56.893214063 54.737246782 
52.540674718 50.288323764 47.965249474 45.562249806 43.085653228 40.563588896 38.044850213 35.59086913 33.261793933 
31.098736918 29.107582544 27.253074273 25.469333474 23.682415613 21.832158736 19.883817485 17.828906737 15.680256725 
13.466838511 11.231107186 9.0278906558 6.9222395309 4.9849580092 3.2866413333 1.8918854144 0.85477201628 0.21580619785 
1.9407557161e-13 
