# vtk DataFile Version 5.1
vtk output
ASCII
DATASET POLYDATA
POINTS 100 float
27.1675 39.8299 12.3281 27.1598 39.827 12.333 27.1337 39.8143 12.3457 
27.0899 39.792 12.3655 27.0297 39.76 12.3917 26.9546 39.7182 12.4234 
26.8662 39.6666 12.4592 26.7662 39.6056 12.4979 26.656 39.5356 12.5382 
26.5368 39.4573 12.5791 26.4093 39.3716 12.6194 26.2739 39.2797 12.6585 
26.1306 39.1828 12.6958 25.9791 39.0823 12.7307 25.8189 38.9792 12.7632 
25.6498 38.8746 12.7931 25.4714 38.769 12.8205 25.2839 38.6628 12.8452 
25.0876 38.5556 12.8675 24.8832 38.447 12.8871 24.672 38.3358 12.9043 
24.4551 38.2209 12.919 24.234 38.1009 12.9313 24.0102 37.9744 12.9413 
23.785 37.8404 12.9494 23.5592 37.6981 12.9558 23.3335 37.5473 12.9612 
23.108 37.3884 12.9662 22.8826 37.2222 12.9716 22.6566 37.0503 12.9782 
22.4293 36.8746 12.9871 22.2 36.6976 12.9988 21.9678 36.5216 13.0143 
21.7321 36.3492 13.0342 21.4928 36.1827 13.0587 21.2497 36.0241 13.0883 
21.0032 35.8748 13.1229 20.7539 35.7358 13.1625 20.5025 35.6074 13.2069 
20.2496 35.4895 13.2558 19.996 35.3813 13.3088 19.7419 35.2817 13.3658 
19.4873 35.1893 13.4265 19.2319 35.1026 13.4906 18.975 35.0199 13.5581 
18.7154 34.9399 13.6287 18.4522 34.861 13.7022 18.1839 34.7823 13.7785 
17.9096 34.7028 13.857 17.6284 34.6217 13.9375 17.34 34.5387 14.0191 
17.0446 34.4533 14.1014 16.7428 34.3652 14.1833 16.4357 34.2743 14.2643 
16.1249 34.1805 14.3435 15.8122 34.0836 14.4203 15.4992 33.9836 14.4943 
15.1879 33.8806 14.5655 14.8795 33.7747 14.634 14.575 33.6661 14.7002 
14.2751 33.5554 14.7649 13.9798 33.4432 14.8289 13.6886 33.3302 14.8934 
13.401 33.2173 14.9593 13.1162 33.1056 15.0276 12.8332 32.996 15.099 
12.5514 32.8894 15.174 12.2705 32.7865 15.2528 11.9906 32.6879 15.3351 
11.7121 32.5937 15.4206 11.4361 32.5037 15.5084 11.1638 32.4175 15.5977 
10.8969 32.3342 15.6872 10.6369 32.2528 15.776 10.3855 32.1722 15.863 
10.1439 32.091 15.9473 9.91303 32.0082 16.0283 9.69331 31.9227 16.1055 
9.48466 31.8339 16.1785 9.28648 31.7414 16.2472 9.09776 31.6455 16.3115 
8.91722 31.5467 16.3714 8.7434 31.4459 16.4269 8.57489 31.3443 16.4778 
8.41044 31.2435 16.5241 8.24913 31.1452 16.5656 8.09048 31.0509 16.6019 
7.9345 30.9622 16.6329 7.78168 30.8804 16.6583 7.63304 30.8066 16.6782 
7.48999 30.7414 16.6926 7.35429 30.6849 16.7019 7.22789 30.6373 16.7067 
7.11288 30.598 16.7077 7.01129 30.5665 16.7058 6.92507 30.5418 16.7021 
6.85593 30.5233 16.6976 6.80529 30.5102 16.6932 6.77424 30.5018 16.6895 
6.76345 30.4978 16.6872 
LINES 2 100
OFFSETS vtktypeint64
0 100 
CONNECTIVITY vtktypeint64
0 1 2 3 4 5 6 7 8 
9 10 11 12 13 14 15 16 17 
18 19 20 21 22 23 24 25 26 
27 28 29 30 31 32 33 34 35 
36 37 38 39 40 41 42 43 44 
45 46 47 48 49 50 51 52 53 
54 55 56 57 58 59 60 61 62 
63 64 65 66 67 68 69 70 71 
72 73 74 75 76 77 78 79 80 
81 82 83 84 85 86 87 88 89 
90 91 92 93 94 95 96 97 98 
99 
POINT_DATA 100
FIELD FieldData 3
_theta 1 100 double
0 0.031733259127 0.063466518254 0.095199777382 0.12693303651 0.15866629564 0.19039955476 0.22213281389 0.25386607302 
0.28559933214 0.31733259127 0.3490658504 0.38079910953 0.41253236865 0.44426562778 0.47599888691 0.50773214603 0.53946540516 
0.57119866429 0.60293192342 0.63466518254 0.66639844167 0.6981317008 0.72986495992 0.76159821905 0.79333147818 0.82506473731 
0.85679799643 0.88853125556 0.92026451469 0.95199777382 0.98373103294 1.0154642921 1.0471975512 1.0789308103 1.1106640695 
1.1423973286 1.1741305877 1.2058638468 1.237597106 1.2693303651 1.3010636242 1.3327968833 1.3645301425 1.3962634016 
1.4279966607 1.4597299198 1.491463179 1.5231964381 1.5549296972 1.5866629564 1.6183962155 1.6501294746 1.6818627337 
1.7135959929 1.745329252 1.7770625111 1.8087957702 1.8405290294 1.8722622885 1.9039955476 1.9357288068 1.9674620659 
1.999195325 2.0309285841 2.0626618433 2.0943951024 2.1261283615 2.1578616206 2.1895948798 2.2213281389 2.253061398 
2.2847946572 2.3165279163 2.3482611754 2.3799944345 2.4117276937 2.4434609528 2.4751942119 2.506927471 2.5386607302 
2.5703939893 2.6021272484 2.6338605076 2.6655937667 2.6973270258 2.7290602849 2.7607935441 2.7925268032 2.8242600623 
2.8559933214 2.8877265806 2.9194598397 2.9511930988 2.982926358 3.0146596171 3.0463928762 3.0781261353 3.1098593945 
3.1415926536 
_radius 1 100 double
6.234987202e-14 0.2542751003 0.50721380876 0.7575922125 1.0045973562 1.247864316 1.4873612311 1.7231587086 1.9551619143 
2.1828963905 2.4054158828 2.6213548063 2.8291015193 3.0270382632 3.213784813 3.3883920294 3.5504514263 3.700110289 
3.8380029897 3.9651240575 4.08267536 4.1919185451 4.2940566799 4.3901589412 4.4811321802 4.5677348556 4.6506226415 
4.7304110027 4.8077384361 4.883315234 4.9579464335 5.0325232884 5.1079836173 5.1852458406 5.2651230174 5.348222149 
5.4348331197 5.5248142436 5.617488314 5.7115710845 5.8051578403 5.8957892372 5.9806048667 6.0565755818 6.12078859 
6.1707472228 6.2046427927 6.2215595441 6.2215840657 6.205805259 6.1762072349 6.1354725809 6.0867248526 6.0332450191 
5.9781960226 5.9243831867 5.874068092 5.8288429262 5.789564215 5.7563408526 5.7285710712 5.705024225 5.6839632438 
5.663300638 5.6407756428 5.6141350785 5.581298651 5.5404919995 5.4903368756 5.4298949849 5.3586678663 5.2765587406 
5.1838041719 5.0808851141 4.9684292373 4.8471186913 4.7176178542 4.5805324193 4.436404057 4.2857353367 4.1290303616 
3.9668303842 3.7997224046 3.6283033697 3.4530935886 3.2744098406 3.0922281226 2.9060801627 2.7150265544 2.5177287636 
2.3126116247 2.0980837839 1.8727751786 1.6357551111 1.3867039063 1.1260205695 0.85485727778 0.5750793951 0.28915700197 
3.3780916841e-14 
_area 1 100 double
0 0.19774953353 0.78429922623 1.7420274697 3.0488562098 4.6860096599 6.6433274182 8.9188888533 11.512310248 
14.414734299 17.600475094 21.023904016 24.622102109 28.321631983 32.047169072 35.72991872 39.314165951 42.760921863 
46.048435777 49.170124755 52.130969141 54.943483415 57.624022596 60.189672335 62.655728887 65.034092555 67.333373525 
69.561183586 71.727723523 73.848555087 75.944711088 78.040077735 80.157977965 82.31960014 84.545787036 86.861193215 
89.297210354 91.889228625 94.666105529 97.634325414 100.76310059 103.97681378 107.15792556 110.15934276 112.82280365 
114.99962305 116.57090302 117.46469765 117.66731801 117.22579353 116.23951789 114.84172154 113.17525294 111.37041659 
109.53191874 107.73638568 106.03615339 104.46373103 103.03383441 101.743142 100.56987653 99.475260664 98.407608749 
97.308559144 96.119956646 94.789074389 93.270309463 91.524726554 89.522208364 87.247374634 84.704329864 81.916079691 
78.918807991 75.7533403 72.456250718 69.052756575 65.553317111 61.955578103 58.25183893 54.439475732 50.530200214 
46.55505861 42.564083677 38.620908391 34.793325713 31.141186266 27.703604028 24.488738616 21.471635167 18.605674933 
15.845335974 13.167716689 10.582409703 8.1297358296 5.872421872 3.8850154416 2.2434816487 1.0162123314 0.2569833672 
2.4589675026e-13 
