# vtk DataFile Version 5.1
vtk output
ASCII
DATASET POLYDATA
POINTS 100 float
4.87787 28.8643 13.1271 4.89701 28.8745 13.1217 4.95393 28.9074 13.1109 
5.04679 28.9618 13.0964 5.17271 29.0355 13.0814 5.32797 29.1257 13.069 
5.50835 29.2291 13.0627 5.70946 29.3422 13.0655 5.92703 29.4614 13.0793 
6.15723 29.5835 13.105 6.39682 29.7057 13.142 6.64333 29.8256 13.1882 
6.89507 29.9415 13.2404 7.15107 30.0525 13.2946 7.41094 30.1582 13.3463 
7.67475 30.2589 13.3913 7.9428 30.3555 13.4259 8.21543 30.449 13.4474 
8.49293 30.5409 13.4547 8.77537 30.6327 13.4477 9.06257 30.7261 13.4282 
9.35413 30.8224 13.3986 9.64942 30.9231 13.3625 9.94773 31.0294 13.3237 
10.2483 31.1423 13.2856 10.5503 31.2627 13.2513 10.8532 31.3911 13.2228 
11.1565 31.5281 13.201 11.4596 31.674 13.1856 11.7623 31.8288 13.1752 
12.0641 31.9926 13.1674 12.3646 32.1649 13.1595 12.6632 32.3453 13.1487 
12.9592 32.5331 13.1322 13.2518 32.7274 13.1082 13.5401 32.927 13.0755 
13.8231 33.1306 13.0339 14.1003 33.3369 12.9842 14.3711 33.5442 12.9281 
14.6357 33.7512 12.8677 14.8945 33.9564 12.8053 15.1487 34.1585 12.7434 
15.3997 34.3566 12.6841 15.6496 34.5497 12.6287 15.9007 34.7374 12.5783 
16.1551 34.9194 12.5331 16.4151 35.0958 12.4927 16.6823 35.2669 12.4566 
16.9576 35.4333 12.424 17.2415 35.5956 12.3941 17.5332 35.7547 12.3664 
17.8316 35.9115 12.341 18.1345 36.0669 12.3181 18.4394 36.222 12.2986 
18.7435 36.3776 12.2835 19.0441 36.5346 12.2737 19.3388 36.6938 12.2702 
19.6255 36.8559 12.2735 19.9029 37.0214 12.2836 20.1705 37.1908 12.2998 
20.4283 37.3643 12.3209 20.6772 37.5418 12.3451 20.9181 37.7233 12.3703 
21.1526 37.9084 12.3942 21.382 38.0963 12.415 21.6076 38.2863 12.4311 
21.8303 38.4772 12.4417 22.0506 38.6679 12.4465 22.2688 38.8571 12.4465 
22.4848 39.0435 12.4429 22.6983 39.2258 12.4377 22.9092 39.403 12.433 
23.1173 39.5742 12.4308 23.323 39.7386 12.433 23.5269 39.8959 12.4404 
23.73 40.0456 12.4535 23.9335 40.1879 12.4718 24.1388 40.3226 12.4939 
24.3472 40.4498 12.518 24.5593 40.5696 12.5419 24.7753 40.6817 12.5637 
24.9945 40.786 12.5813 25.2152 40.882 12.5937 25.4348 40.9689 12.6005 
25.6497 41.0461 12.602 25.8559 41.1127 12.5995 26.049 41.168 12.5951 
26.2247 41.2116 12.5909 26.3796 41.2432 12.5893 26.5107 41.2631 12.5925 
26.6169 41.2719 12.6019 26.698 41.2711 12.618 26.7556 41.2622 12.6406 
26.7924 41.2474 12.6683 26.8125 41.2291 12.699 26.8202 41.2099 12.73 
26.8203 41.1922 12.7583 26.8171 41.1781 12.7813 26.814 41.1693 12.7966 
26.8133 41.1669 12.8027 
LINES 2 100
OFFSETS vtktypeint64
0 100 
CONNECTIVITY vtktypeint64
0 1 2 3 4 5 6 7 8 
9 10 11 12 13 14 15 16 17 
18 19 20 21 22 23 24 25 26 
27 28 29 30 31 32 33 34 35 
36 37 38 39 40 41 42 43 44 
45 46 47 48 49 50 51 52 53 
54 55 56 57 58 59 60 61 62 
63 64 65 66 67 68 69 70 71 
72 73 74 75 76 77 78 79 80 
81 82 83 84 85 86 87 88 89 
90 91 92 93 94 95 96 97 98 
99 
POINT_DATA 100
FIELD FieldData 3
_theta 1 100 double
0 0.031733259127 0.063466518254 0.095199777382 0.12693303651 0.15866629564 0.19039955476 0.22213281389 0.25386607302 
0.28559933214 0.31733259127 0.3490658504 0.38079910953 0.41253236865 0.44426562778 0.47599888691 0.50773214603 0.53946540516 
0.57119866429 0.60293192342 0.63466518254 0.66639844167 0.6981317008 0.72986495992 0.76159821905 0.79333147818 0.82506473731 
0.85679799643 0.88853125556 0.92026451469 0.95199777382 0.98373103294 1.0154642921 1.0471975512 1.0789308103 1.1106640695 
1.1423973286 1.1741305877 1.2058638468 1.237597106 1.2693303651 1.3010636242 1.3327968833 1.3645301425 1.3962634016 
1.4279966607 1.4597299198 1.491463179 1.5231964381 1.5549296972 1.5866629564 1.6183962155 1.6501294746 1.6818627337 
1.7135959929 1.745329252 1.7770625111 1.8087957702 1.8405290294 1.8722622885 1.9039955476 1.9357288068 1.9674620659 
1.999195325 2.0309285841 2.0626618433 2.0943951024 2.1261283615 2.1578616206 2.1895948798 2.2213281389 2.253061398 
2.2847946572 2.3165279163 2.3482611754 2.3799944345 2.4117276937 2.4434609528 2.4751942119 2.506927471 2.5386607302 
2.5703939893 2.6021272484 2.6338605076 2.6655937667 2.6973270258 2.7290602849 2.7607935441 2.7925268032 2.8242600623 
2.8559933214 2.8877265806 2.9194598397 2.9511930988 2.982926358 3.0146596171 3.0463928762 3.0781261353 3.1098593945 
3.1415926536 
_radius 1 100 double
4.5747655476e-14 0.28502639125 0.56370682703 0.83021287638 1.0798761202 1.3096298037 1.5182831063 1.7065838215 1.8770458282 
2.0335515591 2.1807814781 2.3235586273 2.4662146949 2.6120843633 2.7632139162 2.9203140565 3.0829103078 3.2496019282 
3.4183552367 3.5867949883 3.752481951 3.9131706485 4.0670373352 4.2128617116 4.3501403547 4.479108914 4.6006576249 
4.7161419422 4.8271135091 4.9350182985 5.0409199053 5.1453017414 5.2479837764 5.3481641842 5.444571388 5.5356922993 
5.6200300336 5.6963404317 5.7638027574 5.822095688 5.8713718115 5.912146571 5.9451349988 5.97107743 5.9905923427 
6.0040824394 6.0117037186 6.0133922657 6.0089339455 5.9980590377 5.9805452151 5.9563152065 5.9255179024 5.888583033 
5.8462408147 5.7995005105 5.7495862719 5.6978341528 5.6455592904 5.593906091 5.5436973916 5.4953019528 5.4485426425 
5.4026674355 5.3563988747 5.3080646928 5.2557962793 5.197767434 5.132437097 5.0587579637 4.9763180374 4.885393407 
4.7869061325 4.6822977222 4.573341369 4.4619201562 4.3497925932 4.2383560829 4.1284137497 4.0199600695 3.9120250137 
3.8026384721 3.6889726763 3.5676782343 3.4353637506 3.2891135819 3.1269212544 2.9479418207 2.7525185757 2.541996534 
2.3183818088 2.0839353972 1.8407986745 1.5907344266 1.3350328348 1.0745834765 0.81006508994 0.54217041216 0.27177688287 
1.187859168e-13 
_area 1 100 double
0 0.25378370096 0.99147903636 2.1463750182 3.6207643064 5.3037015683 7.0911366265 8.9043592242 10.702731674 
12.487722037 14.297446992 16.193765603 18.245782695 20.513671859 23.036409003 25.826273088 28.870278506 32.135857199 
35.577817914 39.145138242 42.787415298 46.460983333 50.134095769 53.789927131 57.426393926 61.053092553 64.686571667 
68.344723361 72.040644936 75.776639861 79.539184283 83.295554776 86.992961392 90.561284583 93.920131518 96.989617934 
99.70261273 102.0151527 103.91208891 105.40673951 106.5354898 107.34960342 107.90628896 108.25989299 108.45343913 
108.51165882 108.43828233 108.2197517 107.83378389 107.25821637 106.47660286 105.48006242 104.26665196 102.84004187 
101.20907614 99.38910403 97.404932854 95.294159068 93.109192449 90.916496572 88.791253262 86.804782704 85.006664035 
83.411938168 81.995200538 80.689435973 79.394519141 77.996475071 76.391448909 74.506233721 72.309932946 69.815527278 
67.073205152 64.158575434 61.158578949 58.157360911 55.224486424 52.407699582 49.731414246 47.197285242 44.776675511 
42.398798851 39.967970673 37.403695308 34.661213805 31.732202628 28.637827104 25.418724574 22.126684024 18.822643382 
15.579010479 12.479033809 9.6095421604 7.0495683679 4.859630973 3.0755124813 1.7083518509 0.75068274137 0.18619763438 
1.1368683772e-13 
