# vtk DataFile Version 5.1
vtk output
ASCII
DATASET POLYDATA
POINTS 1002 float
25.0164 38.5545 7.2486 16.7985 31.6068 8.35803 24.4204 39.2791 17.3359 
14.2414 32.6233 15.8716 25.1604 28.7676 9.74116 23.637 31.7805 16.3034 
15.2617 41.6853 5.99849 15.6166 40.7313 13.6791 13.9451 27.1766 13.7038 
28.7078 38.5747 13.815 10.1742 33.1947 12.0049 24.8974 45.2655 11.9299 
24.4814 37.7994 7.01332 23.7605 36.9475 6.93485 22.8107 36.065 6.95545 
21.7331 35.1879 6.94197 20.6776 34.3288 6.89704 19.6916 33.5346 6.98039 
18.7937 32.8821 7.25703 18.0399 32.3907 7.6336 17.411 31.993 8.01505 
25.1289 37.6707 7.42135 25.2069 36.6288 7.62912 25.2837 35.4308 7.71196 
25.3756 34.1325 7.66057 25.4895 32.8325 7.67802 25.6175 31.6166 7.90315 
25.694 30.5626 8.25911 25.6304 29.7466 8.66874 25.4239 29.1748 9.1606 
24.4871 38.9608 7.03666 23.7373 39.3937 6.99829 22.7586 39.7952 6.99084 
21.6468 40.0981 6.788 20.5865 40.319 6.40292 19.6398 40.5721 6.10988 
18.637 40.9203 6.02646 17.4553 41.2845 6.00199 16.2461 41.5515 5.9553 
25.565 38.7447 7.71072 26.1182 38.9272 8.27209 26.7222 39.0432 8.77237 
27.3714 39.0313 9.20015 27.9485 38.9564 9.75828 28.2854 38.9787 10.5839 
28.3765 39.0955 11.5451 28.4163 39.1096 12.4335 28.5452 38.9071 13.1779 
25.2192 39.4612 7.44469 25.3834 40.2694 7.8552 25.4744 40.952 8.47487 
25.5393 41.6033 9.13621 25.6851 42.3635 9.64799 25.87 43.2893 10.0227 
25.8684 44.265 10.4224 25.5839 45.0257 10.9141 25.1902 45.3554 11.4366 
17.5287 31.2655 8.39888 18.3195 30.912 8.39901 19.1027 30.4062 8.27469 
19.9145 29.7295 8.05601 20.8371 29.1444 7.93697 21.8579 28.8953 8.07993 
22.8814 28.8621 8.43014 23.8162 28.8078 8.84203 24.589 28.7314 9.26895 
16.5227 32.2863 8.12892 16.2597 33.0988 7.89331 16.0046 34.0015 7.61393 
15.7747 35.0261 7.31026 15.6521 36.3081 7.13401 15.6485 37.824 7.14477 
15.6196 39.2673 7.108 15.4735 40.3679 6.79641 15.309 41.1285 6.32568 
16.4979 30.9257 8.69135 16.0237 30.0935 8.95874 15.4167 29.096 9.04141 
14.7919 28.0404 8.98405 14.2971 27.1857 9.15842 14.0407 26.7847 9.8983 
13.9781 26.8425 11.0265 13.9535 27.0907 12.1108 13.912 27.2342 12.9771 
15.9361 31.5887 8.54327 14.9756 31.5593 8.74723 13.9519 31.4718 8.94692 
12.9333 31.3442 9.138 12.03 31.3459 9.39798 11.3466 31.6342 9.83974 
10.8954 32.1193 10.4566 10.5937 32.5744 11.0945 10.3605 32.9099 11.6137 
23.4651 39.0175 17.6385 22.5188 38.6708 17.8376 21.7135 38.1681 17.7659 
20.9941 37.4768 17.4107 20.1825 36.6573 16.9727 19.2152 35.8301 16.5903 
18.1167 35.0459 16.2269 16.8698 34.2555 15.9171 15.5206 33.4294 15.7938 
24.2681 39.0593 18.063 24.1426 38.6883 18.7845 24.076 37.9376 19.1956 
24.0561 36.8394 19.1365 24.0795 35.7338 18.7756 24.1254 34.856 18.3446 
24.1083 34.1097 17.8561 23.9814 33.3437 17.2789 23.8028 32.5503 16.7217 
23.9475 39.4267 16.9184 23.2638 39.7675 16.6148 22.3285 40.2072 16.3488 
21.3055 40.4995 15.9726 20.3692 40.5212 15.4375 19.4769 40.4045 14.848 
18.5119 40.3291 14.3361 17.4917 40.3652 13.9738 16.5063 40.5126 13.7715 
25.2678 39.4206 17.4692 26.1884 39.6137 17.6535 27.1911 39.7688 17.811 
28.1878 39.7706 17.8143 28.9754 39.5695 17.5207 29.4115 39.2277 16.8554 
29.5226 38.8957 15.9473 29.3916 38.7039 15.0688 29.0873 38.6409 14.3747 
25.0685 39.6057 16.7493 25.671 40.0811 16.2314 26.1617 40.809 15.7915 
26.4713 41.7938 15.378 26.5642 42.7999 14.9827 26.4861 43.5133 14.5831 
26.2748 43.9444 14.0584 25.9002 44.3692 13.3557 25.3933 44.8732 12.598 
14.9647 32.3846 15.8792 15.845 32.2701 15.9476 16.895 32.2621 16.0674 
18.0105 32.2373 16.2123 19.0752 32.085 16.3574 20.0998 31.8688 16.4821 
21.134 31.7392 16.5568 22.1256 31.7275 16.5533 22.9746 31.7579 16.465 
14.3048 33.4476 15.8602 14.3497 34.3836 15.938 14.3977 35.4341 16.0204 
14.489 36.6362 16.0697 14.585 37.9218 16.1308 14.6177 39.0283 16.1192 
14.6493 39.7372 15.7997 14.8258 40.1213 15.127 15.1829 40.4081 14.34 
13.488 31.6401 16.0683 12.8622 30.6548 16.3455 12.4211 29.819 16.5604 
12.0937 29.1456 16.585 11.8549 28.4197 16.3982 11.8363 27.5814 16.0566 
12.1345 26.9724 15.6022 12.6692 26.8531 15.042 13.3017 27.0321 14.3926 
13.0803 32.365 15.9778 11.8925 32.2357 16.0305 10.7135 32.2692 15.9677 
9.72782 32.4166 15.7827 9.19802 32.5897 15.4104 9.12854 32.7318 14.7369 
9.26571 32.8289 13.8479 9.47103 32.9054 13.0307 9.7781 33.0151 12.4441 
25.284 28.6551 10.5161 25.3466 28.6467 11.4292 25.2526 28.7845 12.3437 
24.9856 29.0474 13.151 24.6853 29.3524 13.8846 24.486 29.6763 14.5878 
24.3449 30.1023 15.1873 24.1544 30.6657 15.6296 23.9017 31.2662 15.9759 
24.5406 28.3559 10.0826 23.8663 27.909 10.4591 23.1685 27.4112 10.7912 
22.2565 27.0294 11.0701 20.9274 26.8794 11.3472 19.3083 26.8433 11.6764 
17.7264 26.8302 12.1093 16.3393 26.9102 12.6533 15.1029 27.0735 13.2207 
25.7183 29.2631 9.93375 26.1158 30.1123 10.273 26.4865 31.1929 10.7122 
27.019 32.204 11.141 27.6305 33.0425 11.5112 28.0029 33.9916 11.9065 
28.0563 35.287 12.4184 28.0684 36.7118 12.9928 28.288 37.8596 13.483 
23.0245 31.0423 16.0746 22.1131 30.3777 15.7283 20.94 29.7537 15.1968 
19.872 29.0509 14.7445 19.1938 28.2325 14.7565 18.5821 27.4603 15.0838 
17.5448 26.9672 15.1465 16.1684 26.8467 14.7493 14.8968 26.9861 14.1859 
24.2712 32.335 16.291 24.8836 32.9897 16.24 25.5007 33.6707 16.1237 
26.0416 34.3981 15.864 26.4729 35.2063 15.4957 26.9462 35.9779 15.1808 
27.5516 36.6058 14.9499 28.1276 37.1949 14.6651 28.5045 37.8696 14.2626 
14.8622 41.9893 6.17149 14.7037 42.2141 6.87951 14.735 42.4353 8.11028 
14.7414 42.6925 9.52017 14.6239 42.8485 10.7363 14.5605 42.7046 11.6621 
14.7229 42.2538 12.3608 15.0387 41.677 12.8813 15.3527 41.147 13.2928 
14.5535 41.415 6.37819 14.1694 40.9513 7.07257 13.9736 40.1156 7.99661 
13.6097 38.9288 8.84649 12.941 37.6801 9.41323 12.233 36.5972 9.86123 
11.6982 35.6408 10.4312 11.2322 34.7294 11.0771 10.7087 33.8974 11.6195 
15.9227 42.1747 5.87279 16.7456 42.7393 6.08701 17.6617 43.161 6.66576 
18.8321 43.1571 7.56583 20.3651 42.9127 8.67246 21.8706 43.0629 9.72862 
22.8613 43.8439 10.4929 23.4409 44.7614 10.9983 24.0571 45.2639 11.4437 
14.5109 40.713 13.9891 13.5136 40.4469 14.212 12.7943 39.7579 14.1598 
12.3267 38.7919 13.8425 11.9011 37.8477 13.4402 11.4075 36.9487 13.0597 
10.9432 35.9394 12.7002 10.5999 34.8757 12.3906 10.3561 33.945 12.1673 
16.5914 40.985 13.2247 17.5421 41.3837 12.9608 18.3984 41.93 12.8992 
19.3107 42.5141 12.9695 20.5191 42.9998 13.0296 21.9144 43.4005 12.9224 
23.0382 43.875 12.6372 23.707 44.464 12.3261 24.222 44.9883 12.0985 
12.6815 27.2202 13.682 11.2796 27.0799 13.5838 9.8739 26.8928 13.3545 
8.83061 27.0119 13.0079 8.47352 27.6886 12.6472 8.68716 28.8259 12.3821 
9.0721 30.1185 12.2404 9.42334 31.3153 12.1691 9.77856 32.3285 12.1006 
29.1527 39.2711 13.6693 29.6309 39.9611 13.4773 29.9561 40.9162 13.2621 
30.0065 42.2613 12.9983 29.8581 43.5872 12.6943 29.542 44.3561 12.4658 
28.8303 44.6295 12.3731 27.5977 44.8399 12.3031 26.1427 45.1144 12.1448 
24.6152 36.7882 7.1517 24.7346 35.6331 7.27313 23.894 35.8569 7.01097 
24.846 34.3227 7.25895 24.0223 34.6114 7.04658 22.9228 34.9136 6.95901 
24.9552 32.9289 7.18821 24.1283 33.1955 6.98205 23.0248 33.5816 6.95179 
21.8149 33.9764 6.93096 25.0784 31.6076 7.2887 24.2102 31.7798 6.94241 
23.0757 32.1433 6.90317 21.8641 32.6323 6.97724 20.7211 33.1213 6.99793 
25.1704 30.5008 7.63428 24.2707 30.6075 7.13897 23.079 30.8825 6.93718 
21.8463 31.3475 7.02027 20.7354 31.9252 7.17761 19.7311 32.4567 7.25108 
25.1161 29.6814 8.11765 24.2444 29.7721 7.60348 23.0615 29.9656 7.23549 
21.8127 30.3232 7.15895 20.7223 30.8881 7.33789 19.7884 31.5005 7.54492 
18.8995 31.9949 7.63193 24.8851 29.1281 8.66651 24.0697 29.2136 8.20619 
22.9994 29.3287 7.78611 21.8251 29.5278 7.52928 20.7479 29.9835 7.5626 
19.8466 30.6348 7.79148 19.0281 31.2164 7.98155 18.2029 31.6337 8.03359 
25.6129 37.8513 7.97578 26.0965 38.0265 8.57806 25.6293 36.7483 8.21654 
26.6701 38.1054 9.05529 26.0829 36.8519 8.81492 25.6845 35.4676 8.27993 
27.3106 38.0427 9.45121 26.6963 36.8294 9.28113 26.1738 35.4795 8.89275 
25.7846 34.132 8.26484 27.8137 37.969 10.0063 27.3777 36.6759 9.68317 
26.8578 35.3595 9.42024 26.2901 34.1255 8.96756 25.886 32.8593 8.39022 
28.02 38.0198 10.8344 27.8406 36.5627 10.2487 27.55 35.1507 9.90211 
26.9402 34.0307 9.60333 26.3103 32.9373 9.16824 25.9617 31.6899 8.6623 
28.0559 38.1006 11.7997 27.989 36.5904 11.088 27.9623 35.0337 10.5441 
27.5453 33.8958 10.2095 26.8147 32.9913 9.88397 26.2623 31.8825 9.44157 
25.9812 30.6644 8.98396 28.1392 38.046 12.7124 28.0172 36.6685 12.0733 
28.076 35.0956 11.4377 27.9034 33.8545 10.9739 27.3031 33.001 10.6317 
26.6264 32.0834 10.2445 26.2077 30.9223 9.7871 25.9004 29.8512 9.39098 
28.149 36.9937 13.8868 27.8239 36.235 14.225 27.9819 35.7658 13.4037 
27.2984 35.5976 14.482 27.668 35.022 13.7831 27.9212 34.4233 12.9091 
26.7359 34.9018 14.759 27.1445 34.366 14.1231 27.5405 33.7265 13.4081 
27.7239 33.2496 12.4893 26.2206 34.0914 15.1016 26.5446 33.6167 14.449 
26.9745 32.9954 13.843 27.2739 32.4801 13.0811 27.2683 32.2509 12.1164 
25.6745 33.2901 15.4093 25.9259 32.8147 14.7434 26.3069 32.2129 14.1679 
26.6825 31.6429 13.556 26.8347 31.3266 12.7268 26.7206 31.2384 11.7042 
25.0873 32.5414 15.6364 25.3148 32.0389 15.0229 25.6126 31.4796 14.4429 
25.964 30.9139 13.8815 26.2453 30.4911 13.2101 26.3357 30.2806 12.301 
26.2551 30.1851 11.2431 24.5115 31.8402 15.831 24.7464 31.2924 15.3404 
24.9696 30.7658 14.7947 25.2109 30.2913 14.1955 25.4927 29.8796 13.5539 
25.7418 29.5657 12.7914 25.8507 29.3704 11.8399 25.8168 29.2754 10.8206 
24.7117 28.1398 10.8956 24.7539 28.0789 11.7791 24.0707 27.5945 11.264 
24.5312 28.2488 12.6252 24.0238 27.5369 12.0917 23.286 27.1135 11.582 
24.1235 28.5497 13.4342 23.6081 27.802 12.9029 23.028 27.2111 12.3943 
22.1348 26.9045 11.876 23.8001 28.834 14.2552 23.0632 28.1696 13.7283 
22.4236 27.6459 13.1962 21.6777 27.2201 12.7175 20.5912 26.9302 12.1892 
23.6554 29.173 14.9898 22.7168 28.5012 14.5098 21.8344 28.0825 13.9301 
21.0926 27.7209 13.5003 20.1674 27.2954 13.0984 18.9504 26.945 12.5841 
[...]
POINT_DATA 1002
FIELD FieldData 4
_paraPhi 1 1002 double
6.2831853072 3.1415926536 6.2831853072 3.1415926536 4.7123889804 4.7123889804 1.5707963268 1.5707963268 3.6951670125 
5.7296109483 2.5880182947 0.5535743589 6.2831853072 6.2831853072 6.2831853072 6.2831853072 3.1415926536 3.1415926536 
3.1415926536 3.1415926536 3.1415926536 6.1053039672 5.898798347 5.6768734901 5.4599499503 5.2659633393 5.1032165617 
4.9713148346 4.8656852733 4.7809517865 0.17788134 0.38438696014 0.60631181711 0.82323535693 1.0172219679 1.1799687454 
1.3118704726 1.4175000338 1.5022335207 6.1892828907 6.1070320098 6.035312792 5.9728339911 5.9183214791 5.8706119594 
5.8286879411 5.7916808611 5.7588591896 0.093902416448 0.17615329733 0.2478725152 0.31035131605 0.36486382811 0.41257334776 
0.45449736604 0.4915044461 0.52432611754 3.3194739936 3.5259796137 3.7479044707 3.9648280105 4.1588146215 4.321561399 
4.4534631262 4.5590926874 4.6438261743 2.9637113136 2.7572056934 2.5352808365 2.3183572967 2.1243706857 1.9616239082 
1.829722181 1.7240926197 1.6393591329 3.23549507 3.3177459509 3.3894651688 3.4519439696 3.5064564817 3.5541660013 
3.5960900196 3.6330970997 3.6659187711 3.0476902371 2.9654393563 2.8937201384 2.8312413375 2.7767288255 2.7290193058 
2.6870952876 2.6500882075 2.617266536 6.2831853072 6.2831853072 6.2831853072 6.2831853072 3.1415926536 3.1415926536 
3.1415926536 3.1415926536 3.1415926536 6.1053039672 5.898798347 5.6768734901 5.4599499503 5.2659633393 5.1032165617 
4.9713148346 4.8656852733 4.7809517865 0.17788134 0.38438696014 0.60631181711 0.82323535693 1.0172219679 1.1799687454 
1.3118704726 1.4175000338 1.5022335207 6.1892828907 6.1070320098 6.035312792 5.9728339911 5.9183214791 5.8706119594 
5.8286879411 5.7916808611 5.7588591896 0.093902416448 0.17615329733 0.2478725152 0.31035131605 0.36486382811 0.41257334776 
0.45449736604 0.4915044461 0.52432611754 3.3194739936 3.5259796137 3.7479044707 3.9648280105 4.1588146215 4.321561399 
4.4534631262 4.5590926874 4.6438261743 2.9637113136 2.7572056934 2.5352808365 2.3183572967 2.1243706857 1.9616239082 
1.829722181 1.7240926197 1.6393591329 3.23549507 3.3177459509 3.3894651688 3.4519439696 3.5064564817 3.5541660013 
3.5960900196 3.6330970997 3.6659187711 3.0476902371 2.9654393563 2.8937201384 2.8312413375 2.7767288255 2.7290193058 
2.6870952876 2.6500882075 2.617266536 4.7123889804 4.7123889804 4.7123889804 4.7123889804 4.7123889804 4.7123889804 
4.7123889804 4.7123889804 4.7123889804 4.6087898617 4.4991390697 4.3857031936 4.2712800401 4.1588146215 4.0509635631 
3.94975894 3.8564636551 3.7716124825 4.8159880991 4.9256388911 5.0390747672 5.1534979207 5.2659633393 5.3738143976 
5.4750190208 5.5683143056 5.6531654782 4.6087898617 4.4991390697 4.3857031936 4.2712800401 4.1588146215 4.0509635631 
3.94975894 3.8564636551 3.7716124825 4.8159880991 4.9256388911 5.0390747672 5.1534979207 5.2659633393 5.3738143976 
5.4750190208 5.5683143056 5.6531654782 1.5707963268 1.5707963268 1.5707963268 1.5707963268 1.5707963268 1.5707963268 
1.5707963268 1.5707963268 1.5707963268 1.6743954455 1.7840462375 1.8974821136 2.0119052671 2.1243706857 2.232221744 
2.3334263672 2.426721652 2.5115728246 1.4671972081 1.3575464161 1.24411054 1.1296873865 1.0172219679 0.90937090954 
0.80816628637 0.71487100155 0.63001982895 1.6743954455 1.7840462375 1.8974821136 2.0119052671 2.1243706857 2.232221744 
2.3334263672 2.426721652 2.5115728246 1.4671972081 1.3575464161 1.24411054 1.1296873865 1.0172219679 0.90937090954 
0.80816628637 0.71487100155 0.63001982895 3.6007720849 3.4966939854 3.3839471039 3.2645756454 3.1415926536 3.0186096618 
2.8992382033 2.7864913217 2.6824132222 5.8240058758 5.9280839753 6.0408308569 6.1602023154 6.2831853072 0.12298299178 
0.2423544503 0.35510133185 0.45917943135 6.0560271438 5.7885595667 5.9702140275 5.5125918794 5.6029703303 5.7885595667 
5.2659633393 5.2659633393 5.2659633393 5.2659633393 5.0674903122 5.0120975802 4.9155579264 4.7123889804 4.1588146215 
4.9155579264 4.8353719722 4.7123889804 4.5092200343 4.1588146215 3.6362183941 4.8004512023 4.7123889804 4.5894059886 
4.4126803806 4.1588146215 3.8218076305 3.4545639333 4.7123889804 4.6243267584 4.5092200343 4.3572876485 4.1588146215 
3.9121860814 3.6362183941 3.368750817 6.0174235957 5.9434319871 5.8263323547 5.8809213739 5.7674481418 5.6279784266 
5.8278025282 5.718968232 5.5891129425 5.4372443565 5.7823484065 5.678536687 5.5575666702 5.4192596322 5.2659633393 
5.743164462 5.6444075337 5.5314983644 5.4046708639 5.2659633393 5.1195510325 5.7091357773 5.6152775188 5.5096229709 
5.3926039573 5.2659633393 5.1329233157 4.9978930058 5.6793730533 5.5901633916 5.4910209005 5.3824597928 5.2659633393 
5.1440684722 5.0201624502 4.8979782167 5.5683143056 5.4750190208 5.4750190208 5.3738143976 5.3738143976 5.3738143976 
5.2659633393 5.2659633393 5.2659633393 5.2659633393 5.1534979207 5.1534979207 5.1534979207 5.1534979207 5.1534979207 
5.0390747672 5.0390747672 5.0390747672 5.0390747672 5.0390747672 5.0390747672 4.9256388911 4.9256388911 4.9256388911 
4.9256388911 4.9256388911 4.9256388911 4.9256388911 4.8159880991 4.8159880991 4.8159880991 4.8159880991 4.8159880991 
4.8159880991 4.8159880991 4.8159880991 4.6087898617 4.6087898617 4.4991390697 4.6087898617 4.4991390697 4.3857031936 
4.6087898617 4.4991390697 4.3857031936 4.2712800401 4.6087898617 4.4991390697 4.3857031936 4.2712800401 4.1588146215 
4.6087898617 4.4991390697 4.3857031936 4.2712800401 4.1588146215 4.0509635631 4.6087898617 4.4991390697 4.3857031936 
4.2712800401 4.1588146215 4.0509635631 3.94975894 4.6087898617 4.4991390697 4.3857031936 4.2712800401 4.1588146215 
4.0509635631 3.94975894 3.8564636551 4.526799744 4.4046155105 4.426884955 4.2807094886 4.2918546451 4.3052269283 
4.1588146215 4.1588146215 4.1588146215 4.1588146215 4.042318168 4.0321740035 4.0201070968 4.0055183285 3.9875336042 
3.9337570603 3.9151549899 3.8932795963 3.8672112905 3.8356650183 3.7967995342 3.8346145692 3.809500442 3.7803704271 
3.7462412737 3.7058097288 3.657329819 3.5984456061 3.7454049075 3.7156421835 3.6816134988 3.6424295543 3.5969754326 
3.5438565869 3.4813459737 3.4073543651 3.5642842451 3.4524645613 3.5233842518 3.3320300872 3.403123212 3.4773852225 
3.20576226 3.2746326772 3.348015857 3.4255060145 3.0774230472 3.1415926536 3.2112816139 3.2864685043 3.3668817272 
2.95115522 3.00855263 3.0719036933 3.1415926536 3.2178377658 3.3005964304 2.8307207459 2.8800620952 2.9351694502 
2.9967168029 3.0653475414 3.1415926536 3.225752376 2.718901062 2.7598010554 2.8058000847 2.8576792927 2.91630358 
2.9825888767 3.0574329311 3.1415926536 3.5642842451 3.5233842518 3.4524645613 3.4773852225 3.403123212 3.3320300872 
3.4255060145 3.348015857 3.2746326772 3.20576226 3.3668817272 3.2864685043 3.2112816139 3.1415926536 3.0774230472 
3.3005964304 3.2178377658 3.1415926536 3.0719036933 3.00855263 2.95115522 3.225752376 3.1415926536 3.0653475414 
2.9967168029 2.9351694502 2.8800620952 2.8307207459 3.1415926536 3.0574329311 2.9825888767 2.91630358 2.8576792927 
2.8058000847 2.7598010554 2.718901062 4.526799744 4.426884955 4.4046155105 4.3052269283 4.2918546451 4.2807094886 
4.1588146215 4.1588146215 4.1588146215 4.1588146215 3.9875336042 4.0055183285 4.0201070968 4.0321740035 4.042318168 
3.7967995342 3.8356650183 3.8672112905 3.8932795963 3.9151549899 3.9337570603 3.5984456061 3.657329819 3.7058097288 
3.7462412737 3.7803704271 3.809500442 3.8346145692 3.4073543651 3.4813459737 3.5438565869 3.5969754326 3.6424295543 
3.6816134988 3.7156421835 3.7454049075 4.7123889804 4.8004512023 4.6243267584 4.9155579264 4.7123889804 4.5092200343 
5.0674903122 4.8353719722 4.5894059886 4.3572876485 5.2659633393 5.0120975802 4.7123889804 4.4126803806 4.1588146215 
5.5125918794 5.2659633393 4.9155579264 4.5092200343 4.1588146215 3.9121860814 5.7885595667 5.6029703303 5.2659633393 
4.7123889804 4.1588146215 3.8218076305 3.6362183941 6.0560271438 5.9702140275 5.7885595667 5.2659633393 4.1588146215 
3.6362183941 3.4545639333 3.368750817 0.22715816343 0.49462574053 0.3129712797 0.77059342779 0.68021497688 0.49462574053 
1.0172219679 1.0172219679 1.0172219679 1.0172219679 1.2156949949 1.271087727 1.3676273807 1.5707963268 2.1243706857 
1.3676273807 1.447813335 1.5707963268 1.7739652728 2.1243706857 2.6469669131 1.4827341049 1.5707963268 1.6937793186 
1.8705049266 2.1243706857 2.4613776767 2.8286213739 1.5707963268 1.6588585487 1.7739652728 1.9258976586 2.1243706857 
2.3709992258 2.6469669131 2.9144344902 1.7563855631 1.8785697967 1.8563003522 2.0024758186 1.9913306621 1.9779583789 
2.1243706857 2.1243706857 2.1243706857 2.1243706857 2.2408671392 2.2510113037 2.2630782103 2.2776669786 2.295651703 
2.3494282469 2.3680303173 2.3899057108 2.4159740166 2.4475202889 2.486385773 2.448570738 2.4736848652 2.5028148801 
2.5369440334 2.5773755784 2.6258554882 2.6847397011 2.5377803997 2.5675431237 2.6015718084 2.6407557529 2.6862098746 
2.7393287203 2.8018393335 2.8758309421 1.6743954455 1.6743954455 1.7840462375 1.6743954455 1.7840462375 1.8974821136 
1.6743954455 1.7840462375 1.8974821136 2.0119052671 1.6743954455 1.7840462375 1.8974821136 2.0119052671 2.1243706857 
1.6743954455 1.7840462375 1.8974821136 2.0119052671 2.1243706857 2.232221744 1.6743954455 1.7840462375 1.8974821136 
2.0119052671 2.1243706857 2.232221744 2.3334263672 1.6743954455 1.7840462375 1.8974821136 2.0119052671 2.1243706857 
2.232221744 2.3334263672 2.426721652 1.4671972081 1.3575464161 1.4671972081 1.24411054 1.3575464161 1.4671972081 
1.1296873865 1.24411054 1.3575464161 1.4671972081 1.0172219679 1.1296873865 1.24411054 1.3575464161 1.4671972081 
0.90937090954 1.0172219679 1.1296873865 1.24411054 1.3575464161 1.4671972081 0.80816628637 0.90937090954 1.0172219679 
1.1296873865 1.24411054 1.3575464161 1.4671972081 0.71487100155 0.80816628637 0.90937090954 1.0172219679 1.1296873865 
1.24411054 1.3575464161 1.4671972081 0.60381225391 0.57404952988 0.69302191562 0.54002084522 0.66790778838 0.79216440667 
0.50083690068 0.63877777351 0.77356233629 0.90072551443 0.45538277901 0.60464862014 0.75168694275 0.89058134991 1.0172219679 
0.40226393329 0.56421707518 0.72561863695 0.87851444325 1.0172219679 1.139116835 0.33975332011 0.51573716537 0.69407236469 
0.86392567495 1.0172219679 1.1502619915 1.2630228569 0.26576171152 0.45685295248 0.6552068806 0.84594095064 1.0172219679 
1.1636342747 1.2852923014 1.3852070904 0.22715816343 0.3129712797 0.49462574053 0.49462574053 0.68021497688 0.77059342779 
1.0172219679 1.0172219679 1.0172219679 1.0172219679 2.1243706857 1.5707963268 1.3676273807 1.271087727 1.2156949949 
2.6469669131 2.1243706857 1.7739652728 1.5707963268 1.447813335 1.3676273807 2.8286213739 2.4613776767 2.1243706857 
1.8705049266 1.6937793186 1.5707963268 1.4827341049 2.9144344902 2.6469669131 2.3709992258 2.1243706857 1.9258976586 
1.7739652728 1.6588585487 1.5707963268 1.7563855631 1.8563003522 1.8785697967 1.9779583789 1.9913306621 2.0024758186 
2.1243706857 2.1243706857 2.1243706857 2.1243706857 2.295651703 2.2776669786 2.2630782103 2.2510113037 2.2408671392 
2.486385773 2.4475202889 2.4159740166 2.3899057108 2.3680303173 2.3494282469 2.6847397011 2.6258554882 2.5773755784 
2.5369440334 2.5028148801 2.4736848652 2.448570738 2.8758309421 2.8018393335 2.7393287203 2.6862098746 2.6407557529 
2.6015718084 2.5675431237 2.5377803997 5.8604937156 5.901393709 5.9723133995 5.9473927383 6.0216547488 6.0927478736 
5.9992719463 6.0767621038 6.1501452836 6.2190157008 6.0578962336 6.1383094565 6.2134963469 0 0.064169606361 
6.1241815303 6.206940195 6.2831853072 0.069688960264 0.13304002361 0.19043743361 6.1990255847 0 0.07624511221 
0.14487585072 0.20642320337 0.26153055843 0.3108719077 0 0.084159722458 0.15900377685 0.22528907359 0.28391336087 
0.3357925689 0.38179159818 0.42269159155 5.8604937156 5.9723133995 5.901393709 6.0927478736 6.0216547488 5.9473927383 
6.2190157008 6.1501452836 6.0767621038 5.9992719463 0.064169606361 0 6.2134963469 6.1383094565 6.0578962336 
0.19043743361 0.13304002361 0.069688960264 6.2831853072 6.206940195 6.1241815303 0.3108719077 0.26153055843 0.20642320337 
0.14487585072 0.07624511221 6.2831853072 6.1990255847 0.42269159155 0.38179159818 0.3357925689 0.28391336087 0.22528907359 
0.15900377685 0.084159722458 0 5.6793730533 5.7091357773 5.5901633916 5.743164462 5.6152775188 5.4910209005 
5.7823484065 5.6444075337 5.5096229709 5.3824597928 5.8278025282 5.678536687 5.5314983644 5.3926039573 5.2659633393 
5.8809213739 5.718968232 5.5575666702 5.4046708639 5.2659633393 5.1440684722 5.9434319871 5.7674481418 5.5891129425 
5.4192596322 5.2659633393 5.1329233157 5.0201624502 6.0174235957 5.8263323547 5.6279784266 5.4372443565 5.2659633393 
5.1195510325 4.9978930058 4.8979782167 1.3852070904 1.2852923014 1.2630228569 1.1636342747 1.1502619915 1.139116835 
1.0172219679 1.0172219679 1.0172219679 1.0172219679 0.84594095064 0.86392567495 0.87851444325 0.89058134991 0.90072551443 
0.6552068806 0.69407236469 0.72561863695 0.75168694275 0.77356233629 0.79216440667 0.45685295248 0.51573716537 0.56421707518 
0.60464862014 0.63877777351 0.66790778838 0.69302191562 0.26576171152 0.33975332011 0.40226393329 0.45538277901 0.50083690068 
0.54002084522 0.57404952988 0.60381225391 
_paraPhiHalf 1 1002 double
0 3.1415926536 0 3.1415926536 1.5707963268 1.5707963268 1.5707963268 1.5707963268 2.5880182947 
0.5535743589 2.5880182947 0.5535743589 0 0 0 0 3.1415926536 3.1415926536 
3.1415926536 3.1415926536 3.1415926536 0.17788134 0.38438696014 0.60631181711 0.82323535693 1.0172219679 1.1799687454 
1.3118704726 1.4175000338 1.5022335207 0.17788134 0.38438696014 0.60631181711 0.82323535693 1.0172219679 1.1799687454 
1.3118704726 1.4175000338 1.5022335207 0.093902416448 0.17615329733 0.2478725152 0.31035131605 0.36486382811 0.41257334776 
0.45449736604 0.4915044461 0.52432611754 0.093902416448 0.17615329733 0.2478725152 0.31035131605 0.36486382811 0.41257334776 
0.45449736604 0.4915044461 0.52432611754 2.9637113136 2.7572056934 2.5352808365 2.3183572967 2.1243706857 1.9616239082 
1.829722181 1.7240926197 1.6393591329 2.9637113136 2.7572056934 2.5352808365 2.3183572967 2.1243706857 1.9616239082 
1.829722181 1.7240926197 1.6393591329 3.0476902371 2.9654393563 2.8937201384 2.8312413375 2.7767288255 2.7290193058 
2.6870952876 2.6500882075 2.617266536 3.0476902371 2.9654393563 2.8937201384 2.8312413375 2.7767288255 2.7290193058 
2.6870952876 2.6500882075 2.617266536 0 0 0 0 3.1415926536 3.1415926536 
3.1415926536 3.1415926536 3.1415926536 0.17788134 0.38438696014 0.60631181711 0.82323535693 1.0172219679 1.1799687454 
1.3118704726 1.4175000338 1.5022335207 0.17788134 0.38438696014 0.60631181711 0.82323535693 1.0172219679 1.1799687454 
1.3118704726 1.4175000338 1.5022335207 0.093902416448 0.17615329733 0.2478725152 0.31035131605 0.36486382811 0.41257334776 
0.45449736604 0.4915044461 0.52432611754 0.093902416448 0.17615329733 0.2478725152 0.31035131605 0.36486382811 0.41257334776 
0.45449736604 0.4915044461 0.52432611754 2.9637113136 2.7572056934 2.5352808365 2.3183572967 2.1243706857 1.9616239082 
1.829722181 1.7240926197 1.6393591329 2.9637113136 2.7572056934 2.5352808365 2.3183572967 2.1243706857 1.9616239082 
1.829722181 1.7240926197 1.6393591329 3.0476902371 2.9654393563 2.8937201384 2.8312413375 2.7767288255 2.7290193058 
2.6870952876 2.6500882075 2.617266536 3.0476902371 2.9654393563 2.8937201384 2.8312413375 2.7767288255 2.7290193058 
2.6870952876 2.6500882075 2.617266536 1.5707963268 1.5707963268 1.5707963268 1.5707963268 1.5707963268 1.5707963268 
1.5707963268 1.5707963268 1.5707963268 1.6743954455 1.7840462375 1.8974821136 2.0119052671 2.1243706857 2.232221744 
2.3334263672 2.426721652 2.5115728246 1.4671972081 1.3575464161 1.24411054 1.1296873865 1.0172219679 0.90937090954 
0.80816628637 0.71487100155 0.63001982895 1.6743954455 1.7840462375 1.8974821136 2.0119052671 2.1243706857 2.232221744 
2.3334263672 2.426721652 2.5115728246 1.4671972081 1.3575464161 1.24411054 1.1296873865 1.0172219679 0.90937090954 
0.80816628637 0.71487100155 0.63001982895 1.5707963268 1.5707963268 1.5707963268 1.5707963268 1.5707963268 1.5707963268 
1.5707963268 1.5707963268 1.5707963268 1.6743954455 1.7840462375 1.8974821136 2.0119052671 2.1243706857 2.232221744 
2.3334263672 2.426721652 2.5115728246 1.4671972081 1.3575464161 1.24411054 1.1296873865 1.0172219679 0.90937090954 
0.80816628637 0.71487100155 0.63001982895 1.6743954455 1.7840462375 1.8974821136 2.0119052671 2.1243706857 2.232221744 
2.3334263672 2.426721652 2.5115728246 1.4671972081 1.3575464161 1.24411054 1.1296873865 1.0172219679 0.90937090954 
0.80816628637 0.71487100155 0.63001982895 2.6824132222 2.7864913217 2.8992382033 3.0186096618 3.1415926536 3.0186096618 
2.8992382033 2.7864913217 2.6824132222 0.45917943135 0.35510133185 0.2423544503 0.12298299178 0 0.12298299178 
0.2423544503 0.35510133185 0.45917943135 0.22715816343 0.49462574053 0.3129712797 0.77059342779 0.68021497688 0.49462574053 
1.0172219679 1.0172219679 1.0172219679 1.0172219679 1.2156949949 1.271087727 1.3676273807 1.5707963268 2.1243706857 
1.3676273807 1.447813335 1.5707963268 1.7739652728 2.1243706857 2.6469669131 1.4827341049 1.5707963268 1.6937793186 
1.8705049266 2.1243706857 2.4613776767 2.8286213739 1.5707963268 1.6588585487 1.7739652728 1.9258976586 2.1243706857 
2.3709992258 2.6469669131 2.9144344902 0.26576171152 0.33975332011 0.45685295248 0.40226393329 0.51573716537 0.6552068806 
0.45538277901 0.56421707518 0.69407236469 0.84594095064 0.50083690068 0.60464862014 0.72561863695 0.86392567495 1.0172219679 
0.54002084522 0.63877777351 0.75168694275 0.87851444325 1.0172219679 1.1636342747 0.57404952988 0.66790778838 0.77356233629 
0.89058134991 1.0172219679 1.1502619915 1.2852923014 0.60381225391 0.69302191562 0.79216440667 0.90072551443 1.0172219679 
1.139116835 1.2630228569 1.3852070904 0.71487100155 0.80816628637 0.80816628637 0.90937090954 0.90937090954 0.90937090954 
1.0172219679 1.0172219679 1.0172219679 1.0172219679 1.1296873865 1.1296873865 1.1296873865 1.1296873865 1.1296873865 
1.24411054 1.24411054 1.24411054 1.24411054 1.24411054 1.24411054 1.3575464161 1.3575464161 1.3575464161 
1.3575464161 1.3575464161 1.3575464161 1.3575464161 1.4671972081 1.4671972081 1.4671972081 1.4671972081 1.4671972081 
1.4671972081 1.4671972081 1.4671972081 1.6743954455 1.6743954455 1.7840462375 1.6743954455 1.7840462375 1.8974821136 
1.6743954455 1.7840462375 1.8974821136 2.0119052671 1.6743954455 1.7840462375 1.8974821136 2.0119052671 2.1243706857 
1.6743954455 1.7840462375 1.8974821136 2.0119052671 2.1243706857 2.232221744 1.6743954455 1.7840462375 1.8974821136 
2.0119052671 2.1243706857 2.232221744 2.3334263672 1.6743954455 1.7840462375 1.8974821136 2.0119052671 2.1243706857 
2.232221744 2.3334263672 2.426721652 1.7563855631 1.8785697967 1.8563003522 2.0024758186 1.9913306621 1.9779583789 
2.1243706857 2.1243706857 2.1243706857 2.1243706857 2.2408671392 2.2510113037 2.2630782103 2.2776669786 2.295651703 
2.3494282469 2.3680303173 2.3899057108 2.4159740166 2.4475202889 2.486385773 2.448570738 2.4736848652 2.5028148801 
2.5369440334 2.5773755784 2.6258554882 2.6847397011 2.5377803997 2.5675431237 2.6015718084 2.6407557529 2.6862098746 
2.7393287203 2.8018393335 2.8758309421 2.718901062 2.8307207459 2.7598010554 2.95115522 2.8800620952 2.8058000847 
3.0774230472 3.00855263 2.9351694502 2.8576792927 3.0774230472 3.1415926536 3.0719036933 2.9967168029 2.91630358 
2.95115522 3.00855263 3.0719036933 3.1415926536 3.0653475414 2.9825888767 2.8307207459 2.8800620952 2.9351694502 
2.9967168029 3.0653475414 3.1415926536 3.0574329311 2.718901062 2.7598010554 2.8058000847 2.8576792927 2.91630358 
2.9825888767 3.0574329311 3.1415926536 2.718901062 2.7598010554 2.8307207459 2.8058000847 2.8800620952 2.95115522 
2.8576792927 2.9351694502 3.00855263 3.0774230472 2.91630358 2.9967168029 3.0719036933 3.1415926536 3.0774230472 
2.9825888767 3.0653475414 3.1415926536 3.0719036933 3.00855263 2.95115522 3.0574329311 3.1415926536 3.0653475414 