# vtk DataFile Version 5.1
vtk output
ASCII
DATASET POLYDATA
POINTS 100 float
26.4626 44.55 13.5719 26.4567 44.5452 13.5772 26.4385 44.5276 13.5893 
26.4071 44.4979 13.6064 26.3616 44.4568 13.6258 26.3007 44.4055 13.6445 
26.2231 44.3454 13.659 26.128 44.2776 13.6663 26.0147 44.2036 13.6641 
25.8835 44.1241 13.6508 25.7351 44.0402 13.6263 25.5709 43.9524 13.5912 
25.3929 43.861 13.5477 25.2033 43.7661 13.4983 25.0048 43.6677 13.4464 
24.7998 43.5659 13.3951 24.5904 43.4606 13.3474 24.3785 43.352 13.3056 
24.1652 43.2402 13.2712 23.9512 43.1258 13.2445 23.7366 43.0093 13.2248 
23.521 42.8913 13.2106 23.3039 42.7726 13.1997 23.0847 42.654 13.1897 
22.8629 42.5359 13.1781 22.6384 42.4188 13.1629 22.4113 42.3028 13.1426 
22.1823 42.1881 13.1165 21.9526 42.0742 13.0849 21.7234 41.9608 13.0485 
21.4964 41.8472 13.0091 21.2728 41.733 12.9684 21.054 41.6174 12.9284 
20.8408 41.5 12.8909 20.6335 41.3803 12.8573 20.4317 41.2582 12.8281 
20.2348 41.1337 12.8036 20.0415 41.0067 12.7829 19.8504 40.8775 12.7651 
19.66 40.7465 12.7485 19.4689 40.6137 12.7316 19.2762 40.4794 12.7129 
19.0815 40.3439 12.6911 18.8847 40.207 12.6655 18.6865 40.0689 12.636 
18.488 39.9293 12.6028 18.2905 39.7881 12.5666 18.0956 39.6453 12.5285 
17.9046 39.5008 12.4893 17.7186 39.3547 12.4501 17.5381 39.2072 12.4113 
17.3631 39.0585 12.3732 17.1929 38.9092 12.3354 17.0264 38.7597 12.2972 
16.8619 38.6105 12.2577 16.6974 38.4621 12.2158 16.531 38.3149 12.1705 
16.3609 38.1693 12.1212 16.1859 38.0255 12.0677 16.0052 37.8834 12.0104 
15.8186 37.7433 11.9503 15.6266 37.6049 11.8889 15.4302 37.4685 11.8281 
15.2309 37.3339 11.7702 15.0303 37.2016 11.7171 14.8301 37.0717 11.6708 
14.6317 36.9449 11.6326 14.4364 36.8215 11.6031 14.2447 36.7024 11.5823 
14.057 36.5878 11.5695 13.8729 36.4783 11.5634 13.692 36.374 11.5621 
13.5136 36.2746 11.5639 13.3369 36.1798 11.5668 13.1616 36.0886 11.5693 
12.9876 36 11.5703 12.815 35.9127 11.5694 12.6449 35.8255 11.5666 
12.4785 35.7371 11.5626 12.3175 35.6468 11.5583 12.1639 35.5541 11.5551 
12.0196 35.4591 11.5542 11.8865 35.3626 11.5566 11.7661 35.2659 11.5628 
11.6593 35.1707 11.5729 11.5668 35.0793 11.5866 11.4883 34.9938 11.6028 
11.4233 34.9165 11.6202 11.3706 34.8493 11.6373 11.3288 34.7936 11.6527 
11.2963 34.75 11.6651 11.2713 34.7185 11.6736 11.2525 34.6983 11.6779 
11.2383 34.6877 11.6782 11.2278 34.6846 11.6751 11.22 34.6868 11.6696 
11.2146 34.6915 11.6631 11.2112 34.6965 11.6568 11.2095 34.7001 11.6519 
11.2097 34.7009 11.6489 
LINES 2 100
OFFSETS vtktypeint64
0 100 
CONNECTIVITY vtktypeint64
0 1 2 3 4 5 6 7 8 
9 10 11 12 13 14 15 16 17 
18 19 20 21 22 23 24 25 26 
27 28 29 30 31 32 33 34 35 
36 37 38 39 40 41 42 43 44 
45 46 47 48 49 50 51 52 53 
54 55 56 57 58 59 60 61 62 
63 64 65 66 67 68 69 70 71 
72 73 74 75 76 77 78 79 80 
81 82 83 84 85 86 87 88 89 
90 91 92 93 94 95 96 97 98 
99 
POINT_DATA 100
FIELD FieldData 3
_theta 1 100 double
0 0.031733259127 0.063466518254 0.095199777382 0.12693303651 0.15866629564 0.19039955476 0.22213281389 0.25386607302 
0.28559933214 0.31733259127 0.3490658504 0.38079910953 0.41253236865 0.44426562778 0.47599888691 0.50773214603 0.53946540516 
0.57119866429 0.60293192342 0.63466518254 0.66639844167 0.6981317008 0.72986495992 0.76159821905 0.79333147818 0.82506473731 
0.85679799643 0.88853125556 0.92026451469 0.95199777382 0.98373103294 1.0154642921 1.0471975512 1.0789308103 1.1106640695 
1.1423973286 1.1741305877 1.2058638468 1.237597106 1.2693303651 1.3010636242 1.3327968833 1.3645301425 1.3962634016 
1.4279966607 1.4597299198 1.491463179 1.5231964381 1.5549296972 1.5866629564 1.6183962155 1.6501294746 1.6818627337 
1.7135959929 1.745329252 1.7770625111 1.8087957702 1.8405290294 1.8722622885 1.9039955476 1.9357288068 1.9674620659 
1.999195325 2.0309285841 2.0626618433 2.0943951024 2.1261283615 2.1578616206 2.1895948798 2.2213281389 2.253061398 
2.2847946572 2.3165279163 2.3482611754 2.3799944345 2.4117276937 2.4434609528 2.4751942119 2.506927471 2.5386607302 
2.5703939893 2.6021272484 2.6338605076 2.6655937667 2.6973270258 2.7290602849 2.7607935441 2.7925268032 2.8242600623 
2.8559933214 2.8877265806 2.9194598397 2.9511930988 2.982926358 3.0146596171 3.0463928762 3.0781261353 3.1098593945 
3.1415926536 
_radius 1 100 double
3.8592348841e-14 0.26047185804 0.51640109642 0.76334568666 0.99730377397 1.2149722732 1.4140218023 1.5933580374 1.7533180064 
1.8957340905 2.0237974045 2.141676976 2.2539104801 2.3646703933 2.4770913979 2.5928613827 2.712191028 2.8341242673 
2.9570328899 3.0791180361 3.198799086 3.3149474959 3.4269795865 3.5348481824 3.6389746127 3.7401506659 3.8394248411 
3.9379762915 4.036977225 4.1374499119 4.2401335244 4.3453824553 4.4531163893 4.5628321039 4.6736715605 4.7845273859 
4.8941617253 5.0013192166 5.104824839 5.2036652395 5.2970534171 5.3844727878 5.4656926351 5.5407469807 5.6098741512 
5.6734231348 5.7317419401 5.7850690197 5.8334491003 5.8766894845 5.9143641144 5.9458631428 5.970477662 5.9875039463 
5.9963496994 5.9966262878 5.9882148443 5.9712986693 5.9463578211 5.9141237858 5.875494262 5.8314128702 5.7827270691 
5.7300475072 5.6736384328 5.6133665133 5.5487229102 5.4789144628 5.4030019236 5.3200534378 5.2292826445 5.1301503902 
5.0224215597 4.906178624 4.7817983358 4.6498978041 4.5112536183 4.3666966252 4.2169886066 4.0626957258 3.9040830416 
3.7410575626 3.5731794776 3.3997446602 3.2199245326 3.0329389815 2.8382350666 2.6356449007 2.4254973328 2.2086609973 
1.9865041621 1.7607707211 1.5333883465 1.3062386175 1.0809258498 0.85858078331 0.63972908725 0.42424512641 0.21140001284 
4.4275659592e-14 
_area 1 100 double
0 0.20589155794 0.80972648183 1.7719569301 3.0326024146 4.5184970759 6.1514759173 7.8570000731 9.5727078383 
11.255921622 12.888792071 14.479776042 16.060518221 17.677987266 19.382901082 21.216886665 23.202078758 25.336877276 
27.599159767 29.954510304 32.365167843 34.796731498 37.222232024 39.62464636 41.998797831 44.352687561 46.707578026 
49.096023999 51.55748572 54.13194341 56.852732699 59.740207195 62.797620438 66.010178154 69.347842317 72.771520599 
76.240010006 79.712801845 83.1458928 86.486334505 89.676095823 92.665305318 95.424005868 97.945846662 100.24518706 
102.35101302 104.29875097 106.1188508 107.82436189 109.40630258 110.83958721 112.09096442 113.12251084 113.89209863 
114.35573101 114.47453113 114.22495384 113.60804094 112.65325524 111.41424221 109.956724 108.34170802 106.60971385 
104.77206783 102.81204989 100.6941613 98.37743681 95.82854034 93.031095259 89.98921785 86.725261625 83.273363526 
79.671229027 75.952983903 72.145474301 68.268705614 64.338934514 60.371710544 56.382723579 52.386259142 48.393107526 
44.410456803 40.444951297 36.507628149 32.617879824 28.804218504 25.101779767 21.548390063 18.181321737 15.035649858 
12.143610505 9.5337741973 7.2294385302 5.2466388407 3.5926812974 2.2659315686 1.2571655823 0.55243701169 0.13707774282 
1.9895196601e-13 
