# vtk DataFile Version 5.1
vtk output
ASCII
DATASET POLYDATA
POINTS 1002 float
11.8702 33.6056 16.8905 19.4054 39.291 13.0804 13.3313 28.6495 9.96089 
19.9241 35.1265 6.98555 20.2536 32.8328 18.4868 21.3027 29.5186 12.9189 
11.1854 39.9641 11.6212 12.4411 36.1324 6.64643 25.1207 37.661 11.5274 
13.0624 26.8565 18.1908 19.1419 43.0759 6.65609 6.9035 30.9587 12.9444 
12.5774 34.3108 16.7848 13.357 35.0358 16.6024 14.0724 35.6667 16.1663 
14.692 36.0998 15.4396 15.3647 36.4062 14.6569 16.1963 36.7989 14.0801 
17.0961 37.3762 13.7288 17.9477 38.0472 13.4806 18.7229 38.699 13.2648 
12.6487 33.5861 17.1195 13.4496 33.4645 17.202 14.176 33.1322 16.9916 
14.9693 32.6522 16.5336 16.0591 32.314 16.156 17.3284 32.3471 16.2494 
18.3851 32.6292 16.891 19.0931 32.8592 17.7374 19.6538 32.9039 18.337 
11.5791 34.0641 16.549 11.4038 34.6443 16.1874 11.3221 35.4052 15.8348 
11.1923 36.2953 15.4785 10.9818 37.1402 15.0435 10.8604 37.7963 14.4307 
10.924 38.318 13.6489 11.0564 38.858 12.8522 11.14 39.4415 12.1766 
11.6886 32.8633 17.18 11.5254 31.988 17.517 11.3664 31.0304 17.8358 
11.233 30.0999 18.0431 11.1932 29.2591 18.2165 11.3234 28.5098 18.5731 
11.6555 27.8721 19.0551 12.1339 27.3809 19.2597 12.6368 27.045 18.9264 
11.0583 33.1883 16.8208 10.3341 32.7861 16.7735 9.65622 32.406 16.6484 
8.9313 32.0478 16.3587 8.2098 31.7613 16.0031 7.65475 31.5984 15.6913 
7.29972 31.5116 15.2807 7.05599 31.3898 14.5925 6.90443 31.1881 13.7271 
19.6162 38.8098 13.5251 19.7988 38.1576 13.9276 19.9856 37.4121 14.2179 
20.2173 36.6161 14.4296 20.4915 35.6916 14.6529 20.6899 34.6692 14.9493 
20.6681 33.8309 15.4509 20.4696 33.3629 16.3202 20.2921 33.1137 17.4557 
18.7175 39.31 12.7532 17.8979 39.3091 12.4767 17.0361 39.3362 12.2558 
16.2378 39.4543 12.09 15.4611 39.725 12.0666 14.5549 40.0845 12.2211 
13.5169 40.3298 12.3676 12.5341 40.3411 12.293 11.7557 40.1836 11.9975 
20.1785 39.6189 13.2027 20.9629 39.9059 13.3214 21.7791 40.0646 13.3748 
22.6593 40.1036 13.3496 23.5813 40.0957 13.2721 24.4133 39.9781 13.1075 
24.9808 39.5944 12.7801 25.2208 38.9637 12.3208 25.223 38.2733 11.8673 
19.6165 39.8693 12.6955 19.7312 40.4482 12.2972 19.7791 41.0861 11.8844 
19.8539 41.764 11.4256 19.9309 42.3245 10.8841 19.8503 42.6731 10.2052 
19.5882 42.9117 9.32917 19.3253 43.1197 8.30974 19.191 43.2088 7.35288 
13.9494 28.9538 9.42917 14.6582 29.3224 8.87103 15.4868 29.8652 8.44689 
16.375 30.6095 8.1443 17.2367 31.421 7.80141 18.0246 32.1491 7.39989 
18.6896 32.822 7.09963 19.1946 33.5591 6.97708 19.58 34.3633 6.96442 
14.1412 28.42 10.0108 15.1219 28.3683 10.1354 16.1395 28.3924 10.306 
17.0799 28.316 10.555 17.9578 28.1948 10.9523 18.8185 28.2759 11.4283 
19.61 28.599 11.8181 20.2671 28.9679 12.1203 20.8125 29.2629 12.4721 
13.0488 29.1872 9.65118 12.8669 29.7601 9.28555 12.6709 30.2938 8.81033 
12.3542 30.8263 8.2673 12.0756 31.4994 7.82402 12.0995 32.4083 7.55174 
12.3596 33.4829 7.33306 12.5495 34.5333 7.08319 12.543 35.4164 6.84152 
13.1604 28.1113 10.3903 12.9366 27.53 10.755 12.6381 27.0854 11.253 
12.3268 26.9377 12.1485 12.1222 27.0087 13.3821 12.0917 27.0621 14.5703 
12.2133 26.9945 15.5215 12.4388 26.8806 16.3952 12.7335 26.8174 17.3187 
12.4974 28.673 10.2557 11.5982 28.667 10.5513 10.6864 28.5437 10.8577 
9.86899 28.4128 11.2542 9.17815 28.5092 11.7544 8.53158 28.8336 12.1846 
7.90004 29.1925 12.39 7.38016 29.5889 12.4722 7.05392 30.1787 12.6371 
20.1979 34.6591 7.41727 20.4494 34.0975 7.94397 20.6627 33.4106 8.52877 
20.843 32.694 9.13762 21.0314 32.0696 9.76568 21.24 31.4899 10.4077 
21.3877 30.8635 11.0478 21.4052 30.2704 11.6819 21.3441 29.8295 12.3092 
19.3977 35.1341 6.58532 18.7978 35.1754 6.18958 18.0847 35.2531 5.83928 
17.1973 35.2888 5.57544 16.158 35.2248 5.39427 15.1188 35.1716 5.31265 
14.2376 35.3017 5.42584 13.5429 35.6117 5.76847 12.9633 35.9344 6.22199 
20.4737 35.5533 7.26974 21.0512 35.9495 7.62912 21.5826 36.319 8.10078 
22.0863 36.6688 8.65688 22.6817 36.9669 9.20294 23.3812 37.185 9.67136 
24.0214 37.3553 10.0836 24.4917 37.5102 10.5079 24.837 37.6235 10.9901 
19.9725 35.8643 6.77265 20.0639 36.637 6.5559 20.2176 37.4553 6.3089 
20.3895 38.375 6.06824 20.4792 39.4016 5.95141 20.4256 40.4374 6.0016 
20.249 41.3705 6.10101 19.9737 42.1412 6.173 19.5961 42.7158 6.31843 
20.7215 32.4909 18.7659 21.1873 32.0764 18.5072 21.4097 31.7075 17.7647 
21.3773 31.3309 16.8779 21.4393 30.7694 16.17 21.7732 30.0989 15.6511 
22.0488 29.6376 15.1121 21.9616 29.4946 14.4227 21.6305 29.5021 13.6441 
20.9803 32.988 17.7379 21.9031 33.3017 16.89 22.9288 33.848 16.2387 
23.9846 34.4844 15.7877 25.0053 34.9412 15.2932 25.7717 35.2031 14.6211 
26.0317 35.5709 13.8318 25.83 36.2222 13.0092 25.4548 36.9987 12.2185 
19.9302 32.4554 19.1956 19.6183 31.8311 19.2405 19.123 31.0196 18.4963 
18.292 30.2336 17.5107 17.2469 29.5374 17.1008 16.2958 28.7927 17.48 
15.5488 27.9956 18.1438 14.8291 27.3476 18.5489 13.9831 26.9813 18.5287 
21.8033 30.0276 13.0205 22.3254 30.7467 13.0542 22.832 31.6365 12.9119 
23.3482 32.5126 12.6088 23.9679 33.2693 12.3406 24.6463 34.0081 12.2327 
25.1307 34.8443 12.1529 25.2731 35.7692 11.9559 25.2044 36.7256 11.703 
20.984 29.0589 13.2425 20.5898 28.5261 13.6107 19.962 28.0249 13.9982 
18.9314 27.8409 14.3259 17.5819 28.0038 14.5717 16.2992 28.0504 14.9061 
15.3664 27.6622 15.5583 14.6711 27.1289 16.5067 13.9401 26.8481 17.4697 
10.9099 40.0837 11.0122 10.6524 40.1516 10.2677 10.4907 40.163 9.39634 
10.5323 40.0542 8.5026 10.807 39.6472 7.75128 11.1775 38.8648 7.25059 
11.4863 37.9411 6.98651 11.7507 37.1761 6.8598 12.0692 36.6157 6.76452 
11.6279 40.4992 11.3079 12.3051 40.8215 10.8391 13.1862 40.9801 10.1184 
14.0936 41.2762 9.29098 14.8753 41.8873 8.63767 15.5933 42.5533 8.21027 
16.4052 42.9605 7.81226 17.3347 43.1239 7.34721 18.2792 43.1625 6.92217 
10.7186 39.3698 11.6076 10.3124 38.6225 11.7391 9.86359 37.7173 12.0034 
9.29159 36.6934 12.2451 8.62483 35.7264 12.3808 7.95534 34.9586 12.5002 
7.38294 34.2375 12.6558 7.01346 33.3004 12.7838 6.88389 32.137 12.862 
12.6759 36.7443 6.236 13.0325 37.4907 5.84693 13.5517 38.4327 5.53659 
14.2036 39.3884 5.43258 14.9752 40.0668 5.59631 15.8991 40.5426 5.86706 
16.9137 41.1886 6.04097 17.8383 42.0419 6.13521 18.5644 42.7483 6.30991 
11.9715 35.759 7.1743 11.3878 35.2081 7.7428 10.6958 34.5738 8.317 
10.0137 33.9804 8.92962 9.42512 33.4249 9.66597 8.83214 32.8533 10.4803 
8.14285 32.3133 11.1834 7.48866 31.8535 11.7259 7.06466 31.4202 12.27 
24.9363 38.5485 11.0949 24.718 39.3667 10.7066 24.2952 40.1701 10.2919 
23.6989 40.9933 9.78686 23.1504 41.6651 9.21709 22.6459 42.0441 8.61253 
21.9438 42.2992 7.96849 21.0054 42.6252 7.35728 20.0264 42.9437 6.90468 
11.8085 26.9274 18.1521 10.4456 26.9727 17.9458 9.08943 26.9326 17.6482 
7.74426 26.9284 17.2056 6.60805 27.093 16.5551 6.11605 27.4429 15.7918 
6.31425 28.0183 15.0246 6.70019 28.876 14.2637 6.88279 29.9212 13.5426 
13.4419 34.3059 16.9869 14.2594 34.1464 16.9591 14.2117 34.9482 16.6561 
14.974 33.7484 16.6183 14.9742 34.6802 16.4428 14.8688 35.4051 15.9622 
15.8087 33.2454 16.153 15.6924 34.2448 16.0533 15.6484 35.0508 15.6292 
15.539 35.7128 15.0676 16.9381 32.9265 15.9221 16.6144 33.812 15.7449 
16.5078 34.7215 15.4055 16.4987 35.4358 14.8548 16.3885 36.0814 14.375 
18.1178 32.9067 16.1324 17.782 33.5305 15.6723 17.5666 34.4699 15.3671 
17.5389 35.3449 14.9367 17.5054 36.0083 14.4343 17.3281 36.6603 14.0394 
19.0215 33.0242 16.66 18.9023 33.3909 15.8126 18.7404 34.2152 15.3666 
18.6243 35.2517 15.0657 18.5501 36.0849 14.6871 18.4058 36.726 14.2727 
18.1777 37.3853 13.8771 19.6765 33.1021 17.1823 19.772 33.3385 16.069 
19.8084 33.9564 15.3645 19.7055 34.9762 15.0215 19.524 36.0004 14.7675 
19.3308 36.7841 14.4747 19.1299 37.4585 14.1271 18.9256 38.1239 13.7125 
12.4446 32.7438 17.3609 12.2157 31.7442 17.6245 13.1812 32.4697 17.3236 
12.0325 30.7235 17.872 12.9076 31.3565 17.4728 13.9388 32.0212 16.9796 
12.0181 29.8451 18.0859 12.8149 30.3815 17.7053 13.8035 30.9635 17.0843 
14.9827 31.6409 16.5109 12.2505 29.1177 18.4185 13.0491 29.6773 18.0648 
13.9377 30.2285 17.4026 15.1255 30.8946 16.7227 16.3737 31.6582 16.3648 
12.6897 28.4395 18.9517 13.5593 29.0796 18.5821 14.3584 29.7377 17.8664 
15.4041 30.4459 17.1155 16.6605 31.2533 16.8074 17.7129 32.0452 16.8861 
13.2067 27.7949 19.3574 14.1364 28.4146 19.0569 14.8941 29.1879 18.2977 
15.7636 30.0026 17.4486 16.8897 30.8372 17.1675 17.9567 31.6954 17.5384 
18.6597 32.4207 17.9003 13.6623 27.2802 19.219 14.5834 27.7723 19.0942 
15.3265 28.5315 18.4459 16.0953 29.3966 17.5796 17.0928 30.2188 17.2222 
18.1364 31.0438 17.7427 18.8882 31.8775 18.5562 19.3184 32.5341 18.82 
14.7566 27.1072 17.5957 15.3717 27.5736 16.4594 15.4902 27.6277 17.4586 
16.1469 28.0988 15.6169 16.1854 28.111 16.4544 16.2844 28.3152 17.1423 
17.3998 28.1881 15.3292 17.3179 28.3372 16.1031 17.3135 28.5714 16.6649 
17.316 28.9664 16.9437 18.9397 27.9032 15.2798 18.8734 28.0842 16.2421 
18.726 28.4796 16.8732 18.5939 28.9756 17.1021 18.4705 29.543 17.2545 
20.2094 27.8657 15.034 20.2878 27.8666 16.1692 20.0796 28.2845 17.0278 
19.8 28.9459 17.4325 19.6187 29.5756 17.7035 19.4179 30.244 18.1289 
20.9523 28.3163 14.5622 21.1644 28.1816 15.6422 20.9812 28.4757 16.5676 
20.5936 29.183 17.1619 20.3796 29.8873 17.6547 20.275 30.4639 18.3368 
20.013 31.1175 19.0138 21.3479 28.9438 14.0663 21.637 28.8439 14.979 
21.5577 29.0364 15.7876 21.1487 29.6584 16.3867 20.8597 30.396 16.9566 
20.8437 30.9297 17.7617 20.7506 31.3802 18.6848 20.3862 31.9248 19.2604 
21.5249 32.6923 17.8819 21.9849 32.3324 17.5879 22.4809 33.0067 16.9717 
22.1408 31.9694 16.9454 22.8976 32.603 16.7666 23.5073 33.4832 16.2832 
22.1207 31.5267 16.2043 23.0231 32.1517 16.2875 23.8686 32.993 16.0926 
24.5687 34.0177 15.6793 22.2587 30.9561 15.5612 23.0395 31.6683 15.6172 
23.9376 32.5065 15.5754 24.8368 33.5207 15.2997 25.54 34.436 14.9388 
22.4926 30.4509 15.0195 23.1005 31.2373 14.923 23.8396 32.1069 14.7979 
24.717 33.1189 14.5979 25.6016 34.0454 14.3532 26.0967 34.7837 14.0938 
[...]
POINT_DATA 1002
FIELD FieldData 4
_paraPhi 1 1002 double
6.2831853072 3.1415926536 6.2831853072 3.1415926536 4.7123889804 4.7123889804 1.5707963268 1.5707963268 3.6951670125 
5.7296109483 2.5880182947 0.5535743589 6.2831853072 6.2831853072 6.2831853072 6.2831853072 3.1415926536 3.1415926536 
3.1415926536 3.1415926536 3.1415926536 6.1053039672 5.898798347 5.6768734901 5.4599499503 5.2659633393 5.1032165617 
4.9713148346 4.8656852733 4.7809517865 0.17788134 0.38438696014 0.60631181711 0.82323535693 1.0172219679 1.1799687454 
1.3118704726 1.4175000338 1.5022335207 6.1892828907 6.1070320098 6.035312792 5.9728339911 5.9183214791 5.8706119594 
5.8286879411 5.7916808611 5.7588591896 0.093902416448 0.17615329733 0.2478725152 0.31035131605 0.36486382811 0.41257334776 
0.45449736604 0.4915044461 0.52432611754 3.3194739936 3.5259796137 3.7479044707 3.9648280105 4.1588146215 4.321561399 
4.4534631262 4.5590926874 4.6438261743 2.9637113136 2.7572056934 2.5352808365 2.3183572967 2.1243706857 1.9616239082 
1.829722181 1.7240926197 1.6393591329 3.23549507 3.3177459509 3.3894651688 3.4519439696 3.5064564817 3.5541660013 
3.5960900196 3.6330970997 3.6659187711 3.0476902371 2.9654393563 2.8937201384 2.8312413375 2.7767288255 2.7290193058 
2.6870952876 2.6500882075 2.617266536 6.2831853072 6.2831853072 6.2831853072 6.2831853072 3.1415926536 3.1415926536 
3.1415926536 3.1415926536 3.1415926536 6.1053039672 5.898798347 5.6768734901 5.4599499503 5.2659633393 5.1032165617 
4.9713148346 4.8656852733 4.7809517865 0.17788134 0.38438696014 0.60631181711 0.82323535693 1.0172219679 1.1799687454 
1.3118704726 1.4175000338 1.5022335207 6.1892828907 6.1070320098 6.035312792 5.9728339911 5.9183214791 5.8706119594 
5.8286879411 5.7916808611 5.7588591896 0.093902416448 0.17615329733 0.2478725152 0.31035131605 0.36486382811 0.41257334776 
0.45449736604 0.4915044461 0.52432611754 3.3194739936 3.5259796137 3.7479044707 3.9648280105 4.1588146215 4.321561399 
4.4534631262 4.5590926874 4.6438261743 2.9637113136 2.7572056934 2.5352808365 2.3183572967 2.1243706857 1.9616239082 
1.829722181 1.7240926197 1.6393591329 3.23549507 3.3177459509 3.3894651688 3.4519439696 3.5064564817 3.5541660013 
3.5960900196 3.6330970997 3.6659187711 3.0476902371 2.9654393563 2.8937201384 2.8312413375 2.7767288255 2.7290193058 
2.6870952876 2.6500882075 2.617266536 4.7123889804 4.7123889804 4.7123889804 4.7123889804 4.7123889804 4.7123889804 
4.7123889804 4.7123889804 4.7123889804 4.6087898617 4.4991390697 4.3857031936 4.2712800401 4.1588146215 4.0509635631 
3.94975894 3.8564636551 3.7716124825 4.8159880991 4.9256388911 5.0390747672 5.1534979207 5.2659633393 5.3738143976 
5.4750190208 5.5683143056 5.6531654782 4.6087898617 4.4991390697 4.3857031936 4.2712800401 4.1588146215 4.0509635631 
3.94975894 3.8564636551 3.7716124825 4.8159880991 4.9256388911 5.0390747672 5.1534979207 5.2659633393 5.3738143976 
5.4750190208 5.5683143056 5.6531654782 1.5707963268 1.5707963268 1.5707963268 1.5707963268 1.5707963268 1.5707963268 
1.5707963268 1.5707963268 1.5707963268 1.6743954455 1.7840462375 1.8974821136 2.0119052671 2.1243706857 2.232221744 
2.3334263672 2.426721652 2.5115728246 1.4671972081 1.3575464161 1.24411054 1.1296873865 1.0172219679 0.90937090954 
0.80816628637 0.71487100155 0.63001982895 1.6743954455 1.7840462375 1.8974821136 2.0119052671 2.1243706857 2.232221744 
2.3334263672 2.426721652 2.5115728246 1.4671972081 1.3575464161 1.24411054 1.1296873865 1.0172219679 0.90937090954 
0.80816628637 0.71487100155 0.63001982895 3.6007720849 3.4966939854 3.3839471039 3.2645756454 3.1415926536 3.0186096618 
2.8992382033 2.7864913217 2.6824132222 5.8240058758 5.9280839753 6.0408308569 6.1602023154 6.2831853072 0.12298299178 
0.2423544503 0.35510133185 0.45917943135 6.0560271438 5.7885595667 5.9702140275 5.5125918794 5.6029703303 5.7885595667 
5.2659633393 5.2659633393 5.2659633393 5.2659633393 5.0674903122 5.0120975802 4.9155579264 4.7123889804 4.1588146215 
4.9155579264 4.8353719722 4.7123889804 4.5092200343 4.1588146215 3.6362183941 4.8004512023 4.7123889804 4.5894059886 
4.4126803806 4.1588146215 3.8218076305 3.4545639333 4.7123889804 4.6243267584 4.5092200343 4.3572876485 4.1588146215 
3.9121860814 3.6362183941 3.368750817 6.0174235957 5.9434319871 5.8263323547 5.8809213739 5.7674481418 5.6279784266 
5.8278025282 5.718968232 5.5891129425 5.4372443565 5.7823484065 5.678536687 5.5575666702 5.4192596322 5.2659633393 
5.743164462 5.6444075337 5.5314983644 5.4046708639 5.2659633393 5.1195510325 5.7091357773 5.6152775188 5.5096229709 
5.3926039573 5.2659633393 5.1329233157 4.9978930058 5.6793730533 5.5901633916 5.4910209005 5.3824597928 5.2659633393 
5.1440684722 5.0201624502 4.8979782167 5.5683143056 5.4750190208 5.4750190208 5.3738143976 5.3738143976 5.3738143976 
5.2659633393 5.2659633393 5.2659633393 5.2659633393 5.1534979207 5.1534979207 5.1534979207 5.1534979207 5.1534979207 
5.0390747672 5.0390747672 5.0390747672 5.0390747672 5.0390747672 5.0390747672 4.9256388911 4.9256388911 4.9256388911 
4.9256388911 4.9256388911 4.9256388911 4.9256388911 4.8159880991 4.8159880991 4.8159880991 4.8159880991 4.8159880991 
4.8159880991 4.8159880991 4.8159880991 4.6087898617 4.6087898617 4.4991390697 4.6087898617 4.4991390697 4.3857031936 
4.6087898617 4.4991390697 4.3857031936 4.2712800401 4.6087898617 4.4991390697 4.3857031936 4.2712800401 4.1588146215 
4.6087898617 4.4991390697 4.3857031936 4.2712800401 4.1588146215 4.0509635631 4.6087898617 4.4991390697 4.3857031936 
4.2712800401 4.1588146215 4.0509635631 3.94975894 4.6087898617 4.4991390697 4.3857031936 4.2712800401 4.1588146215 
4.0509635631 3.94975894 3.8564636551 4.526799744 4.4046155105 4.426884955 4.2807094886 4.2918546451 4.3052269283 
4.1588146215 4.1588146215 4.1588146215 4.1588146215 4.042318168 4.0321740035 4.0201070968 4.0055183285 3.9875336042 
3.9337570603 3.9151549899 3.8932795963 3.8672112905 3.8356650183 3.7967995342 3.8346145692 3.809500442 3.7803704271 
3.7462412737 3.7058097288 3.657329819 3.5984456061 3.7454049075 3.7156421835 3.6816134988 3.6424295543 3.5969754326 
3.5438565869 3.4813459737 3.4073543651 3.5642842451 3.4524645613 3.5233842518 3.3320300872 3.403123212 3.4773852225 
3.20576226 3.2746326772 3.348015857 3.4255060145 3.0774230472 3.1415926536 3.2112816139 3.2864685043 3.3668817272 
2.95115522 3.00855263 3.0719036933 3.1415926536 3.2178377658 3.3005964304 2.8307207459 2.8800620952 2.9351694502 
2.9967168029 3.0653475414 3.1415926536 3.225752376 2.718901062 2.7598010554 2.8058000847 2.8576792927 2.91630358 
2.9825888767 3.0574329311 3.1415926536 3.5642842451 3.5233842518 3.4524645613 3.4773852225 3.403123212 3.3320300872 
3.4255060145 3.348015857 3.2746326772 3.20576226 3.3668817272 3.2864685043 3.2112816139 3.1415926536 3.0774230472 
3.3005964304 3.2178377658 3.1415926536 3.0719036933 3.00855263 2.95115522 3.225752376 3.1415926536 3.0653475414 
2.9967168029 2.9351694502 2.8800620952 2.8307207459 3.1415926536 3.0574329311 2.9825888767 2.91630358 2.8576792927 
2.8058000847 2.7598010554 2.718901062 4.526799744 4.426884955 4.4046155105 4.3052269283 4.2918546451 4.2807094886 
4.1588146215 4.1588146215 4.1588146215 4.1588146215 3.9875336042 4.0055183285 4.0201070968 4.0321740035 4.042318168 
3.7967995342 3.8356650183 3.8672112905 3.8932795963 3.9151549899 3.9337570603 3.5984456061 3.657329819 3.7058097288 
3.7462412737 3.7803704271 3.809500442 3.8346145692 3.4073543651 3.4813459737 3.5438565869 3.5969754326 3.6424295543 
3.6816134988 3.7156421835 3.7454049075 4.7123889804 4.8004512023 4.6243267584 4.9155579264 4.7123889804 4.5092200343 
5.0674903122 4.8353719722 4.5894059886 4.3572876485 5.2659633393 5.0120975802 4.7123889804 4.4126803806 4.1588146215 
5.5125918794 5.2659633393 4.9155579264 4.5092200343 4.1588146215 3.9121860814 5.7885595667 5.6029703303 5.2659633393 
4.7123889804 4.1588146215 3.8218076305 3.6362183941 6.0560271438 5.9702140275 5.7885595667 5.2659633393 4.1588146215 
3.6362183941 3.4545639333 3.368750817 0.22715816343 0.49462574053 0.3129712797 0.77059342779 0.68021497688 0.49462574053 
1.0172219679 1.0172219679 1.0172219679 1.0172219679 1.2156949949 1.271087727 1.3676273807 1.5707963268 2.1243706857 
1.3676273807 1.447813335 1.5707963268 1.7739652728 2.1243706857 2.6469669131 1.4827341049 1.5707963268 1.6937793186 
1.8705049266 2.1243706857 2.4613776767 2.8286213739 1.5707963268 1.6588585487 1.7739652728 1.9258976586 2.1243706857 
2.3709992258 2.6469669131 2.9144344902 1.7563855631 1.8785697967 1.8563003522 2.0024758186 1.9913306621 1.9779583789 
2.1243706857 2.1243706857 2.1243706857 2.1243706857 2.2408671392 2.2510113037 2.2630782103 2.2776669786 2.295651703 
2.3494282469 2.3680303173 2.3899057108 2.4159740166 2.4475202889 2.486385773 2.448570738 2.4736848652 2.5028148801 
2.5369440334 2.5773755784 2.6258554882 2.6847397011 2.5377803997 2.5675431237 2.6015718084 2.6407557529 2.6862098746 
2.7393287203 2.8018393335 2.8758309421 1.6743954455 1.6743954455 1.7840462375 1.6743954455 1.7840462375 1.8974821136 
1.6743954455 1.7840462375 1.8974821136 2.0119052671 1.6743954455 1.7840462375 1.8974821136 2.0119052671 2.1243706857 
1.6743954455 1.7840462375 1.8974821136 2.0119052671 2.1243706857 2.232221744 1.6743954455 1.7840462375 1.8974821136 
2.0119052671 2.1243706857 2.232221744 2.3334263672 1.6743954455 1.7840462375 1.8974821136 2.0119052671 2.1243706857 
2.232221744 2.3334263672 2.426721652 1.4671972081 1.3575464161 1.4671972081 1.24411054 1.3575464161 1.4671972081 
1.1296873865 1.24411054 1.3575464161 1.4671972081 1.0172219679 1.1296873865 1.24411054 1.3575464161 1.4671972081 
0.90937090954 1.0172219679 1.1296873865 1.24411054 1.3575464161 1.4671972081 0.80816628637 0.90937090954 1.0172219679 
1.1296873865 1.24411054 1.3575464161 1.4671972081 0.71487100155 0.80816628637 0.90937090954 1.0172219679 1.1296873865 
1.24411054 1.3575464161 1.4671972081 0.60381225391 0.57404952988 0.69302191562 0.54002084522 0.66790778838 0.79216440667 
0.50083690068 0.63877777351 0.77356233629 0.90072551443 0.45538277901 0.60464862014 0.75168694275 0.89058134991 1.0172219679 
0.40226393329 0.56421707518 0.72561863695 0.87851444325 1.0172219679 1.139116835 0.33975332011 0.51573716537 0.69407236469 
0.86392567495 1.0172219679 1.1502619915 1.2630228569 0.26576171152 0.45685295248 0.6552068806 0.84594095064 1.0172219679 
1.1636342747 1.2852923014 1.3852070904 0.22715816343 0.3129712797 0.49462574053 0.49462574053 0.68021497688 0.77059342779 
1.0172219679 1.0172219679 1.0172219679 1.0172219679 2.1243706857 1.5707963268 1.3676273807 1.271087727 1.2156949949 
2.6469669131 2.1243706857 1.7739652728 1.5707963268 1.447813335 1.3676273807 2.8286213739 2.4613776767 2.1243706857 
1.8705049266 1.6937793186 1.5707963268 1.4827341049 2.9144344902 2.6469669131 2.3709992258 2.1243706857 1.9258976586 
1.7739652728 1.6588585487 1.5707963268 1.7563855631 1.8563003522 1.8785697967 1.9779583789 1.9913306621 2.0024758186 
2.1243706857 2.1243706857 2.1243706857 2.1243706857 2.295651703 2.2776669786 2.2630782103 2.2510113037 2.2408671392 
2.486385773 2.4475202889 2.4159740166 2.3899057108 2.3680303173 2.3494282469 2.6847397011 2.6258554882 2.5773755784 
2.5369440334 2.5028148801 2.4736848652 2.448570738 2.8758309421 2.8018393335 2.7393287203 2.6862098746 2.6407557529 
2.6015718084 2.5675431237 2.5377803997 5.8604937156 5.901393709 5.9723133995 5.9473927383 6.0216547488 6.0927478736 
5.9992719463 6.0767621038 6.1501452836 6.2190157008 6.0578962336 6.1383094565 6.2134963469 0 0.064169606361 
6.1241815303 6.206940195 6.2831853072 0.069688960264 0.13304002361 0.19043743361 6.1990255847 0 0.07624511221 
0.14487585072 0.20642320337 0.26153055843 0.3108719077 0 0.084159722458 0.15900377685 0.22528907359 0.28391336087 
0.3357925689 0.38179159818 0.42269159155 5.8604937156 5.9723133995 5.901393709 6.0927478736 6.0216547488 5.9473927383 
6.2190157008 6.1501452836 6.0767621038 5.9992719463 0.064169606361 0 6.2134963469 6.1383094565 6.0578962336 
0.19043743361 0.13304002361 0.069688960264 6.2831853072 6.206940195 6.1241815303 0.3108719077 0.26153055843 0.20642320337 
0.14487585072 0.07624511221 6.2831853072 6.1990255847 0.42269159155 0.38179159818 0.3357925689 0.28391336087 0.22528907359 
0.15900377685 0.084159722458 0 5.6793730533 5.7091357773 5.5901633916 5.743164462 5.6152775188 5.4910209005 
5.7823484065 5.6444075337 5.5096229709 5.3824597928 5.8278025282 5.678536687 5.5314983644 5.3926039573 5.2659633393 
5.8809213739 5.718968232 5.5575666702 5.4046708639 5.2659633393 5.1440684722 5.9434319871 5.7674481418 5.5891129425 
5.4192596322 5.2659633393 5.1329233157 5.0201624502 6.0174235957 5.8263323547 5.6279784266 5.4372443565 5.2659633393 
5.1195510325 4.9978930058 4.8979782167 1.3852070904 1.2852923014 1.2630228569 1.1636342747 1.1502619915 1.139116835 
1.0172219679 1.0172219679 1.0172219679 1.0172219679 0.84594095064 0.86392567495 0.87851444325 0.89058134991 0.90072551443 
0.6552068806 0.69407236469 0.72561863695 0.75168694275 0.77356233629 0.79216440667 0.45685295248 0.51573716537 0.56421707518 
0.60464862014 0.63877777351 0.66790778838 0.69302191562 0.26576171152 0.33975332011 0.40226393329 0.45538277901 0.50083690068 
0.54002084522 0.57404952988 0.60381225391 
_paraPhiHalf 1 1002 double
0 3.1415926536 0 3.1415926536 1.5707963268 1.5707963268 1.5707963268 1.5707963268 2.5880182947 
0.5535743589 2.5880182947 0.5535743589 0 0 0 0 3.1415926536 3.1415926536 
3.1415926536 3.1415926536 3.1415926536 0.17788134 0.38438696014 0.60631181711 0.82323535693 1.0172219679 1.1799687454 
1.3118704726 1.4175000338 1.5022335207 0.17788134 0.38438696014 0.60631181711 0.82323535693 1.0172219679 1.1799687454 
1.3118704726 1.4175000338 1.5022335207 0.093902416448 0.17615329733 0.2478725152 0.31035131605 0.36486382811 0.41257334776 
0.45449736604 0.4915044461 0.52432611754 0.093902416448 0.17615329733 0.2478725152 0.31035131605 0.36486382811 0.41257334776 
0.45449736604 0.4915044461 0.52432611754 2.9637113136 2.7572056934 2.5352808365 2.3183572967 2.1243706857 1.9616239082 
1.829722181 1.7240926197 1.6393591329 2.9637113136 2.7572056934 2.5352808365 2.3183572967 2.1243706857 1.9616239082 
1.829722181 1.7240926197 1.6393591329 3.0476902371 2.9654393563 2.8937201384 2.8312413375 2.7767288255 2.7290193058 
2.6870952876 2.6500882075 2.617266536 3.0476902371 2.9654393563 2.8937201384 2.8312413375 2.7767288255 2.7290193058 
2.6870952876 2.6500882075 2.617266536 0 0 0 0 3.1415926536 3.1415926536 
3.1415926536 3.1415926536 3.1415926536 0.17788134 0.38438696014 0.60631181711 0.82323535693 1.0172219679 1.1799687454 
1.3118704726 1.4175000338 1.5022335207 0.17788134 0.38438696014 0.60631181711 0.82323535693 1.0172219679 1.1799687454 
1.3118704726 1.4175000338 1.5022335207 0.093902416448 0.17615329733 0.2478725152 0.31035131605 0.36486382811 0.41257334776 
0.45449736604 0.4915044461 0.52432611754 0.093902416448 0.17615329733 0.2478725152 0.31035131605 0.36486382811 0.41257334776 
0.45449736604 0.4915044461 0.52432611754 2.9637113136 2.7572056934 2.5352808365 2.3183572967 2.1243706857 1.9616239082 
1.829722181 1.7240926197 1.6393591329 2.9637113136 2.7572056934 2.5352808365 2.3183572967 2.1243706857 1.9616239082 
1.829722181 1.7240926197 1.6393591329 3.0476902371 2.9654393563 2.8937201384 2.8312413375 2.7767288255 2.7290193058 
2.6870952876 2.6500882075 2.617266536 3.0476902371 2.9654393563 2.8937201384 2.8312413375 2.7767288255 2.7290193058 
2.6870952876 2.6500882075 2.617266536 1.5707963268 1.5707963268 1.5707963268 1.5707963268 1.5707963268 1.5707963268 
1.5707963268 1.5707963268 1.5707963268 1.6743954455 1.7840462375 1.8974821136 2.0119052671 2.1243706857 2.232221744 
2.3334263672 2.426721652 2.5115728246 1.4671972081 1.3575464161 1.24411054 1.1296873865 1.0172219679 0.90937090954 
0.80816628637 0.71487100155 0.63001982895 1.6743954455 1.7840462375 1.8974821136 2.0119052671 2.1243706857 2.232221744 
2.3334263672 2.426721652 2.5115728246 1.4671972081 1.3575464161 1.24411054 1.1296873865 1.0172219679 0.90937090954 
0.80816628637 0.71487100155 0.63001982895 1.5707963268 1.5707963268 1.5707963268 1.5707963268 1.5707963268 1.5707963268 
1.5707963268 1.5707963268 1.5707963268 1.6743954455 1.7840462375 1.8974821136 2.0119052671 2.1243706857 2.232221744 
2.3334263672 2.426721652 2.5115728246 1.4671972081 1.3575464161 1.24411054 1.1296873865 1.0172219679 0.90937090954 
0.80816628637 0.71487100155 0.63001982895 1.6743954455 1.7840462375 1.8974821136 2.0119052671 2.1243706857 2.232221744 
2.3334263672 2.426721652 2.5115728246 1.4671972081 1.3575464161 1.24411054 1.1296873865 1.0172219679 0.90937090954 
0.80816628637 0.71487100155 0.63001982895 2.6824132222 2.7864913217 2.8992382033 3.0186096618 3.1415926536 3.0186096618 
2.8992382033 2.7864913217 2.6824132222 0.45917943135 0.35510133185 0.2423544503 0.12298299178 0 0.12298299178 
0.2423544503 0.35510133185 0.45917943135 0.22715816343 0.49462574053 0.3129712797 0.77059342779 0.68021497688 0.49462574053 
1.0172219679 1.0172219679 1.0172219679 1.0172219679 1.2156949949 1.271087727 1.3676273807 1.5707963268 2.1243706857 
1.3676273807 1.447813335 1.5707963268 1.7739652728 2.1243706857 2.6469669131 1.4827341049 1.5707963268 1.6937793186 
1.8705049266 2.1243706857 2.4613776767 2.8286213739 1.5707963268 1.6588585487 1.7739652728 1.9258976586 2.1243706857 
2.3709992258 2.6469669131 2.9144344902 0.26576171152 0.33975332011 0.45685295248 0.40226393329 0.51573716537 0.6552068806 
0.45538277901 0.56421707518 0.69407236469 0.84594095064 0.50083690068 0.60464862014 0.72561863695 0.86392567495 1.0172219679 
0.54002084522 0.63877777351 0.75168694275 0.87851444325 1.0172219679 1.1636342747 0.57404952988 0.66790778838 0.77356233629 
0.89058134991 1.0172219679 1.1502619915 1.2852923014 0.60381225391 0.69302191562 0.79216440667 0.90072551443 1.0172219679 
1.139116835 1.2630228569 1.3852070904 0.71487100155 0.80816628637 0.80816628637 0.90937090954 0.90937090954 0.90937090954 
1.0172219679 1.0172219679 1.0172219679 1.0172219679 1.1296873865 1.1296873865 1.1296873865 1.1296873865 1.1296873865 
1.24411054 1.24411054 1.24411054 1.24411054 1.24411054 1.24411054 1.3575464161 1.3575464161 1.3575464161 
1.3575464161 1.3575464161 1.3575464161 1.3575464161 1.4671972081 1.4671972081 1.4671972081 1.4671972081 1.4671972081 
1.4671972081 1.4671972081 1.4671972081 1.6743954455 1.6743954455 1.7840462375 1.6743954455 1.7840462375 1.8974821136 
1.6743954455 1.7840462375 1.8974821136 2.0119052671 1.6743954455 1.7840462375 1.8974821136 2.0119052671 2.1243706857 
1.6743954455 1.7840462375 1.8974821136 2.0119052671 2.1243706857 2.232221744 1.6743954455 1.7840462375 1.8974821136 
2.0119052671 2.1243706857 2.232221744 2.3334263672 1.6743954455 1.7840462375 1.8974821136 2.0119052671 2.1243706857 
2.232221744 2.3334263672 2.426721652 1.7563855631 1.8785697967 1.8563003522 2.0024758186 1.9913306621 1.9779583789 
2.1243706857 2.1243706857 2.1243706857 2.1243706857 2.2408671392 2.2510113037 2.2630782103 2.2776669786 2.295651703 
2.3494282469 2.3680303173 2.3899057108 2.4159740166 2.4475202889 2.486385773 2.448570738 2.4736848652 2.5028148801 
2.5369440334 2.5773755784 2.6258554882 2.6847397011 2.5377803997 2.5675431237 2.6015718084 2.6407557529 2.6862098746 
2.7393287203 2.8018393335 2.8758309421 2.718901062 2.8307207459 2.7598010554 2.95115522 2.8800620952 2.8058000847 
3.0774230472 3.00855263 2.9351694502 2.8576792927 3.0774230472 3.1415926536 3.0719036933 2.9967168029 2.91630358 
2.95115522 3.00855263 3.0719036933 3.1415926536 3.0653475414 2.9825888767 2.8307207459 2.8800620952 2.9351694502 
2.9967168029 3.0653475414 3.1415926536 3.0574329311 2.718901062 2.7598010554 2.8058000847 2.8576792927 2.91630358 
2.9825888767 3.0574329311 3.1415926536 2.718901062 2.7598010554 2.8307207459 2.8058000847 2.8800620952 2.95115522 
2.8576792927 2.9351694502 3.00855263 3.0774230472 2.91630358 2.9967168029 3.0719036933 3.1415926536 3.0774230472 
2.9825888767 3.0653475414 3.1415926536 3.0719036933 3.00855263 2.95115522 3.0574329311 3.1415926536 3.0653475414 