# vtk DataFile Version 5.1
vtk output
ASCII
DATASET POLYDATA
POINTS 100 float
7.01217 34.787 14.9301 7.00941 34.7938 14.9323 7.00472 34.8133 14.9349 
7.0003 34.8455 14.9377 6.99951 34.8902 14.9404 7.0065 34.9473 14.9424 
7.02577 35.0167 14.9434 7.06169 35.0979 14.9427 7.11804 35.1904 14.9397 
7.19765 35.2937 14.9337 7.30216 35.407 14.9242 7.43191 35.5293 14.9107 
7.58602 35.6595 14.8927 7.76254 35.7965 14.8699 7.9588 35.9392 14.8421 
8.17172 36.0861 14.8093 8.39822 36.2362 14.7714 8.6355 36.3883 14.7288 
8.88131 36.5415 14.6816 9.13413 36.6951 14.6302 9.39312 36.8485 14.5752 
9.65809 37.0014 14.517 9.92931 37.1538 14.456 10.2073 37.3055 14.3928 
10.4925 37.457 14.3277 10.7851 37.6083 14.2611 11.085 37.7599 14.1935 
11.3916 37.9119 14.1249 11.7037 38.0645 14.0558 12.0199 38.2176 13.9864 
12.3386 38.3709 13.9168 12.6582 38.524 13.8474 12.9775 38.6765 13.7786 
13.2957 38.8278 13.7109 13.6124 38.977 13.6448 13.9281 39.1238 13.5811 
14.2435 39.2677 13.5205 14.5598 39.4085 13.464 14.8784 39.5462 13.4126 
15.2005 39.6813 13.3672 15.5267 39.8144 13.3289 15.8573 39.9465 13.2984 
16.1916 40.0787 13.2766 16.5283 40.2123 13.2638 16.8654 40.3485 13.2606 
17.2004 40.4886 13.2667 17.5304 40.6335 13.2821 17.8528 40.7839 13.3063 
18.1656 40.9402 13.3385 18.4671 41.1024 13.3779 18.7568 41.2702 13.4235 
19.0352 41.4429 13.4743 19.3037 41.6198 13.5294 19.5646 41.7998 13.5878 
19.8207 41.9819 13.6488 20.075 42.1652 13.7119 20.3305 42.3489 13.7766 
20.5894 42.5323 13.8427 20.8535 42.7149 13.9101 21.1234 42.8965 13.9789 
21.3988 43.077 14.0491 21.6786 43.2565 14.1207 21.9608 43.435 14.1939 
22.2432 43.6125 14.2686 22.5234 43.789 14.3446 22.7992 43.9645 14.4218 
23.0691 44.1386 14.4997 23.3324 44.3111 14.5781 23.5891 44.4815 14.6564 
23.8404 44.6494 14.7344 24.0878 44.8146 14.8116 24.3335 44.9769 14.8879 
24.5796 45.1361 14.9633 24.8282 45.2924 15.0376 25.0807 45.4461 15.1112 
25.3377 45.5975 15.1841 25.5989 45.7471 15.2566 25.8629 45.8952 15.329 
26.1277 46.042 15.4011 26.3902 46.1873 15.4729 26.6473 46.3306 15.5441 
26.8956 46.471 15.6141 27.1321 46.6071 15.682 27.3542 46.7372 15.7469 
27.5601 46.8595 15.8077 27.7489 46.9718 15.8631 27.9204 47.0722 15.9123 
28.0754 47.159 15.9542 28.2149 47.2311 15.9882 28.3402 47.2879 16.014 
28.453 47.3294 16.0319 28.5542 47.3567 16.0423 28.6448 47.3713 16.0462 
28.725 47.3756 16.0449 28.7948 47.3721 16.0398 28.8534 47.3638 16.0326 
28.9001 47.3536 16.0247 28.9339 47.3439 16.0175 28.954 47.3369 16.0122 
28.9599 47.3338 16.0093 
LINES 2 100
OFFSETS vtktypeint64
0 100 
CONNECTIVITY vtktypeint64
0 1 2 3 4 5 6 7 8 
9 10 11 12 13 14 15 16 17 
18 19 20 21 22 23 24 25 26 
27 28 29 30 31 32 33 34 35 
36 37 38 39 40 41 42 43 44 
45 46 47 48 49 50 51 52 53 
54 55 56 57 58 59 60 61 62 
63 64 65 66 67 68 69 70 71 
72 73 74 75 76 77 78 79 80 
81 82 83 84 85 86 87 88 89 
90 91 92 93 94 95 96 97 98 
99 
POINT_DATA 100
FIELD FieldData 3
_theta 1 100 double
0 0.031733259127 0.063466518254 0.095199777382 0.12693303651 0.15866629564 0.19039955476 0.22213281389 0.25386607302 
0.28559933214 0.31733259127 0.3490658504 0.38079910953 0.41253236865 0.44426562778 0.47599888691 0.50773214603 0.53946540516 
0.57119866429 0.60293192342 0.63466518254 0.66639844167 0.6981317008 0.72986495992 0.76159821905 0.79333147818 0.82506473731 
0.85679799643 0.88853125556 0.92026451469 0.95199777382 0.98373103294 1.0154642921 1.0471975512 1.0789308103 1.1106640695 
1.1423973286 1.1741305877 1.2058638468 1.237597106 1.2693303651 1.3010636242 1.3327968833 1.3645301425 1.3962634016 
1.4279966607 1.4597299198 1.491463179 1.5231964381 1.5549296972 1.5866629564 1.6183962155 1.6501294746 1.6818627337 
1.7135959929 1.745329252 1.7770625111 1.8087957702 1.8405290294 1.8722622885 1.9039955476 1.9357288068 1.9674620659 
1.999195325 2.0309285841 2.0626618433 2.0943951024 2.1261283615 2.1578616206 2.1895948798 2.2213281389 2.253061398 
2.2847946572 2.3165279163 2.3482611754 2.3799944345 2.4117276937 2.4434609528 2.4751942119 2.506927471 2.5386607302 
2.5703939893 2.6021272484 2.6338605076 2.6655937667 2.6973270258 2.7290602849 2.7607935441 2.7925268032 2.8242600623 
2.8559933214 2.8877265806 2.9194598397 2.9511930988 2.982926358 3.0146596171 3.0463928762 3.0781261353 3.1098593945 
3.1415926536 
_radius 1 100 double
6.5170753515e-14 0.30346099369 0.60835181124 0.91588383797 1.2267115838 1.5407144076 1.8568607599 2.1731797054 2.4868540679 
2.794434134 3.0921530989 3.3763086384 3.6436624352 3.8918039574 4.1194278873 4.326486313 4.5141952903 4.6848972225 
4.8418012614 4.9886392216 5.1292814226 5.267355196 5.4059011549 5.5470929796 5.6920392573 5.8406822389 5.9918064862 
6.1431663054 6.2917308687 6.4340293548 6.5665589438 6.6862027943 6.7905995337 6.8784129204 6.9494679715 7.00474252 
7.0462248739 7.0766647303 7.0992540002 7.1172771575 7.133768813 7.1512113304 7.1712990625 7.1947893105 7.2214538071 
7.2501375777 7.2789225151 7.3053796449 7.3268788716 7.3409135498 7.3453949177 7.3388791388 7.3207035328 7.2910233372 
7.2507527024 7.2014227177 7.1449754204 7.0835165317 7.0190519714 6.9532353811 6.8871565774 6.821202221 6.7550159066 
6.6875719489 6.6173562055 6.542624178 6.4616895575 6.3731916383 6.2762988136 6.1708232476 6.0572411876 5.9366274333 
5.8105183448 5.6807170661 5.5490519742 5.4171002257 5.2858968496 5.155666124 5.0256292344 4.8939480693 4.7578484429 
4.6139264142 4.4585921082 4.2885671072 4.101339109 3.8954924602 3.6708653779 3.4285213445 3.1705543333 2.8997713799 
2.6193107749 2.3322597021 2.0413312262 1.7486470102 1.4556499912 1.1631434413 0.87142507294 0.58046487316 0.29007069828 
8.2770364462e-14 
_area 1 100 double
0 0.26202701395 1.0564553935 2.4058413923 4.3399836408 6.8858083453 10.055932739 13.837874924 18.185860806 
23.017142872 28.21450392 33.635767829 39.129549665 44.554610893 49.798860215 54.793888074 59.521996393 64.01446573 
68.341650132 72.597252918 76.880943583 81.28421723 85.881943067 90.727502357 95.84752057 101.23464725 106.84048309 
112.5723695 118.2967244 123.84928168 129.05059361 133.72427208 137.71570546 140.90972232 143.24555293 144.72623286 
145.41922334 145.44691841 144.968769 144.1590544 143.18518452 142.19143343 141.29248988 140.57842431 140.12420069 
139.98459781 140.1624581 140.57766404 141.07344586 141.45504509 141.53653413 141.22645232 140.52726541 139.25574693 
137.41811205 135.13196774 132.55911094 129.81276233 127.00595305 124.24430272 121.59126143 119.05163797 116.57717032 
114.10462736 111.59752384 109.01370765 106.28532557 103.38259187 100.3223153 97.14776857 93.911863442 90.665555307 
87.451635318 84.303613485 81.247300408 78.301085661 75.471709458 72.745405246 70.077913612 67.389069304 64.567294784 
61.486261363 58.03111113 54.126893081 49.759886232 44.984906306 39.917193084 34.712725923 29.543356573 24.572770721 
19.937475967 15.735326588 12.022808115 8.8208125762 6.1267006963 3.9285363552 2.2165467979 0.98832443531 0.24768162076 
2.2737367544e-13 
