# vtk DataFile Version 5.1
vtk output
ASCII
DATASET POLYDATA
POINTS 1002 float
20.3755 40.2511 12.858 12.0785 33.9018 15.7474 21.5678 36.4049 7.73374 
15.8371 28.5981 9.2442 12.7988 39.5193 9.87534 14.5371 36.0101 6.17732 
21.0574 35.0922 16.0137 22.7047 31.0172 12.444 10.1172 30.2883 12.1546 
20.639 42.9389 6.16923 14.1375 26.999 18.1489 26.8415 38.8787 11.9778 
19.5823 39.9121 13.1374 18.7251 39.5757 13.5744 17.8902 39.1277 13.9915 
17.0645 38.474 14.19 16.1141 37.7033 14.2922 14.99 37.0069 14.6177 
13.8777 36.4086 15.159 13.0134 35.7385 15.5903 12.4506 34.8802 15.7462 
19.4955 40.4699 12.8005 18.5454 40.6829 12.7434 17.6527 40.7596 12.5195 
16.8892 40.6194 12.0854 16.1808 40.3399 11.6269 15.4061 40.0844 11.2937 
14.5821 39.9231 10.9941 13.8418 39.8072 10.6193 13.2585 39.6777 10.2192 
20.7035 39.8869 13.1823 20.9774 39.6528 13.7298 21.2669 39.4529 14.3484 
21.6189 39.0052 14.7525 21.9292 38.1632 14.8316 22.042 37.2042 14.8237 
21.946 36.5127 15.0217 21.724 36.095 15.4211 21.4196 35.677 15.8023 
20.5715 40.7877 12.6582 20.7008 41.3249 12.4097 20.8096 41.6813 11.8428 
20.9375 41.9022 10.9804 21.0063 42.223 10.239 20.8928 42.6594 9.82089 
20.6607 42.9556 9.33287 20.5207 43.0051 8.39503 20.5505 42.9569 7.19061 
21.3436 40.3847 12.8551 22.2758 40.6158 12.9901 23.1649 40.9195 13.2288 
24.0866 41.1603 13.4663 25.0229 41.176 13.6021 25.8217 40.8938 13.5358 
26.3902 40.3775 13.1987 26.7472 39.7857 12.6904 26.9017 39.2672 12.2373 
12.0422 34.4561 15.427 12.0639 34.9131 14.9293 12.0749 35.433 14.3326 
11.9703 36.2179 13.8199 11.7972 37.1804 13.4241 11.7722 37.9793 12.925 
11.9904 38.4629 12.1626 12.3124 38.792 11.2705 12.5887 39.139 10.4794 
12.4027 33.8931 15.968 12.9277 33.8465 16.087 13.7163 33.7999 16.0809 
14.6682 33.8616 16.0119 15.6402 34.0954 15.9966 16.6618 34.4316 16.0608 
17.8276 34.7504 16.1052 19.0537 34.9831 16.0703 20.1566 35.0999 16.0161 
11.6805 33.2905 15.5929 11.1295 32.7431 15.5146 10.4376 32.2904 15.5115 
9.84945 31.8576 15.4254 9.58633 31.3729 15.084 9.57111 30.8866 14.495 
9.6085 30.5113 13.8067 9.67229 30.3032 13.1536 9.83917 30.2456 12.6014 
11.9273 32.8004 15.911 11.7569 31.6447 16.227 11.545 30.7296 16.7647 
11.3877 30.0524 17.3557 11.4542 29.3164 17.8285 11.7902 28.4836 18.2757 
12.2911 27.849 18.7543 12.8729 27.5 19.0055 13.5073 27.2495 18.7812 
21.1728 35.7549 7.72357 20.6728 35.076 7.75534 20.1004 34.3323 7.80488 
19.5234 33.4737 7.80681 18.9488 32.5063 7.75726 18.3144 31.5258 7.79151 
17.6189 30.6363 8.05239 16.9497 29.8643 8.49758 16.3628 29.1878 8.93941 
21.1198 36.4482 7.39459 20.6597 36.4466 6.93897 20.1734 36.4218 6.43385 
19.5862 36.4243 6.07527 18.8055 36.4544 5.98994 17.8403 36.4393 6.04665 
16.8298 36.3391 6.03963 15.9202 36.2013 5.9773 15.1634 36.0856 6.00633 
21.7931 35.9254 8.02077 22.0001 35.4105 8.38579 22.165 34.8775 8.87906 
22.3124 34.2873 9.41762 22.5213 33.5491 9.83693 22.8161 32.6819 10.1293 
23.0744 31.8896 10.4897 23.1454 31.362 11.0558 23.0012 31.1061 11.7586 
21.635 37.1387 7.56165 21.7211 37.9643 7.29694 21.8327 38.8264 6.92323 
21.8836 39.6887 6.57992 21.8373 40.5683 6.41376 21.8043 41.4554 6.31903 
21.8166 42.2052 6.08478 21.6886 42.6605 5.79786 21.2693 42.8515 5.77767 
22.0736 36.7849 7.94899 22.5974 37.2383 8.23882 23.1014 37.7639 8.62265 
23.579 38.2636 9.06959 24.0884 38.5999 9.57189 24.7065 38.7419 10.1379 
25.4095 38.7825 10.6904 26.0561 38.8102 11.1387 26.5322 38.8444 11.5278 
15.5035 29.0678 8.94186 15.2147 29.6327 8.51211 15.0186 30.2949 8.01122 
14.8869 30.9702 7.53522 14.7012 31.5993 7.07699 14.4491 32.2843 6.61246 
14.3013 33.1525 6.26899 14.349 34.1528 6.16087 14.4727 35.1333 6.18903 
16.4876 28.5038 9.37695 17.0921 28.4504 9.5912 17.6122 28.5551 9.91434 
18.0303 28.9731 10.3309 18.3881 29.693 10.7731 18.8656 30.433 11.1417 
19.677 30.8789 11.4033 20.7889 30.987 11.6541 21.8942 30.961 12.0036 
15.0284 28.3349 9.3245 14.1039 28.1213 9.44709 13.2358 28.0337 9.6674 
12.5679 28.1369 10.0333 12.0581 28.3973 10.5442 11.571 28.718 11.0993 
11.0829 29.0631 11.5508 10.6622 29.4515 11.8426 10.3434 29.871 12.0247 
15.7482 27.9748 9.49666 15.6466 27.3812 9.78172 15.4446 26.9803 10.4184 
15.1112 26.8921 11.5877 14.7263 27.0058 12.9785 14.4 27.0685 14.1499 
14.1897 26.9925 15.1363 14.1024 26.8979 16.2053 14.1052 26.8961 17.3051 
12.6595 39.6356 9.34699 12.5326 39.688 8.77153 12.4376 39.6136 8.1048 
12.4136 39.3693 7.35126 12.5103 38.9413 6.67043 12.7643 38.3575 6.2831 
13.1725 37.7001 6.21099 13.6688 37.067 6.25852 14.1472 36.5065 6.25494 
12.2296 39.0706 9.93151 11.6249 38.501 10.0573 11.0858 37.7818 10.1978 
10.6904 36.9016 10.2929 10.3848 35.8233 10.3622 10.1197 34.5392 10.5315 
9.98159 33.1982 10.9012 10.0113 32.0198 11.4002 10.0938 31.0758 11.8537 
13.2721 40.0276 9.57329 13.8329 40.5614 9.26275 14.5714 41.0495 8.84882 
15.4906 41.4875 8.38738 16.3914 42.0021 8.02619 17.0869 42.6194 7.7195 
17.7053 43.098 7.29157 18.5188 43.2285 6.77253 19.5642 43.1014 6.3629 
13.9432 35.4535 6.48768 13.3176 34.9486 6.84032 12.6239 34.4572 7.14926 
11.9093 33.8378 7.47425 11.3486 33.0686 8.02281 11.0543 32.3514 8.87417 
10.9063 31.8205 9.86286 10.7171 31.3611 10.7849 10.4372 30.8405 11.5486 
14.946 36.9083 5.94081 15.4747 37.8025 5.65413 16.1836 38.5787 5.4009 
16.9914 39.3216 5.25639 17.6995 40.2858 5.17616 18.2378 41.4748 5.06606 
18.752 42.4831 4.97301 19.3659 42.9723 5.07552 20.031 43.0262 5.48975 
21.3197 34.5332 16.0951 21.5782 33.7928 16.1344 21.8259 33.0187 16.0739 
22.0399 32.3998 15.8689 22.2305 32.0004 15.5342 22.4452 31.726 15.0985 
22.6739 31.4791 14.5483 22.8238 31.26 13.8807 22.8279 31.1046 13.1522 
20.0958 34.3344 16.0338 18.9964 33.2963 15.9311 17.8504 32.1061 15.9087 
16.8031 30.9874 16.1691 16.0426 29.9886 16.6555 15.6668 28.9903 17.1771 
15.5117 28.039 17.6684 15.2632 27.3651 18.0849 14.7721 27.0612 18.2792 
22.1025 35.4236 15.9598 23.1651 35.8066 15.9251 24.2413 36.3007 15.979 
25.2682 36.7991 16.1011 26.1411 37.1694 16.0553 26.771 37.4679 15.5486 
27.1103 37.8232 14.607 27.1771 38.2231 13.5689 27.0557 38.5827 12.6898 
21.7262 30.9914 12.7725 20.2879 31.0621 12.9772 18.7048 30.9467 13.0794 
17.5238 30.3669 13.3602 17.0304 29.3199 14.0859 16.9275 28.1244 15.0986 
16.6874 27.1928 16.0323 16.0638 26.7639 16.7981 15.1469 26.7817 17.5041 
23.3363 31.3703 12.5135 23.6558 32.1132 12.5735 24.0457 33.0442 12.5831 
24.7321 33.9096 12.5163 25.3956 34.756 12.409 25.7175 35.7743 12.3468 
25.9271 36.868 12.3544 26.2984 37.7594 12.3384 26.6854 38.3791 12.2059 
9.83675 29.4612 12.5835 9.45527 28.6169 13.0023 9.14908 27.8592 13.6137 
9.13331 27.2595 14.5417 9.47788 26.8878 15.6479 10.1068 26.8126 16.6917 
10.9463 26.9639 17.5264 11.9567 27.1201 18.0571 13.0626 27.1218 18.2399 
21.6202 42.8737 6.64027 22.5797 42.9733 7.18115 23.5557 43.1369 7.77794 
24.5921 43.1284 8.4222 25.4903 42.783 9.00558 25.9793 42.0844 9.45638 
26.1567 41.1423 9.93044 26.3446 40.1868 10.5869 26.6242 39.4255 11.333 
18.6904 40.0443 13.0433 17.7981 40.1181 12.8973 17.9009 39.5538 13.3969 
16.9725 40.033 12.5923 17.0631 39.475 13.1686 17.1225 38.9737 13.7227 
16.1867 39.8098 12.1901 16.1616 39.3445 12.903 16.1965 38.874 13.5148 
16.2133 38.3005 13.9214 15.3548 39.6002 11.8533 15.1822 39.2514 12.6655 
15.0767 38.8896 13.4197 15.1023 38.2908 13.8461 15.0946 37.5757 14.1555 
14.4831 39.4918 11.5774 14.2157 39.2371 12.4342 13.9541 38.9917 13.3254 
13.9086 38.4104 13.871 13.9746 37.5565 14.1652 13.9541 36.8496 14.5859 
13.694 39.42 11.2429 13.3962 39.1978 12.108 13.0569 39.0108 13.0602 
12.9309 38.4796 13.7364 13.0303 37.5408 14.0938 13.1041 36.6535 14.484 
13.0576 36.1187 15.054 13.0711 39.3038 10.8494 12.7775 39.0373 11.689 
12.4322 38.8119 12.6273 12.2531 38.326 13.3697 12.3434 37.4189 13.8056 
12.5 36.424 14.194 12.5217 35.7451 14.7461 12.4611 35.3283 15.3322 
19.608 41.0588 12.6234 19.7002 41.5517 12.2891 18.5787 41.2853 12.5148 
19.831 41.8231 11.537 18.6362 41.7041 12.0199 17.6321 41.3317 12.1599 
19.9782 42.0486 10.5554 18.7558 41.9057 11.102 17.6367 41.6894 11.5356 
16.8317 41.1549 11.6373 19.9859 42.4478 9.83499 18.8699 42.1554 10.1034 
17.7113 41.8752 10.6142 16.7771 41.5163 11.0398 16.0817 40.8679 11.1972 
19.7772 42.8836 9.37302 18.8271 42.6012 9.42194 17.8139 42.1623 9.71688 
16.8354 41.7541 10.2347 15.994 41.2851 10.6646 15.2764 40.6102 10.8563 
19.5326 43.101 8.65963 18.6277 43.0195 8.83348 17.8153 42.6085 9.02025 
16.9814 42.0603 9.37668 16.0708 41.581 9.86558 15.2011 41.0571 10.2522 
14.4721 40.4107 10.4494 19.464 43.121 7.5288 18.4781 43.2095 7.91802 
17.7233 42.9694 8.26523 17.0631 42.413 8.55962 16.2495 41.8326 8.91681 
15.3004 41.3462 9.35888 14.4494 40.82 9.73341 13.795 40.2261 9.98004 
18.9431 43.1601 5.65586 18.3977 42.9105 5.30458 17.9832 43.0845 6.15891 
17.9808 42.1243 5.35458 17.6056 42.495 5.90857 17.256 42.655 6.7798 
17.5745 40.9851 5.56504 17.293 41.5008 5.99175 16.8726 41.8319 6.53078 
16.5514 42.0092 7.22862 16.9411 39.9653 5.63499 16.7955 40.5258 6.08649 
16.3986 40.9387 6.49431 15.9369 41.2503 6.94061 15.6449 41.448 7.56646 
16.0461 39.2005 5.57814 15.9393 39.8118 5.95923 15.6636 40.2857 6.40159 
15.2212 40.6273 6.83592 14.8482 40.8882 7.34384 14.6539 41.0423 8.02946 
15.1633 38.4176 5.64239 14.9179 39.0875 5.80329 14.6778 39.6814 6.15546 
14.3707 40.1084 6.66054 14.0687 40.3941 7.24726 13.8844 40.576 7.88045 
13.8183 40.6366 8.56592 14.5363 37.4735 5.91391 14.1154 38.1207 5.9113 
13.7498 38.7909 6.02384 13.4641 39.3715 6.37977 13.2606 39.7912 6.99315 
13.1537 40.0522 7.70866 13.1365 40.1702 8.38377 13.1804 40.1524 8.99948 
12.043 39.1344 9.32805 11.8598 39.1138 8.63766 11.4159 38.4888 9.34801 
11.7417 38.92 7.84661 11.2504 38.3535 8.55769 10.9469 37.6448 9.44181 
11.7683 38.504 7.0853 11.2245 38.0128 7.77363 10.9136 37.3495 8.71097 
10.6865 36.5625 9.6198 11.9994 37.8927 6.6149 11.4089 37.4576 7.19641 
11.0405 36.8787 8.1045 10.7993 36.0774 9.07953 10.4854 35.2543 9.84922 
12.4359 37.1942 6.53618 11.8064 36.7714 6.9773 11.3244 36.2775 7.69112 
10.9958 35.5166 8.61805 10.6806 34.6327 9.45743 10.2954 33.8653 10.1526 
[...]
POINT_DATA 1002
FIELD FieldData 4
_paraPhi 1 1002 double
6.2831853072 3.1415926536 6.2831853072 3.1415926536 4.7123889804 4.7123889804 1.5707963268 1.5707963268 3.6951670125 
5.7296109483 2.5880182947 0.5535743589 6.2831853072 6.2831853072 6.2831853072 6.2831853072 3.1415926536 3.1415926536 
3.1415926536 3.1415926536 3.1415926536 6.1053039672 5.898798347 5.6768734901 5.4599499503 5.2659633393 5.1032165617 
4.9713148346 4.8656852733 4.7809517865 0.17788134 0.38438696014 0.60631181711 0.82323535693 1.0172219679 1.1799687454 
1.3118704726 1.4175000338 1.5022335207 6.1892828907 6.1070320098 6.035312792 5.9728339911 5.9183214791 5.8706119594 
5.8286879411 5.7916808611 5.7588591896 0.093902416448 0.17615329733 0.2478725152 0.31035131605 0.36486382811 0.41257334776 
0.45449736604 0.4915044461 0.52432611754 3.3194739936 3.5259796137 3.7479044707 3.9648280105 4.1588146215 4.321561399 
4.4534631262 4.5590926874 4.6438261743 2.9637113136 2.7572056934 2.5352808365 2.3183572967 2.1243706857 1.9616239082 
1.829722181 1.7240926197 1.6393591329 3.23549507 3.3177459509 3.3894651688 3.4519439696 3.5064564817 3.5541660013 
3.5960900196 3.6330970997 3.6659187711 3.0476902371 2.9654393563 2.8937201384 2.8312413375 2.7767288255 2.7290193058 
2.6870952876 2.6500882075 2.617266536 6.2831853072 6.2831853072 6.2831853072 6.2831853072 3.1415926536 3.1415926536 
3.1415926536 3.1415926536 3.1415926536 6.1053039672 5.898798347 5.6768734901 5.4599499503 5.2659633393 5.1032165617 
4.9713148346 4.8656852733 4.7809517865 0.17788134 0.38438696014 0.60631181711 0.82323535693 1.0172219679 1.1799687454 
1.3118704726 1.4175000338 1.5022335207 6.1892828907 6.1070320098 6.035312792 5.9728339911 5.9183214791 5.8706119594 
5.8286879411 5.7916808611 5.7588591896 0.093902416448 0.17615329733 0.2478725152 0.31035131605 0.36486382811 0.41257334776 
0.45449736604 0.4915044461 0.52432611754 3.3194739936 3.5259796137 3.7479044707 3.9648280105 4.1588146215 4.321561399 
4.4534631262 4.5590926874 4.6438261743 2.9637113136 2.7572056934 2.5352808365 2.3183572967 2.1243706857 1.9616239082 
1.829722181 1.7240926197 1.6393591329 3.23549507 3.3177459509 3.3894651688 3.4519439696 3.5064564817 3.5541660013 
3.5960900196 3.6330970997 3.6659187711 3.0476902371 2.9654393563 2.8937201384 2.8312413375 2.7767288255 2.7290193058 
2.6870952876 2.6500882075 2.617266536 4.7123889804 4.7123889804 4.7123889804 4.7123889804 4.7123889804 4.7123889804 
4.7123889804 4.7123889804 4.7123889804 4.6087898617 4.4991390697 4.3857031936 4.2712800401 4.1588146215 4.0509635631 
3.94975894 3.8564636551 3.7716124825 4.8159880991 4.9256388911 5.0390747672 5.1534979207 5.2659633393 5.3738143976 
5.4750190208 5.5683143056 5.6531654782 4.6087898617 4.4991390697 4.3857031936 4.2712800401 4.1588146215 4.0509635631 
3.94975894 3.8564636551 3.7716124825 4.8159880991 4.9256388911 5.0390747672 5.1534979207 5.2659633393 5.3738143976 
5.4750190208 5.5683143056 5.6531654782 1.5707963268 1.5707963268 1.5707963268 1.5707963268 1.5707963268 1.5707963268 
1.5707963268 1.5707963268 1.5707963268 1.6743954455 1.7840462375 1.8974821136 2.0119052671 2.1243706857 2.232221744 
2.3334263672 2.426721652 2.5115728246 1.4671972081 1.3575464161 1.24411054 1.1296873865 1.0172219679 0.90937090954 
0.80816628637 0.71487100155 0.63001982895 1.6743954455 1.7840462375 1.8974821136 2.0119052671 2.1243706857 2.232221744 
2.3334263672 2.426721652 2.5115728246 1.4671972081 1.3575464161 1.24411054 1.1296873865 1.0172219679 0.90937090954 
0.80816628637 0.71487100155 0.63001982895 3.6007720849 3.4966939854 3.3839471039 3.2645756454 3.1415926536 3.0186096618 
2.8992382033 2.7864913217 2.6824132222 5.8240058758 5.9280839753 6.0408308569 6.1602023154 6.2831853072 0.12298299178 
0.2423544503 0.35510133185 0.45917943135 6.0560271438 5.7885595667 5.9702140275 5.5125918794 5.6029703303 5.7885595667 
5.2659633393 5.2659633393 5.2659633393 5.2659633393 5.0674903122 5.0120975802 4.9155579264 4.7123889804 4.1588146215 
4.9155579264 4.8353719722 4.7123889804 4.5092200343 4.1588146215 3.6362183941 4.8004512023 4.7123889804 4.5894059886 
4.4126803806 4.1588146215 3.8218076305 3.4545639333 4.7123889804 4.6243267584 4.5092200343 4.3572876485 4.1588146215 
3.9121860814 3.6362183941 3.368750817 6.0174235957 5.9434319871 5.8263323547 5.8809213739 5.7674481418 5.6279784266 
5.8278025282 5.718968232 5.5891129425 5.4372443565 5.7823484065 5.678536687 5.5575666702 5.4192596322 5.2659633393 
5.743164462 5.6444075337 5.5314983644 5.4046708639 5.2659633393 5.1195510325 5.7091357773 5.6152775188 5.5096229709 
5.3926039573 5.2659633393 5.1329233157 4.9978930058 5.6793730533 5.5901633916 5.4910209005 5.3824597928 5.2659633393 
5.1440684722 5.0201624502 4.8979782167 5.5683143056 5.4750190208 5.4750190208 5.3738143976 5.3738143976 5.3738143976 
5.2659633393 5.2659633393 5.2659633393 5.2659633393 5.1534979207 5.1534979207 5.1534979207 5.1534979207 5.1534979207 
5.0390747672 5.0390747672 5.0390747672 5.0390747672 5.0390747672 5.0390747672 4.9256388911 4.9256388911 4.9256388911 
4.9256388911 4.9256388911 4.9256388911 4.9256388911 4.8159880991 4.8159880991 4.8159880991 4.8159880991 4.8159880991 
4.8159880991 4.8159880991 4.8159880991 4.6087898617 4.6087898617 4.4991390697 4.6087898617 4.4991390697 4.3857031936 
4.6087898617 4.4991390697 4.3857031936 4.2712800401 4.6087898617 4.4991390697 4.3857031936 4.2712800401 4.1588146215 
4.6087898617 4.4991390697 4.3857031936 4.2712800401 4.1588146215 4.0509635631 4.6087898617 4.4991390697 4.3857031936 
4.2712800401 4.1588146215 4.0509635631 3.94975894 4.6087898617 4.4991390697 4.3857031936 4.2712800401 4.1588146215 
4.0509635631 3.94975894 3.8564636551 4.526799744 4.4046155105 4.426884955 4.2807094886 4.2918546451 4.3052269283 
4.1588146215 4.1588146215 4.1588146215 4.1588146215 4.042318168 4.0321740035 4.0201070968 4.0055183285 3.9875336042 
3.9337570603 3.9151549899 3.8932795963 3.8672112905 3.8356650183 3.7967995342 3.8346145692 3.809500442 3.7803704271 
3.7462412737 3.7058097288 3.657329819 3.5984456061 3.7454049075 3.7156421835 3.6816134988 3.6424295543 3.5969754326 
3.5438565869 3.4813459737 3.4073543651 3.5642842451 3.4524645613 3.5233842518 3.3320300872 3.403123212 3.4773852225 
3.20576226 3.2746326772 3.348015857 3.4255060145 3.0774230472 3.1415926536 3.2112816139 3.2864685043 3.3668817272 
2.95115522 3.00855263 3.0719036933 3.1415926536 3.2178377658 3.3005964304 2.8307207459 2.8800620952 2.9351694502 
2.9967168029 3.0653475414 3.1415926536 3.225752376 2.718901062 2.7598010554 2.8058000847 2.8576792927 2.91630358 
2.9825888767 3.0574329311 3.1415926536 3.5642842451 3.5233842518 3.4524645613 3.4773852225 3.403123212 3.3320300872 
3.4255060145 3.348015857 3.2746326772 3.20576226 3.3668817272 3.2864685043 3.2112816139 3.1415926536 3.0774230472 
3.3005964304 3.2178377658 3.1415926536 3.0719036933 3.00855263 2.95115522 3.225752376 3.1415926536 3.0653475414 
2.9967168029 2.9351694502 2.8800620952 2.8307207459 3.1415926536 3.0574329311 2.9825888767 2.91630358 2.8576792927 
2.8058000847 2.7598010554 2.718901062 4.526799744 4.426884955 4.4046155105 4.3052269283 4.2918546451 4.2807094886 
4.1588146215 4.1588146215 4.1588146215 4.1588146215 3.9875336042 4.0055183285 4.0201070968 4.0321740035 4.042318168 
3.7967995342 3.8356650183 3.8672112905 3.8932795963 3.9151549899 3.9337570603 3.5984456061 3.657329819 3.7058097288 
3.7462412737 3.7803704271 3.809500442 3.8346145692 3.4073543651 3.4813459737 3.5438565869 3.5969754326 3.6424295543 
3.6816134988 3.7156421835 3.7454049075 4.7123889804 4.8004512023 4.6243267584 4.9155579264 4.7123889804 4.5092200343 
5.0674903122 4.8353719722 4.5894059886 4.3572876485 5.2659633393 5.0120975802 4.7123889804 4.4126803806 4.1588146215 
5.5125918794 5.2659633393 4.9155579264 4.5092200343 4.1588146215 3.9121860814 5.7885595667 5.6029703303 5.2659633393 
4.7123889804 4.1588146215 3.8218076305 3.6362183941 6.0560271438 5.9702140275 5.7885595667 5.2659633393 4.1588146215 
3.6362183941 3.4545639333 3.368750817 0.22715816343 0.49462574053 0.3129712797 0.77059342779 0.68021497688 0.49462574053 
1.0172219679 1.0172219679 1.0172219679 1.0172219679 1.2156949949 1.271087727 1.3676273807 1.5707963268 2.1243706857 
1.3676273807 1.447813335 1.5707963268 1.7739652728 2.1243706857 2.6469669131 1.4827341049 1.5707963268 1.6937793186 
1.8705049266 2.1243706857 2.4613776767 2.8286213739 1.5707963268 1.6588585487 1.7739652728 1.9258976586 2.1243706857 
2.3709992258 2.6469669131 2.9144344902 1.7563855631 1.8785697967 1.8563003522 2.0024758186 1.9913306621 1.9779583789 
2.1243706857 2.1243706857 2.1243706857 2.1243706857 2.2408671392 2.2510113037 2.2630782103 2.2776669786 2.295651703 
2.3494282469 2.3680303173 2.3899057108 2.4159740166 2.4475202889 2.486385773 2.448570738 2.4736848652 2.5028148801 
2.5369440334 2.5773755784 2.6258554882 2.6847397011 2.5377803997 2.5675431237 2.6015718084 2.6407557529 2.6862098746 
2.7393287203 2.8018393335 2.8758309421 1.6743954455 1.6743954455 1.7840462375 1.6743954455 1.7840462375 1.8974821136 
1.6743954455 1.7840462375 1.8974821136 2.0119052671 1.6743954455 1.7840462375 1.8974821136 2.0119052671 2.1243706857 
1.6743954455 1.7840462375 1.8974821136 2.0119052671 2.1243706857 2.232221744 1.6743954455 1.7840462375 1.8974821136 
2.0119052671 2.1243706857 2.232221744 2.3334263672 1.6743954455 1.7840462375 1.8974821136 2.0119052671 2.1243706857 
2.232221744 2.3334263672 2.426721652 1.4671972081 1.3575464161 1.4671972081 1.24411054 1.3575464161 1.4671972081 
1.1296873865 1.24411054 1.3575464161 1.4671972081 1.0172219679 1.1296873865 1.24411054 1.3575464161 1.4671972081 
0.90937090954 1.0172219679 1.1296873865 1.24411054 1.3575464161 1.4671972081 0.80816628637 0.90937090954 1.0172219679 
1.1296873865 1.24411054 1.3575464161 1.4671972081 0.71487100155 0.80816628637 0.90937090954 1.0172219679 1.1296873865 
1.24411054 1.3575464161 1.4671972081 0.60381225391 0.57404952988 0.69302191562 0.54002084522 0.66790778838 0.79216440667 
0.50083690068 0.63877777351 0.77356233629 0.90072551443 0.45538277901 0.60464862014 0.75168694275 0.89058134991 1.0172219679 
0.40226393329 0.56421707518 0.72561863695 0.87851444325 1.0172219679 1.139116835 0.33975332011 0.51573716537 0.69407236469 
0.86392567495 1.0172219679 1.1502619915 1.2630228569 0.26576171152 0.45685295248 0.6552068806 0.84594095064 1.0172219679 
1.1636342747 1.2852923014 1.3852070904 0.22715816343 0.3129712797 0.49462574053 0.49462574053 0.68021497688 0.77059342779 
1.0172219679 1.0172219679 1.0172219679 1.0172219679 2.1243706857 1.5707963268 1.3676273807 1.271087727 1.2156949949 
2.6469669131 2.1243706857 1.7739652728 1.5707963268 1.447813335 1.3676273807 2.8286213739 2.4613776767 2.1243706857 
1.8705049266 1.6937793186 1.5707963268 1.4827341049 2.9144344902 2.6469669131 2.3709992258 2.1243706857 1.9258976586 
1.7739652728 1.6588585487 1.5707963268 1.7563855631 1.8563003522 1.8785697967 1.9779583789 1.9913306621 2.0024758186 
2.1243706857 2.1243706857 2.1243706857 2.1243706857 2.295651703 2.2776669786 2.2630782103 2.2510113037 2.2408671392 
2.486385773 2.4475202889 2.4159740166 2.3899057108 2.3680303173 2.3494282469 2.6847397011 2.6258554882 2.5773755784 
2.5369440334 2.5028148801 2.4736848652 2.448570738 2.8758309421 2.8018393335 2.7393287203 2.6862098746 2.6407557529 
2.6015718084 2.5675431237 2.5377803997 5.8604937156 5.901393709 5.9723133995 5.9473927383 6.0216547488 6.0927478736 
5.9992719463 6.0767621038 6.1501452836 6.2190157008 6.0578962336 6.1383094565 6.2134963469 0 0.064169606361 
6.1241815303 6.206940195 6.2831853072 0.069688960264 0.13304002361 0.19043743361 6.1990255847 0 0.07624511221 
0.14487585072 0.20642320337 0.26153055843 0.3108719077 0 0.084159722458 0.15900377685 0.22528907359 0.28391336087 
0.3357925689 0.38179159818 0.42269159155 5.8604937156 5.9723133995 5.901393709 6.0927478736 6.0216547488 5.9473927383 
6.2190157008 6.1501452836 6.0767621038 5.9992719463 0.064169606361 0 6.2134963469 6.1383094565 6.0578962336 
0.19043743361 0.13304002361 0.069688960264 6.2831853072 6.206940195 6.1241815303 0.3108719077 0.26153055843 0.20642320337 
0.14487585072 0.07624511221 6.2831853072 6.1990255847 0.42269159155 0.38179159818 0.3357925689 0.28391336087 0.22528907359 
0.15900377685 0.084159722458 0 5.6793730533 5.7091357773 5.5901633916 5.743164462 5.6152775188 5.4910209005 
5.7823484065 5.6444075337 5.5096229709 5.3824597928 5.8278025282 5.678536687 5.5314983644 5.3926039573 5.2659633393 
5.8809213739 5.718968232 5.5575666702 5.4046708639 5.2659633393 5.1440684722 5.9434319871 5.7674481418 5.5891129425 
5.4192596322 5.2659633393 5.1329233157 5.0201624502 6.0174235957 5.8263323547 5.6279784266 5.4372443565 5.2659633393 
5.1195510325 4.9978930058 4.8979782167 1.3852070904 1.2852923014 1.2630228569 1.1636342747 1.1502619915 1.139116835 
1.0172219679 1.0172219679 1.0172219679 1.0172219679 0.84594095064 0.86392567495 0.87851444325 0.89058134991 0.90072551443 
0.6552068806 0.69407236469 0.72561863695 0.75168694275 0.77356233629 0.79216440667 0.45685295248 0.51573716537 0.56421707518 
0.60464862014 0.63877777351 0.66790778838 0.69302191562 0.26576171152 0.33975332011 0.40226393329 0.45538277901 0.50083690068 
0.54002084522 0.57404952988 0.60381225391 
_paraPhiHalf 1 1002 double
0 3.1415926536 0 3.1415926536 1.5707963268 1.5707963268 1.5707963268 1.5707963268 2.5880182947 
0.5535743589 2.5880182947 0.5535743589 0 0 0 0 3.1415926536 3.1415926536 
3.1415926536 3.1415926536 3.1415926536 0.17788134 0.38438696014 0.60631181711 0.82323535693 1.0172219679 1.1799687454 
1.3118704726 1.4175000338 1.5022335207 0.17788134 0.38438696014 0.60631181711 0.82323535693 1.0172219679 1.1799687454 
1.3118704726 1.4175000338 1.5022335207 0.093902416448 0.17615329733 0.2478725152 0.31035131605 0.36486382811 0.41257334776 
0.45449736604 0.4915044461 0.52432611754 0.093902416448 0.17615329733 0.2478725152 0.31035131605 0.36486382811 0.41257334776 
0.45449736604 0.4915044461 0.52432611754 2.9637113136 2.7572056934 2.5352808365 2.3183572967 2.1243706857 1.9616239082 
1.829722181 1.7240926197 1.6393591329 2.9637113136 2.7572056934 2.5352808365 2.3183572967 2.1243706857 1.9616239082 
1.829722181 1.7240926197 1.6393591329 3.0476902371 2.9654393563 2.8937201384 2.8312413375 2.7767288255 2.7290193058 
2.6870952876 2.6500882075 2.617266536 3.0476902371 2.9654393563 2.8937201384 2.8312413375 2.7767288255 2.7290193058 
2.6870952876 2.6500882075 2.617266536 0 0 0 0 3.1415926536 3.1415926536 
3.1415926536 3.1415926536 3.1415926536 0.17788134 0.38438696014 0.60631181711 0.82323535693 1.0172219679 1.1799687454 
1.3118704726 1.4175000338 1.5022335207 0.17788134 0.38438696014 0.60631181711 0.82323535693 1.0172219679 1.1799687454 
1.3118704726 1.4175000338 1.5022335207 0.093902416448 0.17615329733 0.2478725152 0.31035131605 0.36486382811 0.41257334776 
0.45449736604 0.4915044461 0.52432611754 0.093902416448 0.17615329733 0.2478725152 0.31035131605 0.36486382811 0.41257334776 
0.45449736604 0.4915044461 0.52432611754 2.9637113136 2.7572056934 2.5352808365 2.3183572967 2.1243706857 1.9616239082 
1.829722181 1.7240926197 1.6393591329 2.9637113136 2.7572056934 2.5352808365 2.3183572967 2.1243706857 1.9616239082 
1.829722181 1.7240926197 1.6393591329 3.0476902371 2.9654393563 2.8937201384 2.8312413375 2.7767288255 2.7290193058 
2.6870952876 2.6500882075 2.617266536 3.0476902371 2.9654393563 2.8937201384 2.8312413375 2.7767288255 2.7290193058 
2.6870952876 2.6500882075 2.617266536 1.5707963268 1.5707963268 1.5707963268 1.5707963268 1.5707963268 1.5707963268 
1.5707963268 1.5707963268 1.5707963268 1.6743954455 1.7840462375 1.8974821136 2.0119052671 2.1243706857 2.232221744 
2.3334263672 2.426721652 2.5115728246 1.4671972081 1.3575464161 1.24411054 1.1296873865 1.0172219679 0.90937090954 
0.80816628637 0.71487100155 0.63001982895 1.6743954455 1.7840462375 1.8974821136 2.0119052671 2.1243706857 2.232221744 
2.3334263672 2.426721652 2.5115728246 1.4671972081 1.3575464161 1.24411054 1.1296873865 1.0172219679 0.90937090954 
0.80816628637 0.71487100155 0.63001982895 1.5707963268 1.5707963268 1.5707963268 1.5707963268 1.5707963268 1.5707963268 
1.5707963268 1.5707963268 1.5707963268 1.6743954455 1.7840462375 1.8974821136 2.0119052671 2.1243706857 2.232221744 
2.3334263672 2.426721652 2.5115728246 1.4671972081 1.3575464161 1.24411054 1.1296873865 1.0172219679 0.90937090954 
0.80816628637 0.71487100155 0.63001982895 1.6743954455 1.7840462375 1.8974821136 2.0119052671 2.1243706857 2.232221744 
2.3334263672 2.426721652 2.5115728246 1.4671972081 1.3575464161 1.24411054 1.1296873865 1.0172219679 0.90937090954 
0.80816628637 0.71487100155 0.63001982895 2.6824132222 2.7864913217 2.8992382033 3.0186096618 3.1415926536 3.0186096618 
2.8992382033 2.7864913217 2.6824132222 0.45917943135 0.35510133185 0.2423544503 0.12298299178 0 0.12298299178 
0.2423544503 0.35510133185 0.45917943135 0.22715816343 0.49462574053 0.3129712797 0.77059342779 0.68021497688 0.49462574053 
1.0172219679 1.0172219679 1.0172219679 1.0172219679 1.2156949949 1.271087727 1.3676273807 1.5707963268 2.1243706857 
1.3676273807 1.447813335 1.5707963268 1.7739652728 2.1243706857 2.6469669131 1.4827341049 1.5707963268 1.6937793186 
1.8705049266 2.1243706857 2.4613776767 2.8286213739 1.5707963268 1.6588585487 1.7739652728 1.9258976586 2.1243706857 
2.3709992258 2.6469669131 2.9144344902 0.26576171152 0.33975332011 0.45685295248 0.40226393329 0.51573716537 0.6552068806 
0.45538277901 0.56421707518 0.69407236469 0.84594095064 0.50083690068 0.60464862014 0.72561863695 0.86392567495 1.0172219679 
0.54002084522 0.63877777351 0.75168694275 0.87851444325 1.0172219679 1.1636342747 0.57404952988 0.66790778838 0.77356233629 
0.89058134991 1.0172219679 1.1502619915 1.2852923014 0.60381225391 0.69302191562 0.79216440667 0.90072551443 1.0172219679 
1.139116835 1.2630228569 1.3852070904 0.71487100155 0.80816628637 0.80816628637 0.90937090954 0.90937090954 0.90937090954 
1.0172219679 1.0172219679 1.0172219679 1.0172219679 1.1296873865 1.1296873865 1.1296873865 1.1296873865 1.1296873865 
1.24411054 1.24411054 1.24411054 1.24411054 1.24411054 1.24411054 1.3575464161 1.3575464161 1.3575464161 
1.3575464161 1.3575464161 1.3575464161 1.3575464161 1.4671972081 1.4671972081 1.4671972081 1.4671972081 1.4671972081 
1.4671972081 1.4671972081 1.4671972081 1.6743954455 1.6743954455 1.7840462375 1.6743954455 1.7840462375 1.8974821136 
1.6743954455 1.7840462375 1.8974821136 2.0119052671 1.6743954455 1.7840462375 1.8974821136 2.0119052671 2.1243706857 
1.6743954455 1.7840462375 1.8974821136 2.0119052671 2.1243706857 2.232221744 1.6743954455 1.7840462375 1.8974821136 
2.0119052671 2.1243706857 2.232221744 2.3334263672 1.6743954455 1.7840462375 1.8974821136 2.0119052671 2.1243706857 
2.232221744 2.3334263672 2.426721652 1.7563855631 1.8785697967 1.8563003522 2.0024758186 1.9913306621 1.9779583789 
2.1243706857 2.1243706857 2.1243706857 2.1243706857 2.2408671392 2.2510113037 2.2630782103 2.2776669786 2.295651703 
2.3494282469 2.3680303173 2.3899057108 2.4159740166 2.4475202889 2.486385773 2.448570738 2.4736848652 2.5028148801 
2.5369440334 2.5773755784 2.6258554882 2.6847397011 2.5377803997 2.5675431237 2.6015718084 2.6407557529 2.6862098746 
2.7393287203 2.8018393335 2.8758309421 2.718901062 2.8307207459 2.7598010554 2.95115522 2.8800620952 2.8058000847 
3.0774230472 3.00855263 2.9351694502 2.8576792927 3.0774230472 3.1415926536 3.0719036933 2.9967168029 2.91630358 
2.95115522 3.00855263 3.0719036933 3.1415926536 3.0653475414 2.9825888767 2.8307207459 2.8800620952 2.9351694502 
2.9967168029 3.0653475414 3.1415926536 3.0574329311 2.718901062 2.7598010554 2.8058000847 2.8576792927 2.91630358 
2.9825888767 3.0574329311 3.1415926536 2.718901062 2.7598010554 2.8307207459 2.8058000847 2.8800620952 2.95115522 
2.8576792927 2.9351694502 3.00855263 3.0774230472 2.91630358 2.9967168029 3.0719036933 3.1415926536 3.0774230472 
2.9825888767 3.0653475414 3.1415926536 3.0719036933 3.00855263 2.95115522 3.0574329311 3.1415926536 3.0653475414 