# vtk DataFile Version 5.1
vtk output
ASCII
DATASET POLYDATA
POINTS 100 float
27.2262 42.2117 11.3522 27.2159 42.2171 11.3576 27.1832 42.2301 11.3695 
27.1284 42.2479 11.3869 27.0523 42.2666 11.4084 26.956 42.2812 11.4324 
26.8408 42.2862 11.4569 26.7087 42.2764 11.4802 26.5617 42.247 11.5008 
26.4023 42.1943 11.5174 26.2332 42.1163 11.5294 26.0571 42.0121 11.5368 
25.8764 41.8828 11.5399 25.6934 41.7305 11.5394 25.5099 41.5586 11.5365 
25.327 41.3712 11.5322 25.1453 41.1723 11.5278 24.9644 40.9662 11.5242 
24.7838 40.7561 11.5219 24.6021 40.5448 11.5212 24.4176 40.3341 11.5222 
24.2288 40.1247 11.5246 24.0341 39.9167 11.5277 23.8322 39.7096 11.5313 
23.6225 39.5023 11.5348 23.4049 39.294 11.538 23.1797 39.0839 11.5411 
22.9478 38.8717 11.5445 22.7107 38.6574 11.5491 22.4697 38.4417 11.5558 
22.2264 38.2257 11.5659 21.9821 38.0107 11.5805 21.7375 37.7981 11.6007 
21.493 37.5892 11.6272 21.2486 37.3851 11.6605 21.0034 37.1863 11.7005 
20.7566 36.993 11.7467 20.507 36.8048 11.7982 20.2533 36.6208 11.8538 
19.9947 36.44 11.9122 19.7308 36.2613 11.9722 19.4615 36.0836 12.0324 
19.1875 35.9061 12.0922 18.91 35.7284 12.1509 18.6304 35.5503 12.2086 
18.3506 35.3723 12.2656 18.0722 35.1948 12.3224 17.7968 35.0187 12.3799 
17.5251 34.8449 12.439 17.2576 34.674 12.5005 16.9937 34.5065 12.5648 
16.7323 34.3426 12.6321 16.4716 34.1821 12.7023 16.2095 34.0243 12.7748 
15.9437 33.8685 12.8486 15.6722 33.7139 12.9226 15.393 33.5597 12.9957 
15.1053 33.4052 13.0668 14.8085 33.2502 13.1351 14.5032 33.0948 13.2003 
14.1907 32.9395 13.2623 13.8727 32.7851 13.3219 13.5517 32.6327 13.3802 
13.23 32.4832 13.4386 12.9099 32.3378 13.499 12.5935 32.1972 13.5633 
12.2823 32.0615 13.6333 11.9773 31.9308 13.7106 11.6789 31.8044 13.7961 
11.3873 31.6812 13.8906 11.102 31.56 13.994 10.8229 31.4393 14.1056 
10.5498 31.3177 14.2243 10.2829 31.1941 14.3485 10.0227 31.0677 14.4761 
9.77032 30.9383 14.605 9.52701 30.806 14.7331 9.2943 30.6714 14.8583 
9.07361 30.5353 14.9787 8.86599 30.3987 15.0929 8.67188 30.2624 15.1997 
8.49089 30.1271 15.2983 8.3217 29.9929 15.3881 8.16208 29.8596 15.4691 
8.00903 29.7266 15.5412 7.85904 29.5929 15.6046 7.70855 29.4574 15.6598 
7.55433 29.3192 15.7072 7.39395 29.1776 15.7472 7.22625 29.0327 15.7804 
7.05158 28.8854 15.8075 6.87202 28.7376 15.8289 6.69134 28.5922 15.8453 
6.51476 28.4526 15.8573 6.34864 28.3234 15.8657 6.19989 28.209 15.8711 
6.07537 28.114 15.874 5.98127 28.0424 15.875 5.92252 27.9975 15.8746 
5.90228 27.9814 15.8729 
LINES 2 100
OFFSETS vtktypeint64
0 100 
CONNECTIVITY vtktypeint64
0 1 2 3 4 5 6 7 8 
9 10 11 12 13 14 15 16 17 
18 19 20 21 22 23 24 25 26 
27 28 29 30 31 32 33 34 35 
36 37 38 39 40 41 42 43 44 
45 46 47 48 49 50 51 52 53 
54 55 56 57 58 59 60 61 62 
63 64 65 66 67 68 69 70 71 
72 73 74 75 76 77 78 79 80 
81 82 83 84 85 86 87 88 89 
90 91 92 93 94 95 96 97 98 
99 
POINT_DATA 100
FIELD FieldData 3
_theta 1 100 double
0 0.031733259127 0.063466518254 0.095199777382 0.12693303651 0.15866629564 0.19039955476 0.22213281389 0.25386607302 
0.28559933214 0.31733259127 0.3490658504 0.38079910953 0.41253236865 0.44426562778 0.47599888691 0.50773214603 0.53946540516 
0.57119866429 0.60293192342 0.63466518254 0.66639844167 0.6981317008 0.72986495992 0.76159821905 0.79333147818 0.82506473731 
0.85679799643 0.88853125556 0.92026451469 0.95199777382 0.98373103294 1.0154642921 1.0471975512 1.0789308103 1.1106640695 
1.1423973286 1.1741305877 1.2058638468 1.237597106 1.2693303651 1.3010636242 1.3327968833 1.3645301425 1.3962634016 
1.4279966607 1.4597299198 1.491463179 1.5231964381 1.5549296972 1.5866629564 1.6183962155 1.6501294746 1.6818627337 
1.7135959929 1.745329252 1.7770625111 1.8087957702 1.8405290294 1.8722622885 1.9039955476 1.9357288068 1.9674620659 
1.999195325 2.0309285841 2.0626618433 2.0943951024 2.1261283615 2.1578616206 2.1895948798 2.2213281389 2.253061398 
2.2847946572 2.3165279163 2.3482611754 2.3799944345 2.4117276937 2.4434609528 2.4751942119 2.506927471 2.5386607302 
2.5703939893 2.6021272484 2.6338605076 2.6655937667 2.6973270258 2.7290602849 2.7607935441 2.7925268032 2.8242600623 
2.8559933214 2.8877265806 2.9194598397 2.9511930988 2.982926358 3.0146596171 3.0463928762 3.0781261353 3.1098593945 
3.1415926536 
_radius 1 100 double
4.4408920985e-14 0.34686046995 0.68354840773 1.0011405587 1.2930832022 1.5559701518 1.7898774004 1.9981915431 2.1869415519 
2.3637294891 2.5364429913 2.7119961653 2.8953514872 3.0889966986 3.2929016379 3.504834971 3.7208680465 3.9359448654 
4.1444787631 4.3409743454 4.5206570957 4.6800554113 4.8174531665 4.9331297934 5.0293292187 5.1099417598 5.1799349134 
5.2446193572 5.3088736651 5.3764635846 5.4495725392 5.5286134258 5.6123330082 5.698167193 5.7827693823 5.8626177032 
5.9346083883 5.9965570957 6.0475500534 6.0881062991 6.1201303937 6.1466556742 6.1714039969 6.1982168201 6.2304380612 
6.2703436409 6.3187101715 6.3745952396 6.4353694744 6.4970034673 6.5545754781 6.6029311531 6.6373985112 6.6544478078 
6.6521926253 6.6306551448 6.5917581835 6.5390501292 6.4772084442 6.4113973418 6.3465724359 6.2868286065 6.2348775448 
6.1917200313 6.1565482401 6.1268808349 6.0989048717 6.0679775775 6.0292272416 5.9781822752 5.911349562 5.8266608742 
5.7237151997 5.6037691012 5.4694655704 5.3243383977 5.1721744815 5.0163491846 4.8592585863 4.7019513497 4.5440162478 
4.3837240445 4.2183733716 4.0447628876 3.8597080569 3.66053175 3.4454721543 3.2139630816 2.9667525913 2.705841769 
2.434249457 2.1556369437 1.8738505486 1.5924523385 1.3143083937 1.04129333 0.77415099999 0.5125229237 0.25512153886 
6.3982433755e-14 
_area 1 100 double
0 0.33294909715 1.3018929067 2.8230850719 4.7753288031 7.0228984873 9.4401092214 11.933006605 14.454599772 
17.011071517 19.657681087 22.484944405 25.59758483 29.089934126 33.022132586 37.401640482 42.173313709 47.219334814 
52.36960374 57.423039638 62.178289916 66.468633924 70.19273624 73.33250764 75.952388567 78.180156283 80.175715483 
82.097874401 84.077722422 86.202940493 88.514153778 91.015490872 93.762373088 96.72050788 99.642443888 102.36404741 
104.76077974 106.74555074 108.28097378 109.46250643 110.34689085 111.00076663 111.58295187 112.25826184 113.17272713 
114.41925762 116.04582113 118.04199576 120.34958596 122.8427726 125.32414773 127.57228625 129.38183361 130.5892805 
131.09197507 130.85873665 129.93104121 128.41604575 126.47299913 124.29330732 122.07431858 119.98941025 118.16127174 
116.64622821 115.43138725 114.44036071 113.54397925 112.57539667 111.34987963 109.68875546 107.44527495 104.5281548 
100.9174351 96.668084657 91.899663481 86.774307404 81.468629781 76.146354854 70.9372159 65.924830079 61.14355969 
56.582953765 52.198160035 47.924715717 43.695586165 39.457509514 35.183550285 30.879702726 26.585028208 22.36639522 
18.309695259 14.509214555 11.056261262 8.0280761158 5.4786281907 3.4333747864 1.8897522621 0.82401286812 0.20331659097 
7.1054273576e-14 
