# vtk DataFile Version 5.1
vtk output
ASCII
DATASET POLYDATA
POINTS 1002 float
-5.85536 0.112881 -4.04994 4.69559 0.235046 -3.20349 -5.78198 0.441133 5.00223 
5.43955 -0.158516 2.90069 0.679208 6.54071 -2.71489 -0.219225 6.15656 2.71551 
0.998947 -7.19787 -3.68082 0.552645 -5.53349 1.30529 9.84758 4.81302 0.424518 
-9.09293 4.26162 0.156711 8.96012 -4.9166 0.0252895 -9.97259 -3.96884 1.34332 
-4.86826 -0.136879 -4.60061 -3.7615 -0.353131 -5.10849 -2.59133 -0.391677 -5.1605 
-1.39883 -0.276079 -4.74267 -0.173969 -0.187556 -4.42248 1.09267 -0.204632 -4.55935 
2.31444 -0.210047 -4.74297 3.3427 -0.103868 -4.47909 4.11412 0.0732696 -3.84486 
-5.5807 0.695071 -3.99866 -5.11946 1.2337 -4.05267 -4.50974 1.70544 -4.21808 
-3.89254 2.2284 -4.44972 -3.33298 2.94533 -4.56319 -2.70087 3.80437 -4.34112 
-1.87048 4.6301 -3.82115 -0.925743 5.35174 -3.28188 -0.04673 5.99034 -2.91961 
-5.40995 -0.637765 -4.51686 -4.82867 -1.40042 -4.95071 -4.18814 -2.11372 -5.01664 
-3.52272 -2.8237 -4.71731 -2.73441 -3.61338 -4.48111 -1.76198 -4.49884 -4.57461 
-0.764947 -5.41854 -4.75126 0.0401935 -6.24782 -4.67308 0.602408 -6.85404 -4.27825 
-6.65057 0.650389 -3.70814 -7.44295 1.0376 -3.87199 -8.20475 1.28415 -4.28835 
-8.82014 1.55848 -4.196 -9.14018 1.94553 -3.30797 -9.20745 2.36798 -2.26166 
-9.23619 2.81413 -1.60217 -9.30047 3.34183 -1.13514 -9.28047 3.87691 -0.541528 
-6.54812 -0.156436 -3.88311 -7.26528 -0.506065 -3.82015 -8.01491 -0.902184 -3.77871 
-8.73062 -1.33818 -3.58917 -9.28178 -1.82259 -3.10298 -9.5994 -2.28724 -2.31003 
-9.74904 -2.65428 -1.33548 -9.84473 -2.98928 -0.334772 -9.93157 -3.42287 0.579153 
4.68797 0.882426 -3.39714 4.54953 1.61363 -3.58446 4.22517 2.3919 -3.77676 
3.85655 3.11098 -3.91111 3.59807 3.72893 -3.86047 3.30985 4.38209 -3.61561 
2.75211 5.16545 -3.33537 1.98506 5.90864 -3.13082 1.2561 6.37723 -2.95276 
4.35624 -0.456568 -3.30837 4.04952 -1.124 -3.32033 3.80945 -1.81145 -3.35493 
3.58925 -2.62892 -3.59555 3.26104 -3.57272 -3.95587 2.75457 -4.48139 -4.11688 
2.17064 -5.25609 -4.00987 1.66918 -5.94859 -3.85933 1.29853 -6.60654 -3.77955 
5.2664 0.781091 -2.79113 5.92478 1.36009 -2.47408 6.62943 1.92769 -2.24762 
7.29013 2.48049 -2.0268 7.89868 3.0233 -1.81058 8.54489 3.53397 -1.65902 
9.21128 3.99761 -1.45917 9.7152 4.39882 -1.00328 9.91854 4.6851 -0.300746 
5.03327 -0.111683 -2.77289 5.47917 -0.584711 -2.42351 6.03745 -1.12681 -2.05364 
6.58032 -1.61807 -1.57363 7.05128 -2.0554 -1.06424 7.57441 -2.57681 -0.660595 
8.18089 -3.22173 -0.41549 8.67833 -3.86745 -0.303205 8.92101 -4.42671 -0.206697 
-4.80035 0.473782 5.00073 -3.8651 0.441677 4.65793 -2.95156 0.425523 4.09238 
-1.88815 0.459504 3.61982 -0.565305 0.486171 3.36089 0.887514 0.438682 3.13564 
2.25058 0.318223 2.87271 3.43774 0.162183 2.72843 4.48669 -0.00250547 2.7738 
-5.46826 1.08858 5.13554 -5.07756 1.76998 5.24554 -4.58117 2.42133 5.08444 
-3.99745 2.99264 4.56444 -3.38442 3.54922 4.03585 -2.77913 4.19665 3.85174 
-2.16859 4.88128 3.82592 -1.53072 5.44587 3.59401 -0.871885 5.84545 3.15163 
-5.40017 -0.172075 4.90965 -4.95209 -0.835942 4.60171 -4.51841 -1.4739 4.10713 
-3.99806 -2.08304 3.67293 -3.21112 -2.76658 3.51111 -2.25717 -3.54521 3.40767 
-1.42927 -4.25585 2.95986 -0.779513 -4.76962 2.19565 -0.141421 -5.15069 1.5445 
-6.55413 0.696672 4.76801 -7.1805 0.856792 4.28978 -7.61496 1.01879 3.76211 
-7.9987 1.34565 3.29617 -8.46115 1.84853 2.86453 -8.89319 2.38049 2.48464 
-9.13163 2.88992 2.14428 -9.1988 3.42605 1.66443 -9.18361 3.93019 0.949327 
-6.64999 -0.0499716 4.8731 -7.59452 -0.64307 4.8489 -8.38218 -1.26127 4.89273 
-8.90359 -1.83194 4.76705 -9.3689 -2.43572 4.31515 -9.9898 -3.17786 3.70097 
-10.58 -3.88594 3.15327 -10.7815 -4.24668 2.65043 -10.5116 -4.20332 2.05317 
4.99878 0.448981 2.71782 4.50348 1.15615 2.62239 3.96393 1.88466 2.61539 
3.38513 2.57974 2.60171 2.81355 3.29044 2.55573 2.27883 4.03122 2.60476 
1.71922 4.68619 2.78986 1.07688 5.20028 2.93711 0.399298 5.66731 2.89913 
5.24985 -0.631673 3.01536 4.95785 -1.16607 3.06322 4.53835 -1.8037 2.9683 
4.03621 -2.50654 2.71218 3.49883 -3.16351 2.41021 2.90667 -3.72457 2.19958 
2.25413 -4.23199 2.05323 1.61548 -4.71152 1.8531 1.05326 -5.14727 1.58008 
6.13517 0.0615636 2.87018 6.87537 0.387782 2.79101 7.61054 0.846552 2.65978 
8.31581 1.35363 2.48142 8.96215 1.82974 2.30701 9.46911 2.3465 2.16908 
9.77561 2.99945 1.98678 9.90972 3.71805 1.63521 9.92688 4.34737 1.08611 
6.27644 -0.600414 3.09208 7.12367 -1.10468 3.15668 7.87557 -1.72003 3.04746 
8.45281 -2.42659 2.89407 8.87429 -3.14272 2.74743 9.16133 -3.78661 2.44974 
9.27181 -4.29232 1.91547 9.2201 -4.62749 1.25739 9.10048 -4.81873 0.604051 
0.779332 6.8729 -2.3831 0.878853 7.22768 -1.91987 0.890476 7.55661 -1.37617 
0.752698 7.69883 -0.805053 0.538416 7.62283 -0.142413 0.357608 7.49497 0.640697 
0.2014 7.36717 1.3782 0.0252641 7.10288 1.92605 -0.133449 6.65908 2.33843 
1.65657 6.93495 -2.74005 2.68154 7.16815 -2.76901 3.8323 7.41435 -2.78099 
5.09666 7.86363 -2.76368 6.27504 8.22872 -2.60967 7.21686 7.98238 -2.15375 
8.00943 7.15283 -1.42663 8.75141 6.23515 -0.670461 9.38635 5.48409 -0.0559541 
-0.294838 6.18822 -2.50258 -1.40219 5.79346 -2.25291 -2.58091 5.64886 -2.04311 
-3.70261 5.79626 -1.84206 -4.7474 5.91309 -1.4871 -5.82069 5.79195 -1.01467 
-6.90735 5.55601 -0.686912 -7.84357 5.27275 -0.52951 -8.55132 4.84505 -0.29052 
0.815475 6.18552 2.49187 1.90807 6.32343 2.29031 3.0446 6.48315 1.97677 
4.22139 6.42767 1.44374 5.377 6.08093 0.871006 6.45693 5.70106 0.610674 
7.49221 5.51677 0.714788 8.47889 5.42408 0.857108 9.2992 5.20908 0.756045 
-1.21227 6.49047 2.73288 -2.19832 6.76938 2.75434 -3.12787 6.81439 2.71693 
-4.08876 6.62314 2.51592 -5.14899 6.40313 2.16702 -6.17408 6.24194 1.79388 
-7.02707 5.9859 1.42922 -7.76543 5.52518 1.01602 -8.46683 4.91903 0.565569 
1.01769 -7.67588 -3.07014 0.935023 -8.19271 -2.21185 0.67957 -8.76948 -1.23369 
0.393777 -9.22616 -0.392585 0.374753 -9.19828 0.205599 0.652836 -8.54947 0.651682 
0.898947 -7.59145 0.972271 0.887875 -6.71704 1.12541 0.716184 -6.05372 1.18833 
1.5238 -6.98498 -3.0255 2.14564 -6.66213 -2.27726 2.93558 -6.40599 -1.56213 
3.80606 -6.24659 -0.943993 4.70142 -6.10708 -0.510056 5.74962 -6.01403 -0.4037 
6.94155 -5.98477 -0.567239 7.9683 -5.8489 -0.663663 8.60977 -5.46522 -0.442959 
0.408248 -7.49097 -3.85608 -0.422543 -7.42956 -3.77807 -1.52356 -6.94799 -3.38493 
-2.83648 -6.29927 -2.76164 -4.24868 -5.79778 -2.08411 -5.61162 -5.42281 -1.44215 
-6.81753 -4.98503 -0.771853 -7.90293 -4.51613 -0.0186711 -8.96005 -4.17265 0.731697 
1.57081 -5.8161 1.64109 2.56684 -6.22101 2.24486 3.56863 -6.58313 2.7395 
4.74147 -6.89931 2.92568 6.07732 -7.31729 2.94493 7.2441 -7.67239 2.75112 
7.99156 -7.52192 2.05595 8.42236 -6.78385 1.02994 8.72691 -5.81191 0.259605 
-0.467253 -5.70575 1.16733 -1.67258 -5.94708 1.25325 -2.88764 -6.051 1.44842 
-3.90951 -5.88155 1.5147 -4.83255 -5.66989 1.4067 -5.93866 -5.68944 1.36817 
-7.22227 -5.72526 1.52912 -8.39835 -5.39075 1.68971 -9.29997 -4.70415 1.62924 
10.2744 3.99842 0.453738 10.6413 3.01725 0.534547 11.0604 2.01328 0.563361 
11.4935 1.0291 0.302837 11.6269 -0.056492 -0.0816614 11.2028 -1.23433 -0.0378668 
10.4219 -2.29944 0.429999 9.7164 -3.19176 0.676582 9.26611 -4.04458 0.422982 
-9.76959 3.41861 0.317134 -10.4568 2.49565 0.504501 -11.0963 1.53034 0.57794 
-11.7049 0.57717 0.611215 -12.291 -0.360132 0.792205 -12.6593 -1.30511 1.05971 
-12.5307 -2.18081 1.22708 -11.8817 -2.88359 1.30706 -10.9501 -3.44576 1.3662 
-4.50059 0.454655 -4.57053 -3.94123 1.06021 -4.60796 -3.32774 0.294372 -5.05349 
-3.29945 1.67847 -4.7386 -2.74214 1.05725 -4.94119 -2.12681 0.35507 -4.94405 
-2.73089 2.36432 -4.8697 -2.12809 1.87371 -4.8296 -1.54723 1.26485 -4.5682 
-0.894048 0.530986 -4.3923 -2.16777 3.15586 -4.7433 -1.53441 2.64679 -4.67472 
-0.909051 2.15094 -4.2151 -0.275674 1.45803 -3.93318 0.421648 0.603431 -4.1556 
-1.38806 4.02574 -4.241 -0.777799 3.38519 -4.32128 -0.149063 2.84475 -3.97765 
0.452414 2.27435 -3.64876 1.10716 1.48074 -3.84429 1.78085 0.570259 -4.40038 
-0.404557 4.91195 -3.61164 0.228284 4.2056 -3.7972 0.8449 3.47826 -3.76132 
1.35044 2.89538 -3.63524 1.86531 2.27495 -3.73442 2.4735 1.45465 -4.13074 
3.0142 0.594161 -4.48391 0.530238 5.72581 -3.1661 1.23389 5.10355 -3.3522 
1.91458 4.27273 -3.51892 2.38344 3.54613 -3.68138 2.72054 2.97058 -3.82851 
3.15372 2.3139 -3.97037 3.64481 1.51013 -4.07918 3.98008 0.724905 -4.05415 
-6.35317 1.25335 -3.77343 -7.14721 1.66004 -4.03935 -5.86722 1.76151 -3.8905 
-7.86951 1.99567 -4.28755 -6.6551 2.23346 -4.04028 -5.23636 2.23361 -4.01083 
-8.32052 2.39448 -3.80436 -7.29151 2.76336 -3.94778 -5.96392 2.90713 -3.87927 
-4.55798 2.89012 -4.09681 -8.43611 2.81608 -2.75934 -7.57078 3.30633 -3.24007 
-6.45383 3.70346 -3.49573 -5.12738 3.81824 -3.67611 -3.84873 3.76631 -4.02727 
-8.4419 3.21326 -1.92096 -7.59207 3.70835 -2.33108 -6.61923 4.32006 -2.79233 
-5.45879 4.71636 -3.14486 -4.2205 4.69831 -3.42482 -3.03638 4.57621 -3.69731 
-8.53136 3.70517 -1.44461 -7.64157 4.08354 -1.67048 -6.66382 4.65738 -2.02853 
-5.6043 5.22985 -2.48777 -4.46468 5.37254 -2.83533 -3.28692 5.19005 -3.05465 
-2.10755 5.15345 -3.21572 -8.61745 4.31311 -0.950238 -7.77631 4.63954 -1.13872 
-6.77322 5.01884 -1.3387 -5.70668 5.48046 -1.7471 -4.6371 5.69782 -2.19009 
-3.51923 5.5462 -2.45694 -2.3363 5.43327 -2.62484 -1.15797 5.64579 -2.79056 
-7.90706 5.61837 0.224026 -7.14577 6.23416 0.715873 -7.1139 6.05693 0.00329745 
-6.25547 6.4997 1.04125 -6.19218 6.51864 0.361353 -6.02374 6.20691 -0.30343 
-5.20285 6.49481 1.31351 -5.09271 6.52371 0.518424 -4.93089 6.4313 -0.143163 
-4.82309 6.18143 -0.791015 -4.08251 6.59072 1.71013 -3.9286 6.44089 0.807054 
-3.74342 6.36519 0.0214742 -3.68127 6.27476 -0.611299 -3.71293 6.05282 -1.22103 
-3.05574 6.90025 2.10151 -2.86952 6.69634 1.31864 -2.65533 6.50761 0.478344 
-2.54952 6.4454 -0.251923 -2.57314 6.28067 -0.86528 -2.60866 5.95012 -1.46174 
-2.10744 7.09637 2.27851 -1.92438 7.10325 1.71097 -1.71721 6.95018 0.992549 
-1.55358 6.8874 0.214087 -1.45941 6.81628 -0.479419 -1.4193 6.51424 -1.10092 
[...]
POINT_DATA 1002
FIELD FieldData 4
_paraPhi 1 1002 double
6.2831853072 3.1415926536 6.2831853072 3.1415926536 4.7123889804 4.7123889804 1.5707963268 1.5707963268 3.6951670125 
5.7296109483 2.5880182947 0.5535743589 6.2831853072 6.2831853072 6.2831853072 6.2831853072 3.1415926536 3.1415926536 
3.1415926536 3.1415926536 3.1415926536 6.1053039672 5.898798347 5.6768734901 5.4599499503 5.2659633393 5.1032165617 
4.9713148346 4.8656852733 4.7809517865 0.17788134 0.38438696014 0.60631181711 0.82323535693 1.0172219679 1.1799687454 
1.3118704726 1.4175000338 1.5022335207 6.1892828907 6.1070320098 6.035312792 5.9728339911 5.9183214791 5.8706119594 
5.8286879411 5.7916808611 5.7588591896 0.093902416448 0.17615329733 0.2478725152 0.31035131605 0.36486382811 0.41257334776 
0.45449736604 0.4915044461 0.52432611754 3.3194739936 3.5259796137 3.7479044707 3.9648280105 4.1588146215 4.321561399 
4.4534631262 4.5590926874 4.6438261743 2.9637113136 2.7572056934 2.5352808365 2.3183572967 2.1243706857 1.9616239082 
1.829722181 1.7240926197 1.6393591329 3.23549507 3.3177459509 3.3894651688 3.4519439696 3.5064564817 3.5541660013 
3.5960900196 3.6330970997 3.6659187711 3.0476902371 2.9654393563 2.8937201384 2.8312413375 2.7767288255 2.7290193058 
2.6870952876 2.6500882075 2.617266536 6.2831853072 6.2831853072 6.2831853072 6.2831853072 3.1415926536 3.1415926536 
3.1415926536 3.1415926536 3.1415926536 6.1053039672 5.898798347 5.6768734901 5.4599499503 5.2659633393 5.1032165617 
4.9713148346 4.8656852733 4.7809517865 0.17788134 0.38438696014 0.60631181711 0.82323535693 1.0172219679 1.1799687454 
1.3118704726 1.4175000338 1.5022335207 6.1892828907 6.1070320098 6.035312792 5.9728339911 5.9183214791 5.8706119594 
5.8286879411 5.7916808611 5.7588591896 0.093902416448 0.17615329733 0.2478725152 0.31035131605 0.36486382811 0.41257334776 
0.45449736604 0.4915044461 0.52432611754 3.3194739936 3.5259796137 3.7479044707 3.9648280105 4.1588146215 4.321561399 
4.4534631262 4.5590926874 4.6438261743 2.9637113136 2.7572056934 2.5352808365 2.3183572967 2.1243706857 1.9616239082 
1.829722181 1.7240926197 1.6393591329 3.23549507 3.3177459509 3.3894651688 3.4519439696 3.5064564817 3.5541660013 
3.5960900196 3.6330970997 3.6659187711 3.0476902371 2.9654393563 2.8937201384 2.8312413375 2.7767288255 2.7290193058 
2.6870952876 2.6500882075 2.617266536 4.7123889804 4.7123889804 4.7123889804 4.7123889804 4.7123889804 4.7123889804 
4.7123889804 4.7123889804 4.7123889804 4.6087898617 4.4991390697 4.3857031936 4.2712800401 4.1588146215 4.0509635631 
3.94975894 3.8564636551 3.7716124825 4.8159880991 4.9256388911 5.0390747672 5.1534979207 5.2659633393 5.3738143976 
5.4750190208 5.5683143056 5.6531654782 4.6087898617 4.4991390697 4.3857031936 4.2712800401 4.1588146215 4.0509635631 
3.94975894 3.8564636551 3.7716124825 4.8159880991 4.9256388911 5.0390747672 5.1534979207 5.2659633393 5.3738143976 
5.4750190208 5.5683143056 5.6531654782 1.5707963268 1.5707963268 1.5707963268 1.5707963268 1.5707963268 1.5707963268 
1.5707963268 1.5707963268 1.5707963268 1.6743954455 1.7840462375 1.8974821136 2.0119052671 2.1243706857 2.232221744 
2.3334263672 2.426721652 2.5115728246 1.4671972081 1.3575464161 1.24411054 1.1296873865 1.0172219679 0.90937090954 
0.80816628637 0.71487100155 0.63001982895 1.6743954455 1.7840462375 1.8974821136 2.0119052671 2.1243706857 2.232221744 
2.3334263672 2.426721652 2.5115728246 1.4671972081 1.3575464161 1.24411054 1.1296873865 1.0172219679 0.90937090954 
0.80816628637 0.71487100155 0.63001982895 3.6007720849 3.4966939854 3.3839471039 3.2645756454 3.1415926536 3.0186096618 
2.8992382033 2.7864913217 2.6824132222 5.8240058758 5.9280839753 6.0408308569 6.1602023154 6.2831853072 0.12298299178 
0.2423544503 0.35510133185 0.45917943135 6.0560271438 5.7885595667 5.9702140275 5.5125918794 5.6029703303 5.7885595667 
5.2659633393 5.2659633393 5.2659633393 5.2659633393 5.0674903122 5.0120975802 4.9155579264 4.7123889804 4.1588146215 
4.9155579264 4.8353719722 4.7123889804 4.5092200343 4.1588146215 3.6362183941 4.8004512023 4.7123889804 4.5894059886 
4.4126803806 4.1588146215 3.8218076305 3.4545639333 4.7123889804 4.6243267584 4.5092200343 4.3572876485 4.1588146215 
3.9121860814 3.6362183941 3.368750817 6.0174235957 5.9434319871 5.8263323547 5.8809213739 5.7674481418 5.6279784266 
5.8278025282 5.718968232 5.5891129425 5.4372443565 5.7823484065 5.678536687 5.5575666702 5.4192596322 5.2659633393 
5.743164462 5.6444075337 5.5314983644 5.4046708639 5.2659633393 5.1195510325 5.7091357773 5.6152775188 5.5096229709 
5.3926039573 5.2659633393 5.1329233157 4.9978930058 5.6793730533 5.5901633916 5.4910209005 5.3824597928 5.2659633393 
5.1440684722 5.0201624502 4.8979782167 5.5683143056 5.4750190208 5.4750190208 5.3738143976 5.3738143976 5.3738143976 
5.2659633393 5.2659633393 5.2659633393 5.2659633393 5.1534979207 5.1534979207 5.1534979207 5.1534979207 5.1534979207 
5.0390747672 5.0390747672 5.0390747672 5.0390747672 5.0390747672 5.0390747672 4.9256388911 4.9256388911 4.9256388911 
4.9256388911 4.9256388911 4.9256388911 4.9256388911 4.8159880991 4.8159880991 4.8159880991 4.8159880991 4.8159880991 
4.8159880991 4.8159880991 4.8159880991 4.6087898617 4.6087898617 4.4991390697 4.6087898617 4.4991390697 4.3857031936 
4.6087898617 4.4991390697 4.3857031936 4.2712800401 4.6087898617 4.4991390697 4.3857031936 4.2712800401 4.1588146215 
4.6087898617 4.4991390697 4.3857031936 4.2712800401 4.1588146215 4.0509635631 4.6087898617 4.4991390697 4.3857031936 
4.2712800401 4.1588146215 4.0509635631 3.94975894 4.6087898617 4.4991390697 4.3857031936 4.2712800401 4.1588146215 
4.0509635631 3.94975894 3.8564636551 4.526799744 4.4046155105 4.426884955 4.2807094886 4.2918546451 4.3052269283 
4.1588146215 4.1588146215 4.1588146215 4.1588146215 4.042318168 4.0321740035 4.0201070968 4.0055183285 3.9875336042 
3.9337570603 3.9151549899 3.8932795963 3.8672112905 3.8356650183 3.7967995342 3.8346145692 3.809500442 3.7803704271 
3.7462412737 3.7058097288 3.657329819 3.5984456061 3.7454049075 3.7156421835 3.6816134988 3.6424295543 3.5969754326 
3.5438565869 3.4813459737 3.4073543651 3.5642842451 3.4524645613 3.5233842518 3.3320300872 3.403123212 3.4773852225 
3.20576226 3.2746326772 3.348015857 3.4255060145 3.0774230472 3.1415926536 3.2112816139 3.2864685043 3.3668817272 
2.95115522 3.00855263 3.0719036933 3.1415926536 3.2178377658 3.3005964304 2.8307207459 2.8800620952 2.9351694502 
2.9967168029 3.0653475414 3.1415926536 3.225752376 2.718901062 2.7598010554 2.8058000847 2.8576792927 2.91630358 
2.9825888767 3.0574329311 3.1415926536 3.5642842451 3.5233842518 3.4524645613 3.4773852225 3.403123212 3.3320300872 
3.4255060145 3.348015857 3.2746326772 3.20576226 3.3668817272 3.2864685043 3.2112816139 3.1415926536 3.0774230472 
3.3005964304 3.2178377658 3.1415926536 3.0719036933 3.00855263 2.95115522 3.225752376 3.1415926536 3.0653475414 
2.9967168029 2.9351694502 2.8800620952 2.8307207459 3.1415926536 3.0574329311 2.9825888767 2.91630358 2.8576792927 
2.8058000847 2.7598010554 2.718901062 4.526799744 4.426884955 4.4046155105 4.3052269283 4.2918546451 4.2807094886 
4.1588146215 4.1588146215 4.1588146215 4.1588146215 3.9875336042 4.0055183285 4.0201070968 4.0321740035 4.042318168 
3.7967995342 3.8356650183 3.8672112905 3.8932795963 3.9151549899 3.9337570603 3.5984456061 3.657329819 3.7058097288 
3.7462412737 3.7803704271 3.809500442 3.8346145692 3.4073543651 3.4813459737 3.5438565869 3.5969754326 3.6424295543 
3.6816134988 3.7156421835 3.7454049075 4.7123889804 4.8004512023 4.6243267584 4.9155579264 4.7123889804 4.5092200343 
5.0674903122 4.8353719722 4.5894059886 4.3572876485 5.2659633393 5.0120975802 4.7123889804 4.4126803806 4.1588146215 
5.5125918794 5.2659633393 4.9155579264 4.5092200343 4.1588146215 3.9121860814 5.7885595667 5.6029703303 5.2659633393 
4.7123889804 4.1588146215 3.8218076305 3.6362183941 6.0560271438 5.9702140275 5.7885595667 5.2659633393 4.1588146215 
3.6362183941 3.4545639333 3.368750817 0.22715816343 0.49462574053 0.3129712797 0.77059342779 0.68021497688 0.49462574053 
1.0172219679 1.0172219679 1.0172219679 1.0172219679 1.2156949949 1.271087727 1.3676273807 1.5707963268 2.1243706857 
1.3676273807 1.447813335 1.5707963268 1.7739652728 2.1243706857 2.6469669131 1.4827341049 1.5707963268 1.6937793186 
1.8705049266 2.1243706857 2.4613776767 2.8286213739 1.5707963268 1.6588585487 1.7739652728 1.9258976586 2.1243706857 
2.3709992258 2.6469669131 2.9144344902 1.7563855631 1.8785697967 1.8563003522 2.0024758186 1.9913306621 1.9779583789 
2.1243706857 2.1243706857 2.1243706857 2.1243706857 2.2408671392 2.2510113037 2.2630782103 2.2776669786 2.295651703 
2.3494282469 2.3680303173 2.3899057108 2.4159740166 2.4475202889 2.486385773 2.448570738 2.4736848652 2.5028148801 
2.5369440334 2.5773755784 2.6258554882 2.6847397011 2.5377803997 2.5675431237 2.6015718084 2.6407557529 2.6862098746 
2.7393287203 2.8018393335 2.8758309421 1.6743954455 1.6743954455 1.7840462375 1.6743954455 1.7840462375 1.8974821136 
1.6743954455 1.7840462375 1.8974821136 2.0119052671 1.6743954455 1.7840462375 1.8974821136 2.0119052671 2.1243706857 
1.6743954455 1.7840462375 1.8974821136 2.0119052671 2.1243706857 2.232221744 1.6743954455 1.7840462375 1.8974821136 
2.0119052671 2.1243706857 2.232221744 2.3334263672 1.6743954455 1.7840462375 1.8974821136 2.0119052671 2.1243706857 
2.232221744 2.3334263672 2.426721652 1.4671972081 1.3575464161 1.4671972081 1.24411054 1.3575464161 1.4671972081 
1.1296873865 1.24411054 1.3575464161 1.4671972081 1.0172219679 1.1296873865 1.24411054 1.3575464161 1.4671972081 
0.90937090954 1.0172219679 1.1296873865 1.24411054 1.3575464161 1.4671972081 0.80816628637 0.90937090954 1.0172219679 
1.1296873865 1.24411054 1.3575464161 1.4671972081 0.71487100155 0.80816628637 0.90937090954 1.0172219679 1.1296873865 
1.24411054 1.3575464161 1.4671972081 0.60381225391 0.57404952988 0.69302191562 0.54002084522 0.66790778838 0.79216440667 
0.50083690068 0.63877777351 0.77356233629 0.90072551443 0.45538277901 0.60464862014 0.75168694275 0.89058134991 1.0172219679 
0.40226393329 0.56421707518 0.72561863695 0.87851444325 1.0172219679 1.139116835 0.33975332011 0.51573716537 0.69407236469 
0.86392567495 1.0172219679 1.1502619915 1.2630228569 0.26576171152 0.45685295248 0.6552068806 0.84594095064 1.0172219679 
1.1636342747 1.2852923014 1.3852070904 0.22715816343 0.3129712797 0.49462574053 0.49462574053 0.68021497688 0.77059342779 
1.0172219679 1.0172219679 1.0172219679 1.0172219679 2.1243706857 1.5707963268 1.3676273807 1.271087727 1.2156949949 
2.6469669131 2.1243706857 1.7739652728 1.5707963268 1.447813335 1.3676273807 2.8286213739 2.4613776767 2.1243706857 
1.8705049266 1.6937793186 1.5707963268 1.4827341049 2.9144344902 2.6469669131 2.3709992258 2.1243706857 1.9258976586 
1.7739652728 1.6588585487 1.5707963268 1.7563855631 1.8563003522 1.8785697967 1.9779583789 1.9913306621 2.0024758186 
2.1243706857 2.1243706857 2.1243706857 2.1243706857 2.295651703 2.2776669786 2.2630782103 2.2510113037 2.2408671392 
2.486385773 2.4475202889 2.4159740166 2.3899057108 2.3680303173 2.3494282469 2.6847397011 2.6258554882 2.5773755784 
2.5369440334 2.5028148801 2.4736848652 2.448570738 2.8758309421 2.8018393335 2.7393287203 2.6862098746 2.6407557529 
2.6015718084 2.5675431237 2.5377803997 5.8604937156 5.901393709 5.9723133995 5.9473927383 6.0216547488 6.0927478736 
5.9992719463 6.0767621038 6.1501452836 6.2190157008 6.0578962336 6.1383094565 6.2134963469 0 0.064169606361 
6.1241815303 6.206940195 6.2831853072 0.069688960264 0.13304002361 0.19043743361 6.1990255847 0 0.07624511221 
0.14487585072 0.20642320337 0.26153055843 0.3108719077 0 0.084159722458 0.15900377685 0.22528907359 0.28391336087 
0.3357925689 0.38179159818 0.42269159155 5.8604937156 5.9723133995 5.901393709 6.0927478736 6.0216547488 5.9473927383 
6.2190157008 6.1501452836 6.0767621038 5.9992719463 0.064169606361 0 6.2134963469 6.1383094565 6.0578962336 
0.19043743361 0.13304002361 0.069688960264 6.2831853072 6.206940195 6.1241815303 0.3108719077 0.26153055843 0.20642320337 
0.14487585072 0.07624511221 6.2831853072 6.1990255847 0.42269159155 0.38179159818 0.3357925689 0.28391336087 0.22528907359 
0.15900377685 0.084159722458 0 5.6793730533 5.7091357773 5.5901633916 5.743164462 5.6152775188 5.4910209005 
5.7823484065 5.6444075337 5.5096229709 5.3824597928 5.8278025282 5.678536687 5.5314983644 5.3926039573 5.2659633393 
5.8809213739 5.718968232 5.5575666702 5.4046708639 5.2659633393 5.1440684722 5.9434319871 5.7674481418 5.5891129425 
5.4192596322 5.2659633393 5.1329233157 5.0201624502 6.0174235957 5.8263323547 5.6279784266 5.4372443565 5.2659633393 
5.1195510325 4.9978930058 4.8979782167 1.3852070904 1.2852923014 1.2630228569 1.1636342747 1.1502619915 1.139116835 
1.0172219679 1.0172219679 1.0172219679 1.0172219679 0.84594095064 0.86392567495 0.87851444325 0.89058134991 0.90072551443 
0.6552068806 0.69407236469 0.72561863695 0.75168694275 0.77356233629 0.79216440667 0.45685295248 0.51573716537 0.56421707518 
0.60464862014 0.63877777351 0.66790778838 0.69302191562 0.26576171152 0.33975332011 0.40226393329 0.45538277901 0.50083690068 
0.54002084522 0.57404952988 0.60381225391 
_paraPhiHalf 1 1002 double
0 3.1415926536 0 3.1415926536 1.5707963268 1.5707963268 1.5707963268 1.5707963268 2.5880182947 
0.5535743589 2.5880182947 0.5535743589 0 0 0 0 3.1415926536 3.1415926536 
3.1415926536 3.1415926536 3.1415926536 0.17788134 0.38438696014 0.60631181711 0.82323535693 1.0172219679 1.1799687454 
1.3118704726 1.4175000338 1.5022335207 0.17788134 0.38438696014 0.60631181711 0.82323535693 1.0172219679 1.1799687454 
1.3118704726 1.4175000338 1.5022335207 0.093902416448 0.17615329733 0.2478725152 0.31035131605 0.36486382811 0.41257334776 
0.45449736604 0.4915044461 0.52432611754 0.093902416448 0.17615329733 0.2478725152 0.31035131605 0.36486382811 0.41257334776 
0.45449736604 0.4915044461 0.52432611754 2.9637113136 2.7572056934 2.5352808365 2.3183572967 2.1243706857 1.9616239082 
1.829722181 1.7240926197 1.6393591329 2.9637113136 2.7572056934 2.5352808365 2.3183572967 2.1243706857 1.9616239082 
1.829722181 1.7240926197 1.6393591329 3.0476902371 2.9654393563 2.8937201384 2.8312413375 2.7767288255 2.7290193058 
2.6870952876 2.6500882075 2.617266536 3.0476902371 2.9654393563 2.8937201384 2.8312413375 2.7767288255 2.7290193058 
2.6870952876 2.6500882075 2.617266536 0 0 0 0 3.1415926536 3.1415926536 
3.1415926536 3.1415926536 3.1415926536 0.17788134 0.38438696014 0.60631181711 0.82323535693 1.0172219679 1.1799687454 
1.3118704726 1.4175000338 1.5022335207 0.17788134 0.38438696014 0.60631181711 0.82323535693 1.0172219679 1.1799687454 
1.3118704726 1.4175000338 1.5022335207 0.093902416448 0.17615329733 0.2478725152 0.31035131605 0.36486382811 0.41257334776 
0.45449736604 0.4915044461 0.52432611754 0.093902416448 0.17615329733 0.2478725152 0.31035131605 0.36486382811 0.41257334776 
0.45449736604 0.4915044461 0.52432611754 2.9637113136 2.7572056934 2.5352808365 2.3183572967 2.1243706857 1.9616239082 
1.829722181 1.7240926197 1.6393591329 2.9637113136 2.7572056934 2.5352808365 2.3183572967 2.1243706857 1.9616239082 
1.829722181 1.7240926197 1.6393591329 3.0476902371 2.9654393563 2.8937201384 2.8312413375 2.7767288255 2.7290193058 
2.6870952876 2.6500882075 2.617266536 3.0476902371 2.9654393563 2.8937201384 2.8312413375 2.7767288255 2.7290193058 
2.6870952876 2.6500882075 2.617266536 1.5707963268 1.5707963268 1.5707963268 1.5707963268 1.5707963268 1.5707963268 
1.5707963268 1.5707963268 1.5707963268 1.6743954455 1.7840462375 1.8974821136 2.0119052671 2.1243706857 2.232221744 
2.3334263672 2.426721652 2.5115728246 1.4671972081 1.3575464161 1.24411054 1.1296873865 1.0172219679 0.90937090954 
0.80816628637 0.71487100155 0.63001982895 1.6743954455 1.7840462375 1.8974821136 2.0119052671 2.1243706857 2.232221744 
2.3334263672 2.426721652 2.5115728246 1.4671972081 1.3575464161 1.24411054 1.1296873865 1.0172219679 0.90937090954 
0.80816628637 0.71487100155 0.63001982895 1.5707963268 1.5707963268 1.5707963268 1.5707963268 1.5707963268 1.5707963268 
1.5707963268 1.5707963268 1.5707963268 1.6743954455 1.7840462375 1.8974821136 2.0119052671 2.1243706857 2.232221744 
2.3334263672 2.426721652 2.5115728246 1.4671972081 1.3575464161 1.24411054 1.1296873865 1.0172219679 0.90937090954 
0.80816628637 0.71487100155 0.63001982895 1.6743954455 1.7840462375 1.8974821136 2.0119052671 2.1243706857 2.232221744 
2.3334263672 2.426721652 2.5115728246 1.4671972081 1.3575464161 1.24411054 1.1296873865 1.0172219679 0.90937090954 
0.80816628637 0.71487100155 0.63001982895 2.6824132222 2.7864913217 2.8992382033 3.0186096618 3.1415926536 3.0186096618 
2.8992382033 2.7864913217 2.6824132222 0.45917943135 0.35510133185 0.2423544503 0.12298299178 0 0.12298299178 
0.2423544503 0.35510133185 0.45917943135 0.22715816343 0.49462574053 0.3129712797 0.77059342779 0.68021497688 0.49462574053 
1.0172219679 1.0172219679 1.0172219679 1.0172219679 1.2156949949 1.271087727 1.3676273807 1.5707963268 2.1243706857 
1.3676273807 1.447813335 1.5707963268 1.7739652728 2.1243706857 2.6469669131 1.4827341049 1.5707963268 1.6937793186 
1.8705049266 2.1243706857 2.4613776767 2.8286213739 1.5707963268 1.6588585487 1.7739652728 1.9258976586 2.1243706857 
2.3709992258 2.6469669131 2.9144344902 0.26576171152 0.33975332011 0.45685295248 0.40226393329 0.51573716537 0.6552068806 
0.45538277901 0.56421707518 0.69407236469 0.84594095064 0.50083690068 0.60464862014 0.72561863695 0.86392567495 1.0172219679 
0.54002084522 0.63877777351 0.75168694275 0.87851444325 1.0172219679 1.1636342747 0.57404952988 0.66790778838 0.77356233629 
0.89058134991 1.0172219679 1.1502619915 1.2852923014 0.60381225391 0.69302191562 0.79216440667 0.90072551443 1.0172219679 
1.139116835 1.2630228569 1.3852070904 0.71487100155 0.80816628637 0.80816628637 0.90937090954 0.90937090954 0.90937090954 
1.0172219679 1.0172219679 1.0172219679 1.0172219679 1.1296873865 1.1296873865 1.1296873865 1.1296873865 1.1296873865 
1.24411054 1.24411054 1.24411054 1.24411054 1.24411054 1.24411054 1.3575464161 1.3575464161 1.3575464161 
1.3575464161 1.3575464161 1.3575464161 1.3575464161 1.4671972081 1.4671972081 1.4671972081 1.4671972081 1.4671972081 
1.4671972081 1.4671972081 1.4671972081 1.6743954455 1.6743954455 1.7840462375 1.6743954455 1.7840462375 1.8974821136 
1.6743954455 1.7840462375 1.8974821136 2.0119052671 1.6743954455 1.7840462375 1.8974821136 2.0119052671 2.1243706857 
1.6743954455 1.7840462375 1.8974821136 2.0119052671 2.1243706857 2.232221744 1.6743954455 1.7840462375 1.8974821136 
2.0119052671 2.1243706857 2.232221744 2.3334263672 1.6743954455 1.7840462375 1.8974821136 2.0119052671 2.1243706857 
2.232221744 2.3334263672 2.426721652 1.7563855631 1.8785697967 1.8563003522 2.0024758186 1.9913306621 1.9779583789 
2.1243706857 2.1243706857 2.1243706857 2.1243706857 2.2408671392 2.2510113037 2.2630782103 2.2776669786 2.295651703 
2.3494282469 2.3680303173 2.3899057108 2.4159740166 2.4475202889 2.486385773 2.448570738 2.4736848652 2.5028148801 
2.5369440334 2.5773755784 2.6258554882 2.6847397011 2.5377803997 2.5675431237 2.6015718084 2.6407557529 2.6862098746 
2.7393287203 2.8018393335 2.8758309421 2.718901062 2.8307207459 2.7598010554 2.95115522 2.8800620952 2.8058000847 
3.0774230472 3.00855263 2.9351694502 2.8576792927 3.0774230472 3.1415926536 3.0719036933 2.9967168029 2.91630358 
2.95115522 3.00855263 3.0719036933 3.1415926536 3.0653475414 2.9825888767 2.8307207459 2.8800620952 2.9351694502 
2.9967168029 3.0653475414 3.1415926536 3.0574329311 2.718901062 2.7598010554 2.8058000847 2.8576792927 2.91630358 
2.9825888767 3.0574329311 3.1415926536 2.718901062 2.7598010554 2.8307207459 2.8058000847 2.8800620952 2.95115522 
2.8576792927 2.9351694502 3.00855263 3.0774230472 2.91630358 2.9967168029 3.0719036933 3.1415926536 3.0774230472 
2.9825888767 3.0653475414 3.1415926536 3.0719036933 3.00855263 2.95115522 3.0574329311 3.1415926536 3.0653475414 