# vtk DataFile Version 5.1
vtk output
ASCII
DATASET POLYDATA
POINTS 1002 float
-4.7717 -0.149181 -3.00064 5.39809 0.387762 -3.78456 -4.74817 0.463725 3.92789 
5.14397 -0.27292 5.64521 -0.165896 4.669 -3.01056 -0.607927 3.72521 2.23514 
-0.367101 -5.71182 -3.5008 -0.0774525 -5.36636 2.39199 8.94539 3.51225 -0.481732 
-9.31512 4.29414 -0.049512 8.58228 -3.63568 -0.387147 -8.09279 -3.78038 0.13627 
-3.94068 -0.134513 -2.70536 -3.08903 -0.099047 -2.70992 -2.28981 -0.0641452 -3.2669 
-1.49751 -0.0283377 -4.18561 -0.501007 0.0523189 -4.89424 0.819339 0.1888 -5.0421 
2.25264 0.316242 -4.78215 3.50102 0.3796 -4.41525 4.51001 0.391041 -4.07967 
-4.40817 0.415682 -2.77347 -4.05952 1.03949 -2.80017 -3.77327 1.65195 -3.24239 
-3.52123 2.18542 -3.82271 -3.17334 2.65776 -4.03464 -2.61369 3.11227 -3.80653 
-1.89501 3.53659 -3.52129 -1.19312 3.92348 -3.38323 -0.620799 4.30137 -3.25736 
-4.62388 -0.707396 -3.0695 -4.44818 -1.33252 -3.17529 -4.20556 -2.02927 -3.26246 
-3.86613 -2.77536 -3.24833 -3.43687 -3.49795 -3.18813 -2.92663 -4.10753 -3.26963 
-2.33684 -4.57574 -3.53612 -1.69305 -4.95757 -3.77584 -1.02941 -5.32666 -3.77014 
-5.3766 0.196477 -3.15766 -6.0193 0.576865 -3.15803 -6.67119 0.955602 -2.87919 
-7.32464 1.3119 -2.47158 -8.01713 1.73356 -2.2705 -8.75505 2.33495 -2.32816 
-9.38729 3.03999 -2.26261 -9.69188 3.63515 -1.75439 -9.61649 4.02872 -0.911369 
-5.50118 -0.485103 -3.31538 -6.21204 -0.872357 -3.31762 -6.87045 -1.34752 -2.95703 
-7.53191 -1.85066 -2.64101 -8.15787 -2.26751 -2.65897 -8.51392 -2.60343 -2.64621 
-8.48122 -2.95564 -2.14774 -8.26948 -3.3226 -1.28875 -8.13102 -3.61329 -0.467724 
5.06771 0.961243 -4.19084 4.65877 1.54218 -4.53911 4.18826 2.10318 -4.63796 
3.61586 2.64276 -4.56112 2.92346 3.13455 -4.49875 2.21912 3.53919 -4.39956 
1.61322 3.87755 -4.10656 1.06231 4.18903 -3.68788 0.470723 4.45978 -3.31152 
5.0906 -0.208943 -3.65793 4.63656 -0.867821 -3.71881 3.98674 -1.5385 -3.89799 
3.18755 -2.1755 -3.89397 2.43559 -2.74684 -3.59636 1.90241 -3.24806 -3.34348 
1.50341 -3.7472 -3.42225 1.01006 -4.34616 -3.64689 0.346803 -5.04411 -3.69592 
6.14017 0.730425 -3.69984 6.98082 1.06834 -3.52632 7.83876 1.42992 -3.23904 
8.59394 1.92563 -2.93488 9.18521 2.6423 -2.75956 9.57464 3.4196 -2.6707 
9.68733 3.90216 -2.42691 9.52467 3.93321 -1.89339 9.22768 3.70912 -1.18301 
6.13577 0.0450341 -3.43371 6.90736 -0.257306 -3.19775 7.67481 -0.483095 -3.0621 
8.4262 -0.694493 -2.95425 9.09387 -1.06602 -2.78658 9.50054 -1.70263 -2.47032 
9.53492 -2.46099 -1.99136 9.2953 -3.08754 -1.44222 8.9509 -3.46595 -0.905034 
-3.99153 0.379999 4.19062 -3.10215 0.311756 4.46422 -2.13605 0.189316 4.79936 
-1.13955 -0.0137452 5.16655 -0.0678882 -0.180881 5.39514 1.11035 -0.20887 5.42312 
2.29885 -0.184047 5.43062 3.37864 -0.222243 5.54623 4.32008 -0.284956 5.6678 
-4.62586 0.911804 4.18652 -4.4253 1.38923 4.4591 -4.04507 1.9633 4.6661 
-3.46804 2.63062 4.70167 -2.83575 3.19776 4.48654 -2.30999 3.45324 4.044 
-1.89796 3.45561 3.50532 -1.50283 3.44503 3.00233 -1.06847 3.54745 2.58269 
-4.43347 -0.0901531 3.88742 -4.09559 -0.740977 3.91917 -3.68684 -1.43328 3.99019 
-3.20576 -2.08064 4.02372 -2.69596 -2.69773 3.97475 -2.16131 -3.36134 3.84704 
-1.59293 -4.01515 3.60828 -1.03881 -4.53391 3.22425 -0.540126 -4.9402 2.77317 
-5.4077 0.867226 3.83859 -6.15377 1.31016 3.8538 -6.93744 1.77262 3.90637 
-7.63419 2.25048 3.70052 -8.17052 2.71824 3.06953 -8.60445 3.14887 2.30126 
-8.9855 3.57105 1.71365 -9.25782 3.97978 1.21478 -9.36398 4.25651 0.611543 
-5.25149 0.238111 3.58772 -5.80227 -0.00555883 3.17784 -6.43708 -0.296437 2.74608 
-7.11132 -0.702542 2.39676 -7.69053 -1.24629 2.16775 -8.08652 -1.85378 1.95212 
-8.31636 -2.43185 1.62364 -8.39386 -2.9436 1.17208 -8.30561 -3.39128 0.660718 
4.92376 0.27356 5.31536 4.57559 0.828732 5.03522 4.17302 1.41422 4.87254 
3.71212 2.05129 4.70187 3.11957 2.6968 4.39126 2.41923 3.22438 4.00291 
1.7061 3.51904 3.62648 0.976076 3.60044 3.21277 0.185991 3.6181 2.72261 
4.70623 -0.872558 5.91324 4.0904 -1.4518 5.86228 3.42338 -1.98262 5.47461 
2.84217 -2.55037 4.98116 2.32246 -3.24632 4.61747 1.75305 -4.00411 4.3285 
1.15304 -4.64311 3.92689 0.63976 -5.05291 3.40188 0.249884 -5.26253 2.86958 
5.831 0.186715 5.20885 6.51401 0.679135 4.60282 7.18825 1.08304 4.02623 
7.85137 1.46027 3.50935 8.48995 1.9646 2.88054 9.03347 2.48412 2.10661 
9.34885 2.77088 1.36097 9.36913 2.89286 0.720068 9.18499 3.11828 0.115576 
5.69314 -0.5704 5.68519 6.18216 -0.869573 5.44164 6.5958 -1.18051 4.7937 
6.99469 -1.51196 3.85689 7.44636 -1.82578 2.89646 7.90734 -2.08423 2.05675 
8.26492 -2.35364 1.31552 8.47613 -2.73529 0.649846 8.57303 -3.2062 0.0806215 
-0.306837 4.96357 -2.54417 -0.408716 5.16508 -1.91577 -0.465006 5.26691 -1.28256 
-0.551867 5.27187 -0.74226 -0.699992 5.15585 -0.191847 -0.829927 4.9142 0.428815 
-0.877357 4.60394 0.980491 -0.851389 4.28509 1.39489 -0.762245 3.98431 1.78511 
0.668435 4.96261 -2.87883 1.54332 5.30938 -2.75031 2.45025 5.50411 -2.56481 
3.41446 5.34867 -2.22201 4.49125 4.97302 -1.76284 5.6436 4.7468 -1.38796 
6.70754 4.71991 -1.17514 7.57599 4.56358 -0.998813 8.29499 4.10509 -0.760837 
-1.14021 4.69492 -2.94882 -2.21752 4.89068 -2.93081 -3.24984 5.2868 -2.90228 
-4.1362 5.71021 -2.73335 -4.96921 5.77884 -2.25212 -5.89664 5.33147 -1.50264 
-6.89958 4.72795 -0.823521 -7.85461 4.39456 -0.444708 -8.67705 4.33477 -0.252032 
0.361028 3.87075 2.16282 1.37887 4.07514 1.99504 2.43028 4.17596 1.7553 
3.534 4.12104 1.54304 4.69492 4.10142 1.38392 5.84397 4.26514 1.17876 
6.85119 4.39855 0.861358 7.65048 4.22923 0.458057 8.3123 3.83942 0.00138242 
-1.68834 3.94047 1.98493 -2.72655 4.51257 1.8273 -3.61926 5.30698 1.8632 
-4.47638 5.98386 2.00635 -5.44602 6.31842 1.99988 -6.42072 6.3023 1.72728 
-7.21518 5.95148 1.34143 -7.88961 5.3418 0.967104 -8.59742 4.71601 0.530591 
-0.334413 -6.32694 -3.02821 -0.177293 -6.83637 -2.46883 0.0567335 -7.09802 -1.94023 
0.251183 -7.13547 -1.44554 0.339115 -7.09972 -0.815346 0.336558 -7.00569 0.0138589 
0.268055 -6.7214 0.828303 0.151762 -6.2495 1.44451 0.0247542 -5.75856 1.92512 
0.721592 -5.71906 -3.17334 1.68756 -5.65795 -2.59664 2.41904 -5.45736 -1.92235 
3.12384 -5.13368 -1.3726 4.16718 -4.836 -1.08832 5.53911 -4.71108 -1.02856 
6.79528 -4.71187 -1.00184 7.63075 -4.61472 -0.851849 8.1509 -4.24735 -0.604785 
-1.50299 -6.03391 -3.34951 -2.57176 -6.27435 -3.10398 -3.45361 -6.48992 -2.86992 
-4.30789 -6.726 -2.57405 -5.30769 -6.83306 -2.11293 -6.27047 -6.56623 -1.58856 
-6.91845 -5.93474 -1.13453 -7.30943 -5.18517 -0.710494 -7.67581 -4.47101 -0.265085 
0.61184 -5.87424 2.39774 1.36864 -6.45428 2.47588 2.15009 -6.74291 2.47986 
2.92408 -6.37174 2.19604 3.7925 -5.49872 1.638 4.89175 -4.74617 1.0779 
6.11089 -4.43515 0.678646 7.16049 -4.31966 0.3573 7.93629 -4.07721 0.00683928 
-0.757211 -5.17386 2.12138 -1.61521 -5.04292 1.80135 -2.60328 -4.96077 1.46228 
-3.58229 -4.88124 1.18281 -4.50774 -4.78105 0.949168 -5.48906 -4.67571 0.689907 
-6.50503 -4.589 0.47213 -7.31467 -4.47811 0.386802 -7.79436 -4.22919 0.33079 
9.80793 3.08361 -0.591342 10.8078 2.84309 -0.620635 11.7953 2.64791 -0.556423 
12.5248 2.15678 -0.569651 12.7923 1.26958 -0.843922 12.4909 0.250549 -1.21178 
11.6404 -0.729584 -1.28877 10.4831 -1.73954 -1.00084 9.39103 -2.76442 -0.623135 
-9.99336 4.06557 -0.318443 -10.3893 3.73735 -0.53039 -10.3781 3.01874 -0.563074 
-10.1229 1.85732 -0.45326 -9.94093 0.677817 -0.394111 -9.88086 -0.163998 -0.436482 
-9.67865 -0.893124 -0.388969 -9.19667 -1.83319 -0.161667 -8.60019 -2.88756 0.0734509 
-3.55693 0.493202 -2.66292 -3.22975 1.15882 -3.12834 -2.70626 0.571186 -3.02542 
-2.94344 1.75802 -3.99763 -2.34432 1.23486 -3.86109 -1.8728 0.594968 -3.8558 
-2.60042 2.25072 -4.63013 -1.94808 1.80333 -4.77878 -1.37308 1.22338 -4.624 
-0.938531 0.597274 -4.68501 -2.0911 2.6916 -4.54801 -1.47822 2.28514 -5.09584 
-0.813273 1.7914 -5.10468 -0.225616 1.22334 -4.99163 0.27648 0.682269 -5.07517 
-1.40394 3.11352 -4.04908 -0.90689 2.72278 -4.71455 -0.274967 2.31285 -5.0219 
0.466795 1.84231 -4.9897 1.13906 1.34472 -5.02154 1.70763 0.845711 -5.05063 
-0.662736 3.52727 -3.66755 -0.225313 3.14479 -4.17702 0.288554 2.79206 -4.61767 
1.03217 2.42384 -4.77585 1.85221 1.99484 -4.85909 2.52216 1.51002 -4.96454 
3.04581 0.970228 -4.83467 -0.0197148 3.976 -3.48874 0.476422 3.62301 -3.86362 
0.95179 3.28903 -4.28589 1.59603 2.96707 -4.54601 2.39992 2.58523 -4.67083 
3.13427 2.11588 -4.80923 3.68878 1.58203 -4.82648 4.1328 0.997497 -4.53615 
-5.00337 0.792349 -2.87631 -5.6013 1.20144 -2.75147 -4.60848 1.43475 -2.7822 
-6.19748 1.59179 -2.36156 -5.10687 1.87595 -2.52943 -4.27832 2.06337 -3.02951 
-6.86158 1.91973 -1.98558 -5.6122 2.31129 -2.17513 -4.69831 2.58142 -2.70034 
-4.01071 2.6448 -3.36127 -7.63703 2.26134 -1.87949 -6.25542 2.67246 -1.9595 
-5.13135 3.16017 -2.51339 -4.40887 3.29454 -3.05703 -3.64459 3.19325 -3.45759 
-8.37967 2.73204 -1.87264 -7.00546 3.00387 -1.83917 -5.68055 3.67592 -2.415 
-4.77964 4.05299 -3.0541 -4.04377 3.93428 -3.31944 -3.0558 3.68672 -3.39721 
-8.82795 3.30237 -1.60165 -7.60948 3.40519 -1.5667 -6.26032 4.07852 -2.08913 
-5.16903 4.71103 -2.9058 -4.37007 4.74714 -3.37959 -3.48171 4.39597 -3.41711 
-2.3463 4.08407 -3.35392 -8.88044 3.85428 -0.990616 -7.8739 3.88654 -1.0618 
-6.6887 4.40993 -1.49001 -5.55819 5.12913 -2.30686 -4.65817 5.40776 -3.0327 
-3.83388 5.12053 -3.31693 -2.83322 4.68541 -3.30036 -1.69147 4.40689 -3.24259 
-7.89354 4.89202 0.267387 -7.17305 5.5326 0.645502 -7.08874 5.06033 -0.0931394 
-6.45833 6.02576 1.00556 -6.40174 5.64646 0.167372 -6.21836 5.42377 -0.662359 
-5.56047 6.28728 1.37973 -5.63323 6.05907 0.481531 -5.56908 5.92421 -0.460577 
-5.30834 5.89962 -1.35422 -4.52716 6.28572 1.5967 -4.63704 6.31981 0.834377 
-4.74621 6.27807 -0.119784 -4.6627 6.23913 -1.0091 -4.40361 6.07699 -1.88544 
-3.59559 5.86955 1.57938 -3.59498 6.23054 1.06564 -3.71601 6.39352 0.273689 
-3.79474 6.39121 -0.533587 -3.68887 6.18369 -1.29835 -3.47583 5.78201 -2.14727 
-2.75832 5.09187 1.51562 -2.70321 5.61559 1.15628 -2.70973 5.99042 0.577397 
[...]
POINT_DATA 1002
FIELD FieldData 4
_paraPhi 1 1002 double
6.2831853072 3.1415926536 6.2831853072 3.1415926536 4.7123889804 4.7123889804 1.5707963268 1.5707963268 3.6951670125 
5.7296109483 2.5880182947 0.5535743589 6.2831853072 6.2831853072 6.2831853072 6.2831853072 3.1415926536 3.1415926536 
3.1415926536 3.1415926536 3.1415926536 6.1053039672 5.898798347 5.6768734901 5.4599499503 5.2659633393 5.1032165617 
4.9713148346 4.8656852733 4.7809517865 0.17788134 0.38438696014 0.60631181711 0.82323535693 1.0172219679 1.1799687454 
1.3118704726 1.4175000338 1.5022335207 6.1892828907 6.1070320098 6.035312792 5.9728339911 5.9183214791 5.8706119594 
5.8286879411 5.7916808611 5.7588591896 0.093902416448 0.17615329733 0.2478725152 0.31035131605 0.36486382811 0.41257334776 
0.45449736604 0.4915044461 0.52432611754 3.3194739936 3.5259796137 3.7479044707 3.9648280105 4.1588146215 4.321561399 
4.4534631262 4.5590926874 4.6438261743 2.9637113136 2.7572056934 2.5352808365 2.3183572967 2.1243706857 1.9616239082 
1.829722181 1.7240926197 1.6393591329 3.23549507 3.3177459509 3.3894651688 3.4519439696 3.5064564817 3.5541660013 
3.5960900196 3.6330970997 3.6659187711 3.0476902371 2.9654393563 2.8937201384 2.8312413375 2.7767288255 2.7290193058 
2.6870952876 2.6500882075 2.617266536 6.2831853072 6.2831853072 6.2831853072 6.2831853072 3.1415926536 3.1415926536 
3.1415926536 3.1415926536 3.1415926536 6.1053039672 5.898798347 5.6768734901 5.4599499503 5.2659633393 5.1032165617 
4.9713148346 4.8656852733 4.7809517865 0.17788134 0.38438696014 0.60631181711 0.82323535693 1.0172219679 1.1799687454 
1.3118704726 1.4175000338 1.5022335207 6.1892828907 6.1070320098 6.035312792 5.9728339911 5.9183214791 5.8706119594 
5.8286879411 5.7916808611 5.7588591896 0.093902416448 0.17615329733 0.2478725152 0.31035131605 0.36486382811 0.41257334776 
0.45449736604 0.4915044461 0.52432611754 3.3194739936 3.5259796137 3.7479044707 3.9648280105 4.1588146215 4.321561399 
4.4534631262 4.5590926874 4.6438261743 2.9637113136 2.7572056934 2.5352808365 2.3183572967 2.1243706857 1.9616239082 
1.829722181 1.7240926197 1.6393591329 3.23549507 3.3177459509 3.3894651688 3.4519439696 3.5064564817 3.5541660013 
3.5960900196 3.6330970997 3.6659187711 3.0476902371 2.9654393563 2.8937201384 2.8312413375 2.7767288255 2.7290193058 
2.6870952876 2.6500882075 2.617266536 4.7123889804 4.7123889804 4.7123889804 4.7123889804 4.7123889804 4.7123889804 
4.7123889804 4.7123889804 4.7123889804 4.6087898617 4.4991390697 4.3857031936 4.2712800401 4.1588146215 4.0509635631 
3.94975894 3.8564636551 3.7716124825 4.8159880991 4.9256388911 5.0390747672 5.1534979207 5.2659633393 5.3738143976 
5.4750190208 5.5683143056 5.6531654782 4.6087898617 4.4991390697 4.3857031936 4.2712800401 4.1588146215 4.0509635631 
3.94975894 3.8564636551 3.7716124825 4.8159880991 4.9256388911 5.0390747672 5.1534979207 5.2659633393 5.3738143976 
5.4750190208 5.5683143056 5.6531654782 1.5707963268 1.5707963268 1.5707963268 1.5707963268 1.5707963268 1.5707963268 
1.5707963268 1.5707963268 1.5707963268 1.6743954455 1.7840462375 1.8974821136 2.0119052671 2.1243706857 2.232221744 
2.3334263672 2.426721652 2.5115728246 1.4671972081 1.3575464161 1.24411054 1.1296873865 1.0172219679 0.90937090954 
0.80816628637 0.71487100155 0.63001982895 1.6743954455 1.7840462375 1.8974821136 2.0119052671 2.1243706857 2.232221744 
2.3334263672 2.426721652 2.5115728246 1.4671972081 1.3575464161 1.24411054 1.1296873865 1.0172219679 0.90937090954 
0.80816628637 0.71487100155 0.63001982895 3.6007720849 3.4966939854 3.3839471039 3.2645756454 3.1415926536 3.0186096618 
2.8992382033 2.7864913217 2.6824132222 5.8240058758 5.9280839753 6.0408308569 6.1602023154 6.2831853072 0.12298299178 
0.2423544503 0.35510133185 0.45917943135 6.0560271438 5.7885595667 5.9702140275 5.5125918794 5.6029703303 5.7885595667 
5.2659633393 5.2659633393 5.2659633393 5.2659633393 5.0674903122 5.0120975802 4.9155579264 4.7123889804 4.1588146215 
4.9155579264 4.8353719722 4.7123889804 4.5092200343 4.1588146215 3.6362183941 4.8004512023 4.7123889804 4.5894059886 
4.4126803806 4.1588146215 3.8218076305 3.4545639333 4.7123889804 4.6243267584 4.5092200343 4.3572876485 4.1588146215 
3.9121860814 3.6362183941 3.368750817 6.0174235957 5.9434319871 5.8263323547 5.8809213739 5.7674481418 5.6279784266 
5.8278025282 5.718968232 5.5891129425 5.4372443565 5.7823484065 5.678536687 5.5575666702 5.4192596322 5.2659633393 
5.743164462 5.6444075337 5.5314983644 5.4046708639 5.2659633393 5.1195510325 5.7091357773 5.6152775188 5.5096229709 
5.3926039573 5.2659633393 5.1329233157 4.9978930058 5.6793730533 5.5901633916 5.4910209005 5.3824597928 5.2659633393 
5.1440684722 5.0201624502 4.8979782167 5.5683143056 5.4750190208 5.4750190208 5.3738143976 5.3738143976 5.3738143976 
5.2659633393 5.2659633393 5.2659633393 5.2659633393 5.1534979207 5.1534979207 5.1534979207 5.1534979207 5.1534979207 
5.0390747672 5.0390747672 5.0390747672 5.0390747672 5.0390747672 5.0390747672 4.9256388911 4.9256388911 4.9256388911 
4.9256388911 4.9256388911 4.9256388911 4.9256388911 4.8159880991 4.8159880991 4.8159880991 4.8159880991 4.8159880991 
4.8159880991 4.8159880991 4.8159880991 4.6087898617 4.6087898617 4.4991390697 4.6087898617 4.4991390697 4.3857031936 
4.6087898617 4.4991390697 4.3857031936 4.2712800401 4.6087898617 4.4991390697 4.3857031936 4.2712800401 4.1588146215 
4.6087898617 4.4991390697 4.3857031936 4.2712800401 4.1588146215 4.0509635631 4.6087898617 4.4991390697 4.3857031936 
4.2712800401 4.1588146215 4.0509635631 3.94975894 4.6087898617 4.4991390697 4.3857031936 4.2712800401 4.1588146215 
4.0509635631 3.94975894 3.8564636551 4.526799744 4.4046155105 4.426884955 4.2807094886 4.2918546451 4.3052269283 
4.1588146215 4.1588146215 4.1588146215 4.1588146215 4.042318168 4.0321740035 4.0201070968 4.0055183285 3.9875336042 
3.9337570603 3.9151549899 3.8932795963 3.8672112905 3.8356650183 3.7967995342 3.8346145692 3.809500442 3.7803704271 
3.7462412737 3.7058097288 3.657329819 3.5984456061 3.7454049075 3.7156421835 3.6816134988 3.6424295543 3.5969754326 
3.5438565869 3.4813459737 3.4073543651 3.5642842451 3.4524645613 3.5233842518 3.3320300872 3.403123212 3.4773852225 
3.20576226 3.2746326772 3.348015857 3.4255060145 3.0774230472 3.1415926536 3.2112816139 3.2864685043 3.3668817272 
2.95115522 3.00855263 3.0719036933 3.1415926536 3.2178377658 3.3005964304 2.8307207459 2.8800620952 2.9351694502 
2.9967168029 3.0653475414 3.1415926536 3.225752376 2.718901062 2.7598010554 2.8058000847 2.8576792927 2.91630358 
2.9825888767 3.0574329311 3.1415926536 3.5642842451 3.5233842518 3.4524645613 3.4773852225 3.403123212 3.3320300872 
3.4255060145 3.348015857 3.2746326772 3.20576226 3.3668817272 3.2864685043 3.2112816139 3.1415926536 3.0774230472 
3.3005964304 3.2178377658 3.1415926536 3.0719036933 3.00855263 2.95115522 3.225752376 3.1415926536 3.0653475414 
2.9967168029 2.9351694502 2.8800620952 2.8307207459 3.1415926536 3.0574329311 2.9825888767 2.91630358 2.8576792927 
2.8058000847 2.7598010554 2.718901062 4.526799744 4.426884955 4.4046155105 4.3052269283 4.2918546451 4.2807094886 
4.1588146215 4.1588146215 4.1588146215 4.1588146215 3.9875336042 4.0055183285 4.0201070968 4.0321740035 4.042318168 
3.7967995342 3.8356650183 3.8672112905 3.8932795963 3.9151549899 3.9337570603 3.5984456061 3.657329819 3.7058097288 
3.7462412737 3.7803704271 3.809500442 3.8346145692 3.4073543651 3.4813459737 3.5438565869 3.5969754326 3.6424295543 
3.6816134988 3.7156421835 3.7454049075 4.7123889804 4.8004512023 4.6243267584 4.9155579264 4.7123889804 4.5092200343 
5.0674903122 4.8353719722 4.5894059886 4.3572876485 5.2659633393 5.0120975802 4.7123889804 4.4126803806 4.1588146215 
5.5125918794 5.2659633393 4.9155579264 4.5092200343 4.1588146215 3.9121860814 5.7885595667 5.6029703303 5.2659633393 
4.7123889804 4.1588146215 3.8218076305 3.6362183941 6.0560271438 5.9702140275 5.7885595667 5.2659633393 4.1588146215 
3.6362183941 3.4545639333 3.368750817 0.22715816343 0.49462574053 0.3129712797 0.77059342779 0.68021497688 0.49462574053 
1.0172219679 1.0172219679 1.0172219679 1.0172219679 1.2156949949 1.271087727 1.3676273807 1.5707963268 2.1243706857 
1.3676273807 1.447813335 1.5707963268 1.7739652728 2.1243706857 2.6469669131 1.4827341049 1.5707963268 1.6937793186 
1.8705049266 2.1243706857 2.4613776767 2.8286213739 1.5707963268 1.6588585487 1.7739652728 1.9258976586 2.1243706857 
2.3709992258 2.6469669131 2.9144344902 1.7563855631 1.8785697967 1.8563003522 2.0024758186 1.9913306621 1.9779583789 
2.1243706857 2.1243706857 2.1243706857 2.1243706857 2.2408671392 2.2510113037 2.2630782103 2.2776669786 2.295651703 
2.3494282469 2.3680303173 2.3899057108 2.4159740166 2.4475202889 2.486385773 2.448570738 2.4736848652 2.5028148801 
2.5369440334 2.5773755784 2.6258554882 2.6847397011 2.5377803997 2.5675431237 2.6015718084 2.6407557529 2.6862098746 
2.7393287203 2.8018393335 2.8758309421 1.6743954455 1.6743954455 1.7840462375 1.6743954455 1.7840462375 1.8974821136 
1.6743954455 1.7840462375 1.8974821136 2.0119052671 1.6743954455 1.7840462375 1.8974821136 2.0119052671 2.1243706857 
1.6743954455 1.7840462375 1.8974821136 2.0119052671 2.1243706857 2.232221744 1.6743954455 1.7840462375 1.8974821136 
2.0119052671 2.1243706857 2.232221744 2.3334263672 1.6743954455 1.7840462375 1.8974821136 2.0119052671 2.1243706857 
2.232221744 2.3334263672 2.426721652 1.4671972081 1.3575464161 1.4671972081 1.24411054 1.3575464161 1.4671972081 
1.1296873865 1.24411054 1.3575464161 1.4671972081 1.0172219679 1.1296873865 1.24411054 1.3575464161 1.4671972081 
0.90937090954 1.0172219679 1.1296873865 1.24411054 1.3575464161 1.4671972081 0.80816628637 0.90937090954 1.0172219679 
1.1296873865 1.24411054 1.3575464161 1.4671972081 0.71487100155 0.80816628637 0.90937090954 1.0172219679 1.1296873865 
1.24411054 1.3575464161 1.4671972081 0.60381225391 0.57404952988 0.69302191562 0.54002084522 0.66790778838 0.79216440667 
0.50083690068 0.63877777351 0.77356233629 0.90072551443 0.45538277901 0.60464862014 0.75168694275 0.89058134991 1.0172219679 
0.40226393329 0.56421707518 0.72561863695 0.87851444325 1.0172219679 1.139116835 0.33975332011 0.51573716537 0.69407236469 
0.86392567495 1.0172219679 1.1502619915 1.2630228569 0.26576171152 0.45685295248 0.6552068806 0.84594095064 1.0172219679 
1.1636342747 1.2852923014 1.3852070904 0.22715816343 0.3129712797 0.49462574053 0.49462574053 0.68021497688 0.77059342779 
1.0172219679 1.0172219679 1.0172219679 1.0172219679 2.1243706857 1.5707963268 1.3676273807 1.271087727 1.2156949949 
2.6469669131 2.1243706857 1.7739652728 1.5707963268 1.447813335 1.3676273807 2.8286213739 2.4613776767 2.1243706857 
1.8705049266 1.6937793186 1.5707963268 1.4827341049 2.9144344902 2.6469669131 2.3709992258 2.1243706857 1.9258976586 
1.7739652728 1.6588585487 1.5707963268 1.7563855631 1.8563003522 1.8785697967 1.9779583789 1.9913306621 2.0024758186 
2.1243706857 2.1243706857 2.1243706857 2.1243706857 2.295651703 2.2776669786 2.2630782103 2.2510113037 2.2408671392 
2.486385773 2.4475202889 2.4159740166 2.3899057108 2.3680303173 2.3494282469 2.6847397011 2.6258554882 2.5773755784 
2.5369440334 2.5028148801 2.4736848652 2.448570738 2.8758309421 2.8018393335 2.7393287203 2.6862098746 2.6407557529 
2.6015718084 2.5675431237 2.5377803997 5.8604937156 5.901393709 5.9723133995 5.9473927383 6.0216547488 6.0927478736 
5.9992719463 6.0767621038 6.1501452836 6.2190157008 6.0578962336 6.1383094565 6.2134963469 0 0.064169606361 
6.1241815303 6.206940195 6.2831853072 0.069688960264 0.13304002361 0.19043743361 6.1990255847 0 0.07624511221 
0.14487585072 0.20642320337 0.26153055843 0.3108719077 0 0.084159722458 0.15900377685 0.22528907359 0.28391336087 
0.3357925689 0.38179159818 0.42269159155 5.8604937156 5.9723133995 5.901393709 6.0927478736 6.0216547488 5.9473927383 
6.2190157008 6.1501452836 6.0767621038 5.9992719463 0.064169606361 0 6.2134963469 6.1383094565 6.0578962336 
0.19043743361 0.13304002361 0.069688960264 6.2831853072 6.206940195 6.1241815303 0.3108719077 0.26153055843 0.20642320337 
0.14487585072 0.07624511221 6.2831853072 6.1990255847 0.42269159155 0.38179159818 0.3357925689 0.28391336087 0.22528907359 
0.15900377685 0.084159722458 0 5.6793730533 5.7091357773 5.5901633916 5.743164462 5.6152775188 5.4910209005 
5.7823484065 5.6444075337 5.5096229709 5.3824597928 5.8278025282 5.678536687 5.5314983644 5.3926039573 5.2659633393 
5.8809213739 5.718968232 5.5575666702 5.4046708639 5.2659633393 5.1440684722 5.9434319871 5.7674481418 5.5891129425 
5.4192596322 5.2659633393 5.1329233157 5.0201624502 6.0174235957 5.8263323547 5.6279784266 5.4372443565 5.2659633393 
5.1195510325 4.9978930058 4.8979782167 1.3852070904 1.2852923014 1.2630228569 1.1636342747 1.1502619915 1.139116835 
1.0172219679 1.0172219679 1.0172219679 1.0172219679 0.84594095064 0.86392567495 0.87851444325 0.89058134991 0.90072551443 
0.6552068806 0.69407236469 0.72561863695 0.75168694275 0.77356233629 0.79216440667 0.45685295248 0.51573716537 0.56421707518 
0.60464862014 0.63877777351 0.66790778838 0.69302191562 0.26576171152 0.33975332011 0.40226393329 0.45538277901 0.50083690068 
0.54002084522 0.57404952988 0.60381225391 
_paraPhiHalf 1 1002 double
0 3.1415926536 0 3.1415926536 1.5707963268 1.5707963268 1.5707963268 1.5707963268 2.5880182947 
0.5535743589 2.5880182947 0.5535743589 0 0 0 0 3.1415926536 3.1415926536 
3.1415926536 3.1415926536 3.1415926536 0.17788134 0.38438696014 0.60631181711 0.82323535693 1.0172219679 1.1799687454 
1.3118704726 1.4175000338 1.5022335207 0.17788134 0.38438696014 0.60631181711 0.82323535693 1.0172219679 1.1799687454 
1.3118704726 1.4175000338 1.5022335207 0.093902416448 0.17615329733 0.2478725152 0.31035131605 0.36486382811 0.41257334776 
0.45449736604 0.4915044461 0.52432611754 0.093902416448 0.17615329733 0.2478725152 0.31035131605 0.36486382811 0.41257334776 
0.45449736604 0.4915044461 0.52432611754 2.9637113136 2.7572056934 2.5352808365 2.3183572967 2.1243706857 1.9616239082 
1.829722181 1.7240926197 1.6393591329 2.9637113136 2.7572056934 2.5352808365 2.3183572967 2.1243706857 1.9616239082 
1.829722181 1.7240926197 1.6393591329 3.0476902371 2.9654393563 2.8937201384 2.8312413375 2.7767288255 2.7290193058 
2.6870952876 2.6500882075 2.617266536 3.0476902371 2.9654393563 2.8937201384 2.8312413375 2.7767288255 2.7290193058 
2.6870952876 2.6500882075 2.617266536 0 0 0 0 3.1415926536 3.1415926536 
3.1415926536 3.1415926536 3.1415926536 0.17788134 0.38438696014 0.60631181711 0.82323535693 1.0172219679 1.1799687454 
1.3118704726 1.4175000338 1.5022335207 0.17788134 0.38438696014 0.60631181711 0.82323535693 1.0172219679 1.1799687454 
1.3118704726 1.4175000338 1.5022335207 0.093902416448 0.17615329733 0.2478725152 0.31035131605 0.36486382811 0.41257334776 
0.45449736604 0.4915044461 0.52432611754 0.093902416448 0.17615329733 0.2478725152 0.31035131605 0.36486382811 0.41257334776 
0.45449736604 0.4915044461 0.52432611754 2.9637113136 2.7572056934 2.5352808365 2.3183572967 2.1243706857 1.9616239082 
1.829722181 1.7240926197 1.6393591329 2.9637113136 2.7572056934 2.5352808365 2.3183572967 2.1243706857 1.9616239082 
1.829722181 1.7240926197 1.6393591329 3.0476902371 2.9654393563 2.8937201384 2.8312413375 2.7767288255 2.7290193058 
2.6870952876 2.6500882075 2.617266536 3.0476902371 2.9654393563 2.8937201384 2.8312413375 2.7767288255 2.7290193058 
2.6870952876 2.6500882075 2.617266536 1.5707963268 1.5707963268 1.5707963268 1.5707963268 1.5707963268 1.5707963268 
1.5707963268 1.5707963268 1.5707963268 1.6743954455 1.7840462375 1.8974821136 2.0119052671 2.1243706857 2.232221744 
2.3334263672 2.426721652 2.5115728246 1.4671972081 1.3575464161 1.24411054 1.1296873865 1.0172219679 0.90937090954 
0.80816628637 0.71487100155 0.63001982895 1.6743954455 1.7840462375 1.8974821136 2.0119052671 2.1243706857 2.232221744 
2.3334263672 2.426721652 2.5115728246 1.4671972081 1.3575464161 1.24411054 1.1296873865 1.0172219679 0.90937090954 
0.80816628637 0.71487100155 0.63001982895 1.5707963268 1.5707963268 1.5707963268 1.5707963268 1.5707963268 1.5707963268 
1.5707963268 1.5707963268 1.5707963268 1.6743954455 1.7840462375 1.8974821136 2.0119052671 2.1243706857 2.232221744 
2.3334263672 2.426721652 2.5115728246 1.4671972081 1.3575464161 1.24411054 1.1296873865 1.0172219679 0.90937090954 
0.80816628637 0.71487100155 0.63001982895 1.6743954455 1.7840462375 1.8974821136 2.0119052671 2.1243706857 2.232221744 
2.3334263672 2.426721652 2.5115728246 1.4671972081 1.3575464161 1.24411054 1.1296873865 1.0172219679 0.90937090954 
0.80816628637 0.71487100155 0.63001982895 2.6824132222 2.7864913217 2.8992382033 3.0186096618 3.1415926536 3.0186096618 
2.8992382033 2.7864913217 2.6824132222 0.45917943135 0.35510133185 0.2423544503 0.12298299178 0 0.12298299178 
0.2423544503 0.35510133185 0.45917943135 0.22715816343 0.49462574053 0.3129712797 0.77059342779 0.68021497688 0.49462574053 
1.0172219679 1.0172219679 1.0172219679 1.0172219679 1.2156949949 1.271087727 1.3676273807 1.5707963268 2.1243706857 
1.3676273807 1.447813335 1.5707963268 1.7739652728 2.1243706857 2.6469669131 1.4827341049 1.5707963268 1.6937793186 
1.8705049266 2.1243706857 2.4613776767 2.8286213739 1.5707963268 1.6588585487 1.7739652728 1.9258976586 2.1243706857 
2.3709992258 2.6469669131 2.9144344902 0.26576171152 0.33975332011 0.45685295248 0.40226393329 0.51573716537 0.6552068806 
0.45538277901 0.56421707518 0.69407236469 0.84594095064 0.50083690068 0.60464862014 0.72561863695 0.86392567495 1.0172219679 
0.54002084522 0.63877777351 0.75168694275 0.87851444325 1.0172219679 1.1636342747 0.57404952988 0.66790778838 0.77356233629 
0.89058134991 1.0172219679 1.1502619915 1.2852923014 0.60381225391 0.69302191562 0.79216440667 0.90072551443 1.0172219679 
1.139116835 1.2630228569 1.3852070904 0.71487100155 0.80816628637 0.80816628637 0.90937090954 0.90937090954 0.90937090954 
1.0172219679 1.0172219679 1.0172219679 1.0172219679 1.1296873865 1.1296873865 1.1296873865 1.1296873865 1.1296873865 
1.24411054 1.24411054 1.24411054 1.24411054 1.24411054 1.24411054 1.3575464161 1.3575464161 1.3575464161 
1.3575464161 1.3575464161 1.3575464161 1.3575464161 1.4671972081 1.4671972081 1.4671972081 1.4671972081 1.4671972081 
1.4671972081 1.4671972081 1.4671972081 1.6743954455 1.6743954455 1.7840462375 1.6743954455 1.7840462375 1.8974821136 
1.6743954455 1.7840462375 1.8974821136 2.0119052671 1.6743954455 1.7840462375 1.8974821136 2.0119052671 2.1243706857 
1.6743954455 1.7840462375 1.8974821136 2.0119052671 2.1243706857 2.232221744 1.6743954455 1.7840462375 1.8974821136 
2.0119052671 2.1243706857 2.232221744 2.3334263672 1.6743954455 1.7840462375 1.8974821136 2.0119052671 2.1243706857 
2.232221744 2.3334263672 2.426721652 1.7563855631 1.8785697967 1.8563003522 2.0024758186 1.9913306621 1.9779583789 
2.1243706857 2.1243706857 2.1243706857 2.1243706857 2.2408671392 2.2510113037 2.2630782103 2.2776669786 2.295651703 
2.3494282469 2.3680303173 2.3899057108 2.4159740166 2.4475202889 2.486385773 2.448570738 2.4736848652 2.5028148801 
2.5369440334 2.5773755784 2.6258554882 2.6847397011 2.5377803997 2.5675431237 2.6015718084 2.6407557529 2.6862098746 
2.7393287203 2.8018393335 2.8758309421 2.718901062 2.8307207459 2.7598010554 2.95115522 2.8800620952 2.8058000847 
3.0774230472 3.00855263 2.9351694502 2.8576792927 3.0774230472 3.1415926536 3.0719036933 2.9967168029 2.91630358 
2.95115522 3.00855263 3.0719036933 3.1415926536 3.0653475414 2.9825888767 2.8307207459 2.8800620952 2.9351694502 
2.9967168029 3.0653475414 3.1415926536 3.0574329311 2.718901062 2.7598010554 2.8058000847 2.8576792927 2.91630358 
2.9825888767 3.0574329311 3.1415926536 2.718901062 2.7598010554 2.8307207459 2.8058000847 2.8800620952 2.95115522 
2.8576792927 2.9351694502 3.00855263 3.0774230472 2.91630358 2.9967168029 3.0719036933 3.1415926536 3.0774230472 
2.9825888767 3.0653475414 3.1415926536 3.0719036933 3.00855263 2.95115522 3.0574329311 3.1415926536 3.0653475414 