# vtk DataFile Version 5.1
vtk output
ASCII
DATASET POLYDATA
POINTS 1002 float
-5.1074 -0.148427 -3.46051 5.09969 0.36273 -3.04249 -4.96668 0.271231 4.6143 
4.45796 -0.204769 3.22179 0.517836 5.46901 -2.8777 0.647091 6.86902 3.39269 
0.166329 -4.97565 -2.54596 0.561938 -5.26986 2.74262 8.50475 4.25388 0.179462 
-10.1011 3.81809 -1.20095 8.88018 -5.10716 -0.436734 -8.47361 -4.53212 0.10133 
-4.26458 -0.104144 -3.47861 -3.31613 -0.0520969 -3.68567 -2.22766 -0.0197935 -4.03553 
-1.03792 0.0119529 -4.21008 0.124805 0.0789577 -3.98844 1.19489 0.161176 -3.56794 
2.24152 0.222601 -3.25924 3.29927 0.274278 -3.12322 4.28029 0.328475 -3.07013 
-4.82984 0.443213 -3.14642 -4.58259 1.0028 -3.10359 -4.29123 1.4931 -3.34591 
-3.76365 2.0186 -3.49126 -2.95696 2.71224 -3.23554 -2.12734 3.4829 -2.86427 
-1.48234 4.10668 -2.805 -0.908127 4.55781 -2.982 -0.23114 4.98817 -3.04978 
-4.87639 -0.716929 -3.77803 -4.55964 -1.24985 -3.86829 -4.08521 -1.73182 -3.64601 
-3.474 -2.25045 -3.36636 -2.8597 -2.87265 -3.31447 -2.32843 -3.5278 -3.39512 
-1.80264 -4.09054 -3.34732 -1.1794 -4.49749 -3.12684 -0.48673 -4.7669 -2.83791 
-5.7815 0.218059 -3.24125 -6.57086 0.630564 -2.97778 -7.43888 1.03159 -2.68884 
-8.28049 1.40745 -2.50819 -9.0737 1.83292 -2.61932 -9.87004 2.39088 -2.90452 
-10.5475 3.02636 -2.93768 -10.835 3.54848 -2.51604 -10.6332 3.80819 -1.84827 
-5.81026 -0.541148 -3.72944 -6.50516 -0.935735 -3.84757 -7.08672 -1.31039 -3.60712 
-7.55569 -1.719 -3.16475 -7.97043 -2.24806 -2.8534 -8.28064 -2.88421 -2.62403 
-8.40555 -3.49713 -2.14312 -8.41371 -3.97685 -1.36954 -8.42987 -4.31046 -0.560548 
4.84666 0.850755 -3.0445 4.54656 1.39616 -3.04393 4.21858 2.03761 -3.01803 
3.83525 2.69707 -2.90018 3.33756 3.24629 -2.73266 2.73754 3.72027 -2.71964 
2.1298 4.23743 -2.95077 1.57059 4.75548 -3.20347 1.04032 5.16125 -3.1951 
4.87185 -0.161082 -3.00385 4.58868 -0.798806 -2.85088 4.10424 -1.53362 -2.60373 
3.37279 -2.2395 -2.47361 2.59646 -2.85454 -2.71443 2.01841 -3.44924 -3.22017 
1.61941 -4.01174 -3.53638 1.21084 -4.42652 -3.40256 0.707455 -4.70286 -2.98048 
5.7405 0.696443 -3.0145 6.43729 1.0778 -2.97978 7.12746 1.51357 -2.96155 
7.79993 2.04157 -2.89397 8.45673 2.68953 -2.69046 8.97352 3.36505 -2.36667 
9.18593 3.8871 -1.92634 9.09716 4.166 -1.29886 8.83684 4.25677 -0.530799 
5.6648 0.0235405 -3.01785 6.21771 -0.409806 -2.95219 6.82834 -0.898406 -2.7899 
7.4573 -1.40144 -2.52751 7.94996 -1.90547 -2.2581 8.2573 -2.44435 -2.07196 
8.49041 -3.08238 -1.90375 8.70962 -3.82347 -1.5887 8.85778 -4.55101 -1.06756 
-3.97839 0.456005 4.66706 -2.98441 0.555608 4.64936 -1.9832 0.587967 4.62233 
-0.970636 0.588152 4.57288 0.0256168 0.537166 4.37321 1.00058 0.394342 4.02297 
1.97869 0.188582 3.72132 2.926 0.000405093 3.55893 3.7626 -0.126102 3.42322 
-4.55305 0.851267 4.95533 -4.08143 1.49955 5.22184 -3.5642 2.21758 5.24144 
-2.98357 2.97804 5.02024 -2.30023 3.71931 4.76457 -1.53904 4.42181 4.60775 
-0.813444 5.14055 4.45723 -0.215269 5.87025 4.18859 0.256348 6.48306 3.80958 
-4.72564 -0.173626 4.40298 -4.43257 -0.695693 4.31627 -4.02297 -1.28832 4.20297 
-3.44304 -1.90801 3.82874 -2.74069 -2.51995 3.2924 -2.01215 -3.1314 2.97141 
-1.29459 -3.7552 2.96214 -0.600182 -4.35692 3.00561 0.0292274 -4.87096 2.91973 
-5.75887 0.376226 4.69361 -6.58429 0.489155 4.61652 -7.30262 0.708065 4.20272 
-7.84455 1.10388 3.42304 -8.27768 1.61044 2.47649 -8.69858 2.08593 1.58042 
-9.13907 2.50294 0.782055 -9.57503 2.94263 0.0468623 -9.92922 3.41441 -0.622979 
-5.85268 -0.243037 4.32462 -6.78175 -0.807944 3.99507 -7.5996 -1.36677 3.64486 
-8.12764 -1.89334 3.2508 -8.37585 -2.42572 2.75877 -8.57236 -3.00618 2.16477 
-8.8216 -3.58616 1.57537 -8.95183 -4.05605 1.08108 -8.81283 -4.36133 0.625023 
4.16792 0.380582 3.17649 3.83999 1.06856 3.3035 3.46442 1.77681 3.5502 
3.04235 2.44263 3.66277 2.58994 3.15364 3.57713 2.12546 3.97821 3.54486 
1.67759 4.79938 3.67453 1.28266 5.52575 3.76702 0.948452 6.21157 3.66302 
4.32729 -0.703616 3.4495 4.13191 -1.24913 3.53 3.833 -1.89839 3.3519 
3.47218 -2.63343 3.13305 3.11408 -3.31934 3.22425 2.72294 -3.85555 3.57113 
2.22413 -4.28408 3.75275 1.64594 -4.67002 3.56147 1.0775 -5.00654 3.15435 
4.95007 0.0854072 2.93152 5.53645 0.433474 2.74834 6.20628 0.843455 2.73189 
6.81191 1.3153 2.64071 7.23648 1.82076 2.20804 7.5822 2.30115 1.61736 
7.96967 2.73385 1.2415 8.31052 3.17641 1.05066 8.48 3.69076 0.738516 
5.03301 -0.595437 3.09581 5.64629 -1.06717 2.84116 6.2965 -1.6407 2.46885 
6.92951 -2.24973 2.10075 7.48843 -2.81136 1.81272 8.02602 -3.3449 1.5543 
8.59568 -3.91449 1.23078 9.04409 -4.48005 0.770259 9.1454 -4.9094 0.177695 
0.64602 6.01113 -2.28377 0.705953 6.68968 -1.5406 0.697508 7.48208 -0.995552 
0.740492 8.22923 -0.685664 0.887052 8.67248 -0.201517 0.993486 8.67969 0.67853 
0.940001 8.36479 1.64072 0.802968 7.91131 2.37395 0.699955 7.40531 2.91531 
1.58387 5.79446 -2.89539 2.58611 6.08677 -2.89134 3.49847 6.21054 -2.7134 
4.45865 6.11008 -2.34465 5.53813 5.96011 -2.01069 6.54513 5.97765 -1.8173 
7.2642 6.04065 -1.53685 7.73425 5.79549 -1.0007 8.12303 5.12743 -0.354941 
-0.524235 5.47043 -2.62377 -1.63547 5.50072 -2.43087 -2.72198 5.54489 -2.28341 
-3.81153 5.6044 -2.08259 -5.00126 5.67344 -1.80184 -6.27034 5.62989 -1.56762 
-7.4894 5.33142 -1.48281 -8.56596 4.83002 -1.47433 -9.45123 4.29827 -1.4001 
1.20327 6.60783 3.0687 1.80153 6.09892 2.56504 2.52625 5.57862 2.00635 
3.48939 5.32279 1.52354 4.65663 5.34366 1.16051 5.76708 5.40438 0.924814 
6.60973 5.32946 0.803643 7.26069 5.09868 0.697351 7.88759 4.73111 0.492144 
0.0490329 7.19734 3.19748 -0.756269 7.14831 2.74742 -1.77426 6.69284 2.20451 
-2.91259 6.10827 1.77495 -4.10871 5.65882 1.41032 -5.37768 5.27057 0.902596 
-6.68377 4.80302 0.271326 -7.93337 4.34981 -0.297929 -9.08008 4.03498 -0.764008 
0.210169 -5.34824 -2.08342 0.264704 -5.84905 -1.52106 0.370794 -6.39068 -0.906452 
0.541084 -6.72998 -0.330284 0.696775 -6.69637 0.208584 0.740643 -6.40573 0.798249 
0.681675 -6.09641 1.41836 0.605912 -5.84845 1.95343 0.567363 -5.59233 2.37656 
1.07776 -5.09158 -2.5581 1.86052 -5.45955 -2.66286 2.55955 -5.89344 -2.62856 
3.45711 -5.93973 -2.15441 4.65331 -5.52546 -1.36669 5.80892 -5.22264 -0.821951 
6.65514 -5.39218 -0.754002 7.35889 -5.6591 -0.823811 8.1257 -5.56484 -0.709359 
-0.786245 -5.23595 -2.41972 -1.73344 -5.55016 -2.40231 -2.61937 -5.71584 -2.29457 
-3.56693 -5.72218 -1.99617 -4.64015 -5.77573 -1.70166 -5.6592 -5.89109 -1.55416 
-6.46964 -5.80464 -1.35071 -7.15707 -5.42436 -0.903462 -7.8365 -4.94579 -0.343535 
1.35166 -5.53426 2.7883 2.1631 -5.95954 2.83637 3.09179 -6.4781 2.79403 
4.22238 -6.80635 2.50516 5.45526 -6.76075 1.96613 6.5444 -6.55053 1.38416 
7.34533 -6.42463 0.907887 7.9209 -6.25915 0.484132 8.4088 -5.81565 0.0312111 
-0.302175 -5.30056 2.48631 -1.30667 -5.336 2.24261 -2.39485 -5.33919 1.98692 
-3.51212 -5.38305 1.6713 -4.66803 -5.56782 1.31415 -5.84055 -5.77732 1.02453 
-6.87492 -5.75158 0.848582 -7.62639 -5.42707 0.687098 -8.11881 -4.9692 0.437694 
9.10388 3.32111 0.211684 9.61155 2.35845 0.20968 9.89495 1.4412 0.189465 
10.0277 0.409815 0.0670255 10.2343 -0.834376 -0.256623 10.5284 -1.98229 -0.645343 
10.6163 -2.76306 -0.819629 10.2782 -3.41196 -0.730828 9.61652 -4.22408 -0.561215 
-10.9827 3.36775 -1.27437 -11.6746 2.72017 -1.20206 -11.9216 1.84067 -0.877191 
-11.6187 0.907792 -0.364086 -11.0044 -0.0321382 0.0188891 -10.4359 -1.15921 0.0551386 
-9.99993 -2.39494 -0.0656136 -9.55756 -3.38812 -0.0696572 -9.03403 -4.03663 0.0373401 
-3.96232 0.489867 -3.31221 -3.68722 1.04082 -3.41904 -2.95572 0.538811 -3.67235 
-3.29273 1.5361 -3.68514 -2.58004 1.10189 -3.75623 -1.73591 0.58057 -3.9626 
-2.58736 2.12155 -3.68587 -2.02823 1.65263 -3.79311 -1.22875 1.16499 -3.78309 
-0.433101 0.612532 -3.85921 -1.66973 2.88386 -3.27864 -1.19522 2.32557 -3.52754 
-0.594401 1.773 -3.54905 0.0955078 1.17204 -3.48662 0.706632 0.62238 -3.48585 
-0.86573 3.6362 -2.89445 -0.289583 3.09457 -3.03944 0.219757 2.49644 -3.19799 
0.699391 1.80068 -3.27422 1.18202 1.12333 -3.24718 1.69411 0.62128 -3.22291 
-0.255425 4.19974 -2.89047 0.422213 3.74382 -2.76901 1.01627 3.20924 -2.82043 
1.46635 2.55363 -3.04565 1.82396 1.79376 -3.20867 2.22294 1.12738 -3.20067 
2.73742 0.663435 -3.14476 0.35172 4.66311 -3.09933 0.985533 4.24394 -2.91086 
1.62414 3.7544 -2.71697 2.1949 3.22535 -2.77515 2.64029 2.5958 -3.01651 
3.00391 1.88134 -3.16706 3.39603 1.24683 -3.15501 3.84669 0.761077 -3.10236 
-5.53152 0.835791 -2.96766 -6.35119 1.25983 -2.81778 -5.27655 1.40516 -3.00571 
-7.21951 1.68487 -2.63984 -6.04785 1.88407 -2.83743 -4.8828 1.96337 -3.13301 
-8.00796 2.09656 -2.5518 -6.81232 2.39455 -2.54061 -5.49693 2.57939 -2.63569 
-4.19238 2.63893 -2.93053 -8.69785 2.54367 -2.69397 -7.4524 2.84326 -2.37356 
-6.08238 3.16672 -2.09989 -4.6564 3.34819 -2.16061 -3.33131 3.41359 -2.54243 
-9.31909 3.09644 -2.82926 -7.9789 3.2763 -2.45087 -6.57471 3.5888 -1.9665 
-5.13139 3.87322 -1.75141 -3.78677 4.01845 -2.026 -2.596 4.07322 -2.50626 
-9.73953 3.69162 -2.59563 -8.42065 3.83062 -2.41886 -7.00665 4.0425 -2.08691 
-5.57334 4.26883 -1.86434 -4.24574 4.42273 -2.00068 -3.08826 4.5 -2.41232 
-2.00021 4.53817 -2.78946 -9.77927 4.13275 -2.02637 -8.65543 4.43006 -2.03396 
-7.35932 4.69872 -1.949 -5.9813 4.86866 -1.93109 -4.65659 4.92319 -2.09685 
-3.49416 4.93278 -2.39565 -2.42485 4.94557 -2.68206 -1.32831 4.96476 -2.89082 
-8.36653 4.74017 -0.903906 -7.11593 5.26801 -0.369968 -7.45952 5.53847 -0.918939 
-5.74414 5.67306 0.231433 -6.16231 6.11066 -0.326673 -6.39246 6.14897 -0.932891 
-4.38433 5.78297 0.776537 -4.76326 6.17207 0.228046 -5.11545 6.55091 -0.350873 
-5.20077 6.37236 -1.10939 -3.14407 5.91514 1.16245 -3.42108 5.93568 0.60203 
-3.75392 6.39559 0.0915327 -3.9762 6.72217 -0.561923 -3.97051 6.36485 -1.39707 
-1.98139 6.50585 1.56319 -2.17059 6.21997 0.910913 -2.40175 6.38732 0.32119 
-2.6415 6.89062 -0.187804 -2.77402 6.95589 -0.80705 -2.7825 6.33986 -1.59784 
-0.882789 7.30332 2.11982 -0.974092 7.17422 1.4113 -1.0825 7.15101 0.62351 
-1.26502 7.44398 -0.0244869 -1.45294 7.59745 -0.449855 -1.56275 7.13628 -0.958876 
[...]
POINT_DATA 1002
FIELD FieldData 4
_paraPhi 1 1002 double
6.2831853072 3.1415926536 6.2831853072 3.1415926536 4.7123889804 4.7123889804 1.5707963268 1.5707963268 3.6951670125 
5.7296109483 2.5880182947 0.5535743589 6.2831853072 6.2831853072 6.2831853072 6.2831853072 3.1415926536 3.1415926536 
3.1415926536 3.1415926536 3.1415926536 6.1053039672 5.898798347 5.6768734901 5.4599499503 5.2659633393 5.1032165617 
4.9713148346 4.8656852733 4.7809517865 0.17788134 0.38438696014 0.60631181711 0.82323535693 1.0172219679 1.1799687454 
1.3118704726 1.4175000338 1.5022335207 6.1892828907 6.1070320098 6.035312792 5.9728339911 5.9183214791 5.8706119594 
5.8286879411 5.7916808611 5.7588591896 0.093902416448 0.17615329733 0.2478725152 0.31035131605 0.36486382811 0.41257334776 
0.45449736604 0.4915044461 0.52432611754 3.3194739936 3.5259796137 3.7479044707 3.9648280105 4.1588146215 4.321561399 
4.4534631262 4.5590926874 4.6438261743 2.9637113136 2.7572056934 2.5352808365 2.3183572967 2.1243706857 1.9616239082 
1.829722181 1.7240926197 1.6393591329 3.23549507 3.3177459509 3.3894651688 3.4519439696 3.5064564817 3.5541660013 
3.5960900196 3.6330970997 3.6659187711 3.0476902371 2.9654393563 2.8937201384 2.8312413375 2.7767288255 2.7290193058 
2.6870952876 2.6500882075 2.617266536 6.2831853072 6.2831853072 6.2831853072 6.2831853072 3.1415926536 3.1415926536 
3.1415926536 3.1415926536 3.1415926536 6.1053039672 5.898798347 5.6768734901 5.4599499503 5.2659633393 5.1032165617 
4.9713148346 4.8656852733 4.7809517865 0.17788134 0.38438696014 0.60631181711 0.82323535693 1.0172219679 1.1799687454 
1.3118704726 1.4175000338 1.5022335207 6.1892828907 6.1070320098 6.035312792 5.9728339911 5.9183214791 5.8706119594 
5.8286879411 5.7916808611 5.7588591896 0.093902416448 0.17615329733 0.2478725152 0.31035131605 0.36486382811 0.41257334776 
0.45449736604 0.4915044461 0.52432611754 3.3194739936 3.5259796137 3.7479044707 3.9648280105 4.1588146215 4.321561399 
4.4534631262 4.5590926874 4.6438261743 2.9637113136 2.7572056934 2.5352808365 2.3183572967 2.1243706857 1.9616239082 
1.829722181 1.7240926197 1.6393591329 3.23549507 3.3177459509 3.3894651688 3.4519439696 3.5064564817 3.5541660013 
3.5960900196 3.6330970997 3.6659187711 3.0476902371 2.9654393563 2.8937201384 2.8312413375 2.7767288255 2.7290193058 
2.6870952876 2.6500882075 2.617266536 4.7123889804 4.7123889804 4.7123889804 4.7123889804 4.7123889804 4.7123889804 
4.7123889804 4.7123889804 4.7123889804 4.6087898617 4.4991390697 4.3857031936 4.2712800401 4.1588146215 4.0509635631 
3.94975894 3.8564636551 3.7716124825 4.8159880991 4.9256388911 5.0390747672 5.1534979207 5.2659633393 5.3738143976 
5.4750190208 5.5683143056 5.6531654782 4.6087898617 4.4991390697 4.3857031936 4.2712800401 4.1588146215 4.0509635631 
3.94975894 3.8564636551 3.7716124825 4.8159880991 4.9256388911 5.0390747672 5.1534979207 5.2659633393 5.3738143976 
5.4750190208 5.5683143056 5.6531654782 1.5707963268 1.5707963268 1.5707963268 1.5707963268 1.5707963268 1.5707963268 
1.5707963268 1.5707963268 1.5707963268 1.6743954455 1.7840462375 1.8974821136 2.0119052671 2.1243706857 2.232221744 
2.3334263672 2.426721652 2.5115728246 1.4671972081 1.3575464161 1.24411054 1.1296873865 1.0172219679 0.90937090954 
0.80816628637 0.71487100155 0.63001982895 1.6743954455 1.7840462375 1.8974821136 2.0119052671 2.1243706857 2.232221744 
2.3334263672 2.426721652 2.5115728246 1.4671972081 1.3575464161 1.24411054 1.1296873865 1.0172219679 0.90937090954 
0.80816628637 0.71487100155 0.63001982895 3.6007720849 3.4966939854 3.3839471039 3.2645756454 3.1415926536 3.0186096618 
2.8992382033 2.7864913217 2.6824132222 5.8240058758 5.9280839753 6.0408308569 6.1602023154 6.2831853072 0.12298299178 
0.2423544503 0.35510133185 0.45917943135 6.0560271438 5.7885595667 5.9702140275 5.5125918794 5.6029703303 5.7885595667 
5.2659633393 5.2659633393 5.2659633393 5.2659633393 5.0674903122 5.0120975802 4.9155579264 4.7123889804 4.1588146215 
4.9155579264 4.8353719722 4.7123889804 4.5092200343 4.1588146215 3.6362183941 4.8004512023 4.7123889804 4.5894059886 
4.4126803806 4.1588146215 3.8218076305 3.4545639333 4.7123889804 4.6243267584 4.5092200343 4.3572876485 4.1588146215 
3.9121860814 3.6362183941 3.368750817 6.0174235957 5.9434319871 5.8263323547 5.8809213739 5.7674481418 5.6279784266 
5.8278025282 5.718968232 5.5891129425 5.4372443565 5.7823484065 5.678536687 5.5575666702 5.4192596322 5.2659633393 
5.743164462 5.6444075337 5.5314983644 5.4046708639 5.2659633393 5.1195510325 5.7091357773 5.6152775188 5.5096229709 
5.3926039573 5.2659633393 5.1329233157 4.9978930058 5.6793730533 5.5901633916 5.4910209005 5.3824597928 5.2659633393 
5.1440684722 5.0201624502 4.8979782167 5.5683143056 5.4750190208 5.4750190208 5.3738143976 5.3738143976 5.3738143976 
5.2659633393 5.2659633393 5.2659633393 5.2659633393 5.1534979207 5.1534979207 5.1534979207 5.1534979207 5.1534979207 
5.0390747672 5.0390747672 5.0390747672 5.0390747672 5.0390747672 5.0390747672 4.9256388911 4.9256388911 4.9256388911 
4.9256388911 4.9256388911 4.9256388911 4.9256388911 4.8159880991 4.8159880991 4.8159880991 4.8159880991 4.8159880991 
4.8159880991 4.8159880991 4.8159880991 4.6087898617 4.6087898617 4.4991390697 4.6087898617 4.4991390697 4.3857031936 
4.6087898617 4.4991390697 4.3857031936 4.2712800401 4.6087898617 4.4991390697 4.3857031936 4.2712800401 4.1588146215 
4.6087898617 4.4991390697 4.3857031936 4.2712800401 4.1588146215 4.0509635631 4.6087898617 4.4991390697 4.3857031936 
4.2712800401 4.1588146215 4.0509635631 3.94975894 4.6087898617 4.4991390697 4.3857031936 4.2712800401 4.1588146215 
4.0509635631 3.94975894 3.8564636551 4.526799744 4.4046155105 4.426884955 4.2807094886 4.2918546451 4.3052269283 
4.1588146215 4.1588146215 4.1588146215 4.1588146215 4.042318168 4.0321740035 4.0201070968 4.0055183285 3.9875336042 
3.9337570603 3.9151549899 3.8932795963 3.8672112905 3.8356650183 3.7967995342 3.8346145692 3.809500442 3.7803704271 
3.7462412737 3.7058097288 3.657329819 3.5984456061 3.7454049075 3.7156421835 3.6816134988 3.6424295543 3.5969754326 
3.5438565869 3.4813459737 3.4073543651 3.5642842451 3.4524645613 3.5233842518 3.3320300872 3.403123212 3.4773852225 
3.20576226 3.2746326772 3.348015857 3.4255060145 3.0774230472 3.1415926536 3.2112816139 3.2864685043 3.3668817272 
2.95115522 3.00855263 3.0719036933 3.1415926536 3.2178377658 3.3005964304 2.8307207459 2.8800620952 2.9351694502 
2.9967168029 3.0653475414 3.1415926536 3.225752376 2.718901062 2.7598010554 2.8058000847 2.8576792927 2.91630358 
2.9825888767 3.0574329311 3.1415926536 3.5642842451 3.5233842518 3.4524645613 3.4773852225 3.403123212 3.3320300872 
3.4255060145 3.348015857 3.2746326772 3.20576226 3.3668817272 3.2864685043 3.2112816139 3.1415926536 3.0774230472 
3.3005964304 3.2178377658 3.1415926536 3.0719036933 3.00855263 2.95115522 3.225752376 3.1415926536 3.0653475414 
2.9967168029 2.9351694502 2.8800620952 2.8307207459 3.1415926536 3.0574329311 2.9825888767 2.91630358 2.8576792927 
2.8058000847 2.7598010554 2.718901062 4.526799744 4.426884955 4.4046155105 4.3052269283 4.2918546451 4.2807094886 
4.1588146215 4.1588146215 4.1588146215 4.1588146215 3.9875336042 4.0055183285 4.0201070968 4.0321740035 4.042318168 
3.7967995342 3.8356650183 3.8672112905 3.8932795963 3.9151549899 3.9337570603 3.5984456061 3.657329819 3.7058097288 
3.7462412737 3.7803704271 3.809500442 3.8346145692 3.4073543651 3.4813459737 3.5438565869 3.5969754326 3.6424295543 
3.6816134988 3.7156421835 3.7454049075 4.7123889804 4.8004512023 4.6243267584 4.9155579264 4.7123889804 4.5092200343 
5.0674903122 4.8353719722 4.5894059886 4.3572876485 5.2659633393 5.0120975802 4.7123889804 4.4126803806 4.1588146215 
5.5125918794 5.2659633393 4.9155579264 4.5092200343 4.1588146215 3.9121860814 5.7885595667 5.6029703303 5.2659633393 
4.7123889804 4.1588146215 3.8218076305 3.6362183941 6.0560271438 5.9702140275 5.7885595667 5.2659633393 4.1588146215 
3.6362183941 3.4545639333 3.368750817 0.22715816343 0.49462574053 0.3129712797 0.77059342779 0.68021497688 0.49462574053 
1.0172219679 1.0172219679 1.0172219679 1.0172219679 1.2156949949 1.271087727 1.3676273807 1.5707963268 2.1243706857 
1.3676273807 1.447813335 1.5707963268 1.7739652728 2.1243706857 2.6469669131 1.4827341049 1.5707963268 1.6937793186 
1.8705049266 2.1243706857 2.4613776767 2.8286213739 1.5707963268 1.6588585487 1.7739652728 1.9258976586 2.1243706857 
2.3709992258 2.6469669131 2.9144344902 1.7563855631 1.8785697967 1.8563003522 2.0024758186 1.9913306621 1.9779583789 
2.1243706857 2.1243706857 2.1243706857 2.1243706857 2.2408671392 2.2510113037 2.2630782103 2.2776669786 2.295651703 
2.3494282469 2.3680303173 2.3899057108 2.4159740166 2.4475202889 2.486385773 2.448570738 2.4736848652 2.5028148801 
2.5369440334 2.5773755784 2.6258554882 2.6847397011 2.5377803997 2.5675431237 2.6015718084 2.6407557529 2.6862098746 
2.7393287203 2.8018393335 2.8758309421 1.6743954455 1.6743954455 1.7840462375 1.6743954455 1.7840462375 1.8974821136 
1.6743954455 1.7840462375 1.8974821136 2.0119052671 1.6743954455 1.7840462375 1.8974821136 2.0119052671 2.1243706857 
1.6743954455 1.7840462375 1.8974821136 2.0119052671 2.1243706857 2.232221744 1.6743954455 1.7840462375 1.8974821136 
2.0119052671 2.1243706857 2.232221744 2.3334263672 1.6743954455 1.7840462375 1.8974821136 2.0119052671 2.1243706857 
2.232221744 2.3334263672 2.426721652 1.4671972081 1.3575464161 1.4671972081 1.24411054 1.3575464161 1.4671972081 
1.1296873865 1.24411054 1.3575464161 1.4671972081 1.0172219679 1.1296873865 1.24411054 1.3575464161 1.4671972081 
0.90937090954 1.0172219679 1.1296873865 1.24411054 1.3575464161 1.4671972081 0.80816628637 0.90937090954 1.0172219679 
1.1296873865 1.24411054 1.3575464161 1.4671972081 0.71487100155 0.80816628637 0.90937090954 1.0172219679 1.1296873865 
1.24411054 1.3575464161 1.4671972081 0.60381225391 0.57404952988 0.69302191562 0.54002084522 0.66790778838 0.79216440667 
0.50083690068 0.63877777351 0.77356233629 0.90072551443 0.45538277901 0.60464862014 0.75168694275 0.89058134991 1.0172219679 
0.40226393329 0.56421707518 0.72561863695 0.87851444325 1.0172219679 1.139116835 0.33975332011 0.51573716537 0.69407236469 
0.86392567495 1.0172219679 1.1502619915 1.2630228569 0.26576171152 0.45685295248 0.6552068806 0.84594095064 1.0172219679 
1.1636342747 1.2852923014 1.3852070904 0.22715816343 0.3129712797 0.49462574053 0.49462574053 0.68021497688 0.77059342779 
1.0172219679 1.0172219679 1.0172219679 1.0172219679 2.1243706857 1.5707963268 1.3676273807 1.271087727 1.2156949949 
2.6469669131 2.1243706857 1.7739652728 1.5707963268 1.447813335 1.3676273807 2.8286213739 2.4613776767 2.1243706857 
1.8705049266 1.6937793186 1.5707963268 1.4827341049 2.9144344902 2.6469669131 2.3709992258 2.1243706857 1.9258976586 
1.7739652728 1.6588585487 1.5707963268 1.7563855631 1.8563003522 1.8785697967 1.9779583789 1.9913306621 2.0024758186 
2.1243706857 2.1243706857 2.1243706857 2.1243706857 2.295651703 2.2776669786 2.2630782103 2.2510113037 2.2408671392 
2.486385773 2.4475202889 2.4159740166 2.3899057108 2.3680303173 2.3494282469 2.6847397011 2.6258554882 2.5773755784 
2.5369440334 2.5028148801 2.4736848652 2.448570738 2.8758309421 2.8018393335 2.7393287203 2.6862098746 2.6407557529 
2.6015718084 2.5675431237 2.5377803997 5.8604937156 5.901393709 5.9723133995 5.9473927383 6.0216547488 6.0927478736 
5.9992719463 6.0767621038 6.1501452836 6.2190157008 6.0578962336 6.1383094565 6.2134963469 0 0.064169606361 
6.1241815303 6.206940195 6.2831853072 0.069688960264 0.13304002361 0.19043743361 6.1990255847 0 0.07624511221 
0.14487585072 0.20642320337 0.26153055843 0.3108719077 0 0.084159722458 0.15900377685 0.22528907359 0.28391336087 
0.3357925689 0.38179159818 0.42269159155 5.8604937156 5.9723133995 5.901393709 6.0927478736 6.0216547488 5.9473927383 
6.2190157008 6.1501452836 6.0767621038 5.9992719463 0.064169606361 0 6.2134963469 6.1383094565 6.0578962336 
0.19043743361 0.13304002361 0.069688960264 6.2831853072 6.206940195 6.1241815303 0.3108719077 0.26153055843 0.20642320337 
0.14487585072 0.07624511221 6.2831853072 6.1990255847 0.42269159155 0.38179159818 0.3357925689 0.28391336087 0.22528907359 
0.15900377685 0.084159722458 0 5.6793730533 5.7091357773 5.5901633916 5.743164462 5.6152775188 5.4910209005 
5.7823484065 5.6444075337 5.5096229709 5.3824597928 5.8278025282 5.678536687 5.5314983644 5.3926039573 5.2659633393 
5.8809213739 5.718968232 5.5575666702 5.4046708639 5.2659633393 5.1440684722 5.9434319871 5.7674481418 5.5891129425 
5.4192596322 5.2659633393 5.1329233157 5.0201624502 6.0174235957 5.8263323547 5.6279784266 5.4372443565 5.2659633393 
5.1195510325 4.9978930058 4.8979782167 1.3852070904 1.2852923014 1.2630228569 1.1636342747 1.1502619915 1.139116835 
1.0172219679 1.0172219679 1.0172219679 1.0172219679 0.84594095064 0.86392567495 0.87851444325 0.89058134991 0.90072551443 
0.6552068806 0.69407236469 0.72561863695 0.75168694275 0.77356233629 0.79216440667 0.45685295248 0.51573716537 0.56421707518 
0.60464862014 0.63877777351 0.66790778838 0.69302191562 0.26576171152 0.33975332011 0.40226393329 0.45538277901 0.50083690068 
0.54002084522 0.57404952988 0.60381225391 
_paraPhiHalf 1 1002 double
0 3.1415926536 0 3.1415926536 1.5707963268 1.5707963268 1.5707963268 1.5707963268 2.5880182947 
0.5535743589 2.5880182947 0.5535743589 0 0 0 0 3.1415926536 3.1415926536 
3.1415926536 3.1415926536 3.1415926536 0.17788134 0.38438696014 0.60631181711 0.82323535693 1.0172219679 1.1799687454 
1.3118704726 1.4175000338 1.5022335207 0.17788134 0.38438696014 0.60631181711 0.82323535693 1.0172219679 1.1799687454 
1.3118704726 1.4175000338 1.5022335207 0.093902416448 0.17615329733 0.2478725152 0.31035131605 0.36486382811 0.41257334776 
0.45449736604 0.4915044461 0.52432611754 0.093902416448 0.17615329733 0.2478725152 0.31035131605 0.36486382811 0.41257334776 
0.45449736604 0.4915044461 0.52432611754 2.9637113136 2.7572056934 2.5352808365 2.3183572967 2.1243706857 1.9616239082 
1.829722181 1.7240926197 1.6393591329 2.9637113136 2.7572056934 2.5352808365 2.3183572967 2.1243706857 1.9616239082 
1.829722181 1.7240926197 1.6393591329 3.0476902371 2.9654393563 2.8937201384 2.8312413375 2.7767288255 2.7290193058 
2.6870952876 2.6500882075 2.617266536 3.0476902371 2.9654393563 2.8937201384 2.8312413375 2.7767288255 2.7290193058 
2.6870952876 2.6500882075 2.617266536 0 0 0 0 3.1415926536 3.1415926536 
3.1415926536 3.1415926536 3.1415926536 0.17788134 0.38438696014 0.60631181711 0.82323535693 1.0172219679 1.1799687454 
1.3118704726 1.4175000338 1.5022335207 0.17788134 0.38438696014 0.60631181711 0.82323535693 1.0172219679 1.1799687454 
1.3118704726 1.4175000338 1.5022335207 0.093902416448 0.17615329733 0.2478725152 0.31035131605 0.36486382811 0.41257334776 
0.45449736604 0.4915044461 0.52432611754 0.093902416448 0.17615329733 0.2478725152 0.31035131605 0.36486382811 0.41257334776 
0.45449736604 0.4915044461 0.52432611754 2.9637113136 2.7572056934 2.5352808365 2.3183572967 2.1243706857 1.9616239082 
1.829722181 1.7240926197 1.6393591329 2.9637113136 2.7572056934 2.5352808365 2.3183572967 2.1243706857 1.9616239082 
1.829722181 1.7240926197 1.6393591329 3.0476902371 2.9654393563 2.8937201384 2.8312413375 2.7767288255 2.7290193058 
2.6870952876 2.6500882075 2.617266536 3.0476902371 2.9654393563 2.8937201384 2.8312413375 2.7767288255 2.7290193058 
2.6870952876 2.6500882075 2.617266536 1.5707963268 1.5707963268 1.5707963268 1.5707963268 1.5707963268 1.5707963268 
1.5707963268 1.5707963268 1.5707963268 1.6743954455 1.7840462375 1.8974821136 2.0119052671 2.1243706857 2.232221744 
2.3334263672 2.426721652 2.5115728246 1.4671972081 1.3575464161 1.24411054 1.1296873865 1.0172219679 0.90937090954 
0.80816628637 0.71487100155 0.63001982895 1.6743954455 1.7840462375 1.8974821136 2.0119052671 2.1243706857 2.232221744 
2.3334263672 2.426721652 2.5115728246 1.4671972081 1.3575464161 1.24411054 1.1296873865 1.0172219679 0.90937090954 
0.80816628637 0.71487100155 0.63001982895 1.5707963268 1.5707963268 1.5707963268 1.5707963268 1.5707963268 1.5707963268 
1.5707963268 1.5707963268 1.5707963268 1.6743954455 1.7840462375 1.8974821136 2.0119052671 2.1243706857 2.232221744 
2.3334263672 2.426721652 2.5115728246 1.4671972081 1.3575464161 1.24411054 1.1296873865 1.0172219679 0.90937090954 
0.80816628637 0.71487100155 0.63001982895 1.6743954455 1.7840462375 1.8974821136 2.0119052671 2.1243706857 2.232221744 
2.3334263672 2.426721652 2.5115728246 1.4671972081 1.3575464161 1.24411054 1.1296873865 1.0172219679 0.90937090954 
0.80816628637 0.71487100155 0.63001982895 2.6824132222 2.7864913217 2.8992382033 3.0186096618 3.1415926536 3.0186096618 
2.8992382033 2.7864913217 2.6824132222 0.45917943135 0.35510133185 0.2423544503 0.12298299178 0 0.12298299178 
0.2423544503 0.35510133185 0.45917943135 0.22715816343 0.49462574053 0.3129712797 0.77059342779 0.68021497688 0.49462574053 
1.0172219679 1.0172219679 1.0172219679 1.0172219679 1.2156949949 1.271087727 1.3676273807 1.5707963268 2.1243706857 
1.3676273807 1.447813335 1.5707963268 1.7739652728 2.1243706857 2.6469669131 1.4827341049 1.5707963268 1.6937793186 
1.8705049266 2.1243706857 2.4613776767 2.8286213739 1.5707963268 1.6588585487 1.7739652728 1.9258976586 2.1243706857 
2.3709992258 2.6469669131 2.9144344902 0.26576171152 0.33975332011 0.45685295248 0.40226393329 0.51573716537 0.6552068806 
0.45538277901 0.56421707518 0.69407236469 0.84594095064 0.50083690068 0.60464862014 0.72561863695 0.86392567495 1.0172219679 
0.54002084522 0.63877777351 0.75168694275 0.87851444325 1.0172219679 1.1636342747 0.57404952988 0.66790778838 0.77356233629 
0.89058134991 1.0172219679 1.1502619915 1.2852923014 0.60381225391 0.69302191562 0.79216440667 0.90072551443 1.0172219679 
1.139116835 1.2630228569 1.3852070904 0.71487100155 0.80816628637 0.80816628637 0.90937090954 0.90937090954 0.90937090954 
1.0172219679 1.0172219679 1.0172219679 1.0172219679 1.1296873865 1.1296873865 1.1296873865 1.1296873865 1.1296873865 
1.24411054 1.24411054 1.24411054 1.24411054 1.24411054 1.24411054 1.3575464161 1.3575464161 1.3575464161 
1.3575464161 1.3575464161 1.3575464161 1.3575464161 1.4671972081 1.4671972081 1.4671972081 1.4671972081 1.4671972081 
1.4671972081 1.4671972081 1.4671972081 1.6743954455 1.6743954455 1.7840462375 1.6743954455 1.7840462375 1.8974821136 
1.6743954455 1.7840462375 1.8974821136 2.0119052671 1.6743954455 1.7840462375 1.8974821136 2.0119052671 2.1243706857 
1.6743954455 1.7840462375 1.8974821136 2.0119052671 2.1243706857 2.232221744 1.6743954455 1.7840462375 1.8974821136 
2.0119052671 2.1243706857 2.232221744 2.3334263672 1.6743954455 1.7840462375 1.8974821136 2.0119052671 2.1243706857 
2.232221744 2.3334263672 2.426721652 1.7563855631 1.8785697967 1.8563003522 2.0024758186 1.9913306621 1.9779583789 
2.1243706857 2.1243706857 2.1243706857 2.1243706857 2.2408671392 2.2510113037 2.2630782103 2.2776669786 2.295651703 
2.3494282469 2.3680303173 2.3899057108 2.4159740166 2.4475202889 2.486385773 2.448570738 2.4736848652 2.5028148801 
2.5369440334 2.5773755784 2.6258554882 2.6847397011 2.5377803997 2.5675431237 2.6015718084 2.6407557529 2.6862098746 
2.7393287203 2.8018393335 2.8758309421 2.718901062 2.8307207459 2.7598010554 2.95115522 2.8800620952 2.8058000847 
3.0774230472 3.00855263 2.9351694502 2.8576792927 3.0774230472 3.1415926536 3.0719036933 2.9967168029 2.91630358 
2.95115522 3.00855263 3.0719036933 3.1415926536 3.0653475414 2.9825888767 2.8307207459 2.8800620952 2.9351694502 
2.9967168029 3.0653475414 3.1415926536 3.0574329311 2.718901062 2.7598010554 2.8058000847 2.8576792927 2.91630358 
2.9825888767 3.0574329311 3.1415926536 2.718901062 2.7598010554 2.8307207459 2.8058000847 2.8800620952 2.95115522 
2.8576792927 2.9351694502 3.00855263 3.0774230472 2.91630358 2.9967168029 3.0719036933 3.1415926536 3.0774230472 
2.9825888767 3.0653475414 3.1415926536 3.0719036933 3.00855263 2.95115522 3.0574329311 3.1415926536 3.0653475414 