# vtk DataFile Version 5.1
vtk output
ASCII
DATASET POLYDATA
POINTS 1002 float
21.751 39.4389 7.57294 12.8994 35.3064 5.24887 21.1714 41.473 13.4625 
10.795 38.7244 14.4636 20.1817 32.195 9.35354 18.2546 35.022 13.8528 
15.7995 43.2845 6.05617 15.0172 44.2339 10.6186 7.9743 32.9658 11.345 
26.2975 38.122 12.4228 7.7626 39.5372 8.08708 23.3062 46.5429 9.87689 
21.211 38.9907 7.30218 20.6417 38.5189 6.94074 20.021 38.0335 6.50036 
19.1779 37.6128 6.17895 18.0236 37.2974 6.08231 16.8006 36.9626 5.97784 
15.7884 36.4915 5.67534 14.9186 35.9742 5.35034 13.9681 35.5669 5.21689 
21.6871 38.661 7.73274 21.61 37.8108 7.90907 21.5469 36.8954 8.01069 
21.54 35.9213 8.02817 21.5777 34.9662 8.10726 21.5462 34.1497 8.36057 
21.3472 33.4905 8.68683 21.0076 32.9273 8.93614 20.605 32.4697 9.12171 
21.4854 39.8799 7.28748 21.0979 40.3224 7.0642 20.4949 40.8549 6.87211 
19.8644 41.4873 6.52192 19.4566 42.0913 5.99773 19.0873 42.5145 5.65458 
18.3693 42.7328 5.73359 17.354 42.8635 5.99643 16.4268 43.0388 6.11475 
22.2825 39.3801 7.91969 22.909 39.2199 8.2993 23.4814 39.0221 8.76783 
23.8431 38.8915 9.39596 24.1244 38.8119 10.1108 24.6336 38.6681 10.6757 
25.3616 38.4559 11.0033 25.9715 38.2787 11.3084 26.2598 38.1784 11.7976 
22.0766 40.24 7.68765 22.3897 41.1486 7.83913 22.7728 42.0389 7.92193 
23.2094 42.8035 7.92538 23.5 43.4889 8.00751 23.5183 44.2431 8.26214 
23.4137 45.0859 8.59635 23.3718 45.8401 8.94819 23.3762 46.3303 9.37107 
13.3358 35.1187 5.5212 13.8096 34.8132 5.81295 14.4145 34.3032 6.09111 
15.1972 33.7904 6.35787 16.1269 33.5178 6.67136 17.1417 33.3724 7.10997 
18.1416 33.098 7.67929 18.9978 32.7143 8.28722 19.6586 32.3954 8.84679 
13.1563 35.7007 4.98314 13.4191 36.333 4.84826 13.6419 37.2395 4.87542 
13.8809 38.3231 4.94563 14.2307 39.4611 4.93653 14.6425 40.5241 4.9067 
14.9763 41.3582 5.02494 15.2204 41.9597 5.35052 15.4777 42.5385 5.75831 
12.0665 34.9761 5.49575 11.2747 34.5993 5.76758 10.6046 34.2028 6.12589 
10.0406 33.8841 6.69688 9.50257 33.6319 7.43979 8.95909 33.3319 8.15325 
8.47381 33.0294 8.80273 8.13276 32.8889 9.54688 7.97064 32.9147 10.4367 
11.8367 35.3681 5.13228 10.668 35.6145 4.98584 9.69649 36.0437 4.92661 
9.09978 36.5617 5.19075 8.69791 37.1129 5.73235 8.22319 37.753 6.18652 
7.71887 38.4744 6.46549 7.43712 39.0881 6.85096 7.48836 39.4266 7.45216 
20.4496 41.0345 13.0803 19.5223 40.7279 12.9865 18.3773 40.6114 13.3621 
17.1183 40.4958 13.8744 15.8016 40.1717 14.0777 14.4086 39.7569 14.1199 
13.0702 39.4898 14.377 12.0255 39.335 14.7118 11.3209 39.1004 14.755 
21.1916 40.7616 13.2335 21.1428 40.0942 13.1016 20.884 39.5459 13.3128 
20.4312 39.0202 13.7734 19.9874 38.3377 14.0968 19.6669 37.4795 14.0921 
19.3732 36.6304 13.9346 19.0136 35.959 13.8313 18.6192 35.4597 13.8186 
20.7356 41.9216 13.3287 20.2337 42.3884 13.0124 19.5921 42.7779 12.558 
18.7843 43.0993 12.1534 17.9553 43.4448 11.8839 17.2968 43.7966 11.6279 
16.7869 44.0372 11.3129 16.2498 44.1452 11.027 15.6276 44.1954 10.8193 
21.8683 41.5265 13.745 22.7258 41.5845 13.8931 23.8174 41.5588 13.9247 
25.004 41.3882 14.1217 25.981 41.0294 14.5497 26.5547 40.4739 14.7534 
26.7562 39.8159 14.3795 26.7109 39.1867 13.6537 26.5324 38.6298 12.9577 
21.6069 42.1726 13.7412 22.11 42.771 13.7209 22.5712 43.2618 13.3895 
22.8674 43.8253 13.0172 23.028 44.5254 12.8244 23.1727 45.1479 12.6601 
23.3215 45.566 12.2387 23.4066 45.9131 11.52 23.3951 46.2716 10.6769 
11.137 38.3374 14.7677 11.5649 37.9792 15.0151 12.1275 37.5928 15.1322 
12.9825 37.0763 15.0976 14.1426 36.4678 15.0305 15.2391 35.9551 15.0183 
15.953 35.6309 14.9116 16.491 35.419 14.5632 17.2385 35.2286 14.12 
10.8303 39.3938 14.3299 10.9371 40.0656 14.067 11.13 40.7114 13.6815 
11.4477 41.3276 13.184 11.965 41.9301 12.6079 12.6733 42.5011 12.0691 
13.4339 42.9856 11.6727 14.1078 43.3844 11.367 14.6371 43.7781 11.026 
10.4446 37.9523 14.189 10.023 37.0249 13.8296 9.55397 36.1009 13.5715 
9.01325 35.3028 13.5684 8.3439 34.5613 13.7432 7.64289 33.8045 13.799 
7.17995 33.1953 13.5003 7.13377 32.9159 12.8711 7.45269 32.9022 12.0969 
10.2766 38.703 13.9871 9.65895 38.6962 13.5388 8.96679 38.742 13.1876 
8.35749 38.8424 12.7655 8.01 38.9034 12.0484 7.94865 38.8508 11.1055 
8.00573 38.8011 10.214 7.991 38.93 9.47723 7.87241 39.2287 8.79131 
20.212 32.0249 9.91572 20.2078 31.9342 10.6941 20.1493 31.9321 11.6572 
20.0947 32.0029 12.5955 20.1221 32.184 13.2835 20.1387 32.5907 13.6857 
19.9227 33.2419 13.8799 19.4159 33.9606 13.9138 18.7939 34.5634 13.8617 
19.3908 32.2658 9.40599 18.4855 32.593 9.60687 17.4126 32.969 9.85122 
16.0389 33.1084 10.0155 14.4057 32.9889 10.1332 12.8309 32.8833 10.3226 
11.51 32.9575 10.5814 10.3039 33.0773 10.8347 9.08911 33.0736 11.0787 
20.9566 32.2196 9.73214 21.7804 32.3719 10.2096 22.6044 32.6082 10.6962 
23.3431 33.0005 11.0633 23.9392 33.6655 11.2963 24.4104 34.5358 11.5436 
24.8375 35.4378 11.8796 25.3029 36.3303 12.1747 25.814 37.241 12.3275 
17.209 34.6358 14.0201 16.1227 34.1231 14.2496 15.0328 33.6537 14.4353 
13.9647 33.3637 14.3939 12.9427 33.1863 14.0275 11.9499 33.0345 13.4969 
10.9185 32.971 13.0214 9.83407 33.0109 12.5774 8.80401 33.0322 12.0196 
19.6283 35.0132 13.8573 20.931 34.9148 14.2669 21.839 34.8685 14.8926 
22.3975 35.0574 15.1377 22.998 35.5026 14.6845 23.8148 36.0327 14.001 
24.6496 36.5213 13.6118 25.3424 37.0075 13.3818 25.8954 37.5505 12.9796 
15.7709 44.0535 6.10373 15.8027 44.8644 6.18708 15.7593 45.4777 6.42546 
15.5311 45.7809 6.89055 15.174 45.8479 7.52463 14.873 45.7412 8.20707 
14.7434 45.4485 8.88451 14.7629 45.0245 9.54743 14.8691 44.5945 10.1458 
15.1382 43.051 5.77513 14.4856 42.823 5.56116 13.7023 42.4814 5.73662 
12.7755 41.9626 6.26571 11.8363 41.3741 6.67831 10.8879 40.8992 6.73187 
9.84446 40.5853 6.73573 8.84022 40.3185 7.00964 8.12649 39.9778 7.51949 
16.5089 44.1381 6.15664 17.2629 45.2871 5.92471 17.8779 46.4105 5.62654 
18.3252 47.0244 5.74074 18.9236 47.006 6.39857 19.9823 46.7946 7.23253 
21.2886 46.8015 7.92662 22.3397 46.924 8.53085 22.9478 46.861 9.18326 
14.1956 43.9742 10.6099 13.2197 43.7492 10.4798 12.088 43.5523 10.2157 
10.945 43.3403 9.8343 10.07 42.9903 9.36277 9.58533 42.3362 8.90933 
9.2699 41.4182 8.61277 8.84567 40.5402 8.45749 8.2908 39.9314 8.3051 
15.6616 44.7724 10.3184 16.3517 45.3287 10.014 17.1872 45.6987 9.75083 
18.116 45.8727 9.58641 19.0319 46.0877 9.60233 20.0032 46.4667 9.79753 
21.0977 46.826 10.0094 22.1278 46.9569 10.0736 22.8661 46.8365 9.99288 
7.02498 32.8779 11.0742 6.42542 33.053 10.8014 6.17439 33.6908 10.5356 
6.03771 34.6707 10.2328 5.9793 35.6425 9.8396 6.20714 36.4833 9.36963 
6.66845 37.332 8.91505 7.08168 38.2036 8.55714 7.39604 38.9573 8.29562 
26.6877 39.0138 12.2019 26.8097 39.8853 12.1808 26.5936 40.7343 12.3298 
26.2749 41.7158 12.3384 26.1275 42.8667 11.9702 25.9498 43.9359 11.4128 
25.3641 44.7361 10.9622 24.5022 45.38 10.6186 23.7803 45.9987 10.2563 
21.0528 38.2273 7.49116 20.9173 37.3588 7.64022 20.5073 37.695 7.04614 
20.8872 36.3575 7.6194 20.455 36.6983 7.00694 19.9915 37.0759 6.44658 
20.9639 35.2915 7.52168 20.4834 35.5788 6.81675 20.0152 35.9244 6.22578 
19.1613 36.5501 6.03731 21.0168 34.3431 7.60161 20.4678 34.5626 6.75417 
19.9216 34.8297 6.07277 19.0756 35.3839 5.85231 17.8726 36.236 5.96203 
20.8857 33.6222 7.90825 20.2795 33.8364 7.01655 19.5897 34.0913 6.27129 
18.7261 34.4961 5.94592 17.5924 35.2114 5.9538 16.4896 36.0021 5.9225 
20.5477 33.0743 8.25571 19.9075 33.3444 7.45452 19.0954 33.6773 6.73296 
18.1662 34.0126 6.32936 17.1198 34.4986 6.20124 16.0912 35.161 6.05467 
15.3454 35.7073 5.73446 20.1067 32.651 8.54628 19.4475 32.9678 7.87769 
18.5858 33.3636 7.2138 17.6013 33.686 6.73592 16.5908 33.9918 6.48057 
15.6363 34.4711 6.26853 14.8704 35.0218 5.94824 14.3534 35.387 5.55824 
22.3653 38.4431 8.0215 23.1032 38.1735 8.33268 22.3989 37.4696 8.12158 
23.5743 38.0314 8.88171 23.1217 37.1805 8.42879 22.3418 36.5057 8.22143 
23.7217 38.0452 9.70972 23.4368 37.1259 9.13147 22.9614 36.2432 8.64121 
22.2458 35.5591 8.38228 23.9935 37.9699 10.4684 23.5835 37.1186 10.0501 
23.2655 36.1432 9.45019 22.7664 35.3055 8.97014 22.1363 34.6863 8.68342 
24.6656 37.6789 10.8844 24.0808 36.8473 10.679 23.6558 35.9119 10.2582 
23.1807 35.0434 9.75095 22.5712 34.4237 9.36982 21.9507 33.9432 9.06827 
25.3859 37.3767 11.1824 24.8056 36.4527 11.0236 24.3009 35.5134 10.7512 
23.7457 34.648 10.3963 23.0544 34.0425 10.0553 22.3359 33.657 9.74075 
21.6732 33.2844 9.3734 25.7619 37.2441 11.6752 25.2474 36.2731 11.4952 
24.777 35.3133 11.2112 24.2664 34.399 10.912 23.6101 33.6796 10.6593 
22.847 33.2531 10.3823 22.0811 32.9674 10.0054 21.3423 32.6807 9.55585 
25.3267 36.6643 12.8919 24.7101 36.1406 13.2913 24.7562 35.8112 12.6826 
24.0082 35.566 13.6204 24.0967 35.2948 13.1011 24.2704 34.9549 12.3494 
23.2724 34.8805 14.2047 23.4535 34.5699 13.5847 23.6563 34.3724 12.8767 
23.9017 34.0023 12.0637 22.6482 34.3004 14.9064 22.889 33.7647 14.2606 
23.1348 33.5449 13.4971 23.4052 33.3335 12.6958 23.533 33.056 11.8413 
22.1384 34.1143 15.0967 22.3826 33.3512 14.7587 22.606 32.8513 14.0722 
22.8544 32.5921 13.2867 23.0317 32.4045 12.405 22.9443 32.3736 11.481 
21.416 34.2772 14.6383 21.7591 33.4766 14.6699 21.9345 32.7181 14.2867 
22.0525 32.2078 13.658 22.1977 31.9373 12.847 22.2454 31.8703 11.8713 
22.0739 32.0386 10.9298 20.2398 34.4917 14.0789 20.7734 33.7875 14.2216 
21.06 32.9837 14.1114 21.1011 32.312 13.744 21.1005 31.9098 13.1316 
21.1675 31.7423 12.2473 21.1935 31.7654 11.2354 21.1007 31.9497 10.3596 
19.3588 32.2371 10.0892 19.2989 32.3025 10.9712 18.4493 32.6816 10.36 
19.2507 32.3775 11.9528 18.4289 32.8041 11.2358 17.3622 33.0443 10.5588 
19.2562 32.3996 12.8037 18.4305 32.8239 12.1374 17.3224 33.0912 11.3343 
15.8618 33.0725 10.6401 19.2193 32.4888 13.3739 18.3277 32.7209 12.9146 
17.1909 33.0286 12.1704 15.6501 33.0604 11.3689 14.073 32.9193 10.7808 
18.9298 32.8474 13.7021 17.9191 32.72 13.4963 16.768 32.9001 12.9901 
15.2982 33.0388 12.2305 13.7384 32.9682 11.5628 12.4687 32.9064 11.0819 
18.3491 33.4577 13.871 17.225 33.0306 13.89 16.0578 32.9202 13.6884 
[...]
POINT_DATA 1002
FIELD FieldData 4
_paraPhi 1 1002 double
6.2831853072 3.1415926536 6.2831853072 3.1415926536 4.7123889804 4.7123889804 1.5707963268 1.5707963268 3.6951670125 
5.7296109483 2.5880182947 0.5535743589 6.2831853072 6.2831853072 6.2831853072 6.2831853072 3.1415926536 3.1415926536 
3.1415926536 3.1415926536 3.1415926536 6.1053039672 5.898798347 5.6768734901 5.4599499503 5.2659633393 5.1032165617 
4.9713148346 4.8656852733 4.7809517865 0.17788134 0.38438696014 0.60631181711 0.82323535693 1.0172219679 1.1799687454 
1.3118704726 1.4175000338 1.5022335207 6.1892828907 6.1070320098 6.035312792 5.9728339911 5.9183214791 5.8706119594 
5.8286879411 5.7916808611 5.7588591896 0.093902416448 0.17615329733 0.2478725152 0.31035131605 0.36486382811 0.41257334776 
0.45449736604 0.4915044461 0.52432611754 3.3194739936 3.5259796137 3.7479044707 3.9648280105 4.1588146215 4.321561399 
4.4534631262 4.5590926874 4.6438261743 2.9637113136 2.7572056934 2.5352808365 2.3183572967 2.1243706857 1.9616239082 
1.829722181 1.7240926197 1.6393591329 3.23549507 3.3177459509 3.3894651688 3.4519439696 3.5064564817 3.5541660013 
3.5960900196 3.6330970997 3.6659187711 3.0476902371 2.9654393563 2.8937201384 2.8312413375 2.7767288255 2.7290193058 
2.6870952876 2.6500882075 2.617266536 6.2831853072 6.2831853072 6.2831853072 6.2831853072 3.1415926536 3.1415926536 
3.1415926536 3.1415926536 3.1415926536 6.1053039672 5.898798347 5.6768734901 5.4599499503 5.2659633393 5.1032165617 
4.9713148346 4.8656852733 4.7809517865 0.17788134 0.38438696014 0.60631181711 0.82323535693 1.0172219679 1.1799687454 
1.3118704726 1.4175000338 1.5022335207 6.1892828907 6.1070320098 6.035312792 5.9728339911 5.9183214791 5.8706119594 
5.8286879411 5.7916808611 5.7588591896 0.093902416448 0.17615329733 0.2478725152 0.31035131605 0.36486382811 0.41257334776 
0.45449736604 0.4915044461 0.52432611754 3.3194739936 3.5259796137 3.7479044707 3.9648280105 4.1588146215 4.321561399 
4.4534631262 4.5590926874 4.6438261743 2.9637113136 2.7572056934 2.5352808365 2.3183572967 2.1243706857 1.9616239082 
1.829722181 1.7240926197 1.6393591329 3.23549507 3.3177459509 3.3894651688 3.4519439696 3.5064564817 3.5541660013 
3.5960900196 3.6330970997 3.6659187711 3.0476902371 2.9654393563 2.8937201384 2.8312413375 2.7767288255 2.7290193058 
2.6870952876 2.6500882075 2.617266536 4.7123889804 4.7123889804 4.7123889804 4.7123889804 4.7123889804 4.7123889804 
4.7123889804 4.7123889804 4.7123889804 4.6087898617 4.4991390697 4.3857031936 4.2712800401 4.1588146215 4.0509635631 
3.94975894 3.8564636551 3.7716124825 4.8159880991 4.9256388911 5.0390747672 5.1534979207 5.2659633393 5.3738143976 
5.4750190208 5.5683143056 5.6531654782 4.6087898617 4.4991390697 4.3857031936 4.2712800401 4.1588146215 4.0509635631 
3.94975894 3.8564636551 3.7716124825 4.8159880991 4.9256388911 5.0390747672 5.1534979207 5.2659633393 5.3738143976 
5.4750190208 5.5683143056 5.6531654782 1.5707963268 1.5707963268 1.5707963268 1.5707963268 1.5707963268 1.5707963268 
1.5707963268 1.5707963268 1.5707963268 1.6743954455 1.7840462375 1.8974821136 2.0119052671 2.1243706857 2.232221744 
2.3334263672 2.426721652 2.5115728246 1.4671972081 1.3575464161 1.24411054 1.1296873865 1.0172219679 0.90937090954 
0.80816628637 0.71487100155 0.63001982895 1.6743954455 1.7840462375 1.8974821136 2.0119052671 2.1243706857 2.232221744 
2.3334263672 2.426721652 2.5115728246 1.4671972081 1.3575464161 1.24411054 1.1296873865 1.0172219679 0.90937090954 
0.80816628637 0.71487100155 0.63001982895 3.6007720849 3.4966939854 3.3839471039 3.2645756454 3.1415926536 3.0186096618 
2.8992382033 2.7864913217 2.6824132222 5.8240058758 5.9280839753 6.0408308569 6.1602023154 6.2831853072 0.12298299178 
0.2423544503 0.35510133185 0.45917943135 6.0560271438 5.7885595667 5.9702140275 5.5125918794 5.6029703303 5.7885595667 
5.2659633393 5.2659633393 5.2659633393 5.2659633393 5.0674903122 5.0120975802 4.9155579264 4.7123889804 4.1588146215 
4.9155579264 4.8353719722 4.7123889804 4.5092200343 4.1588146215 3.6362183941 4.8004512023 4.7123889804 4.5894059886 
4.4126803806 4.1588146215 3.8218076305 3.4545639333 4.7123889804 4.6243267584 4.5092200343 4.3572876485 4.1588146215 
3.9121860814 3.6362183941 3.368750817 6.0174235957 5.9434319871 5.8263323547 5.8809213739 5.7674481418 5.6279784266 
5.8278025282 5.718968232 5.5891129425 5.4372443565 5.7823484065 5.678536687 5.5575666702 5.4192596322 5.2659633393 
5.743164462 5.6444075337 5.5314983644 5.4046708639 5.2659633393 5.1195510325 5.7091357773 5.6152775188 5.5096229709 
5.3926039573 5.2659633393 5.1329233157 4.9978930058 5.6793730533 5.5901633916 5.4910209005 5.3824597928 5.2659633393 
5.1440684722 5.0201624502 4.8979782167 5.5683143056 5.4750190208 5.4750190208 5.3738143976 5.3738143976 5.3738143976 
5.2659633393 5.2659633393 5.2659633393 5.2659633393 5.1534979207 5.1534979207 5.1534979207 5.1534979207 5.1534979207 
5.0390747672 5.0390747672 5.0390747672 5.0390747672 5.0390747672 5.0390747672 4.9256388911 4.9256388911 4.9256388911 
4.9256388911 4.9256388911 4.9256388911 4.9256388911 4.8159880991 4.8159880991 4.8159880991 4.8159880991 4.8159880991 
4.8159880991 4.8159880991 4.8159880991 4.6087898617 4.6087898617 4.4991390697 4.6087898617 4.4991390697 4.3857031936 
4.6087898617 4.4991390697 4.3857031936 4.2712800401 4.6087898617 4.4991390697 4.3857031936 4.2712800401 4.1588146215 
4.6087898617 4.4991390697 4.3857031936 4.2712800401 4.1588146215 4.0509635631 4.6087898617 4.4991390697 4.3857031936 
4.2712800401 4.1588146215 4.0509635631 3.94975894 4.6087898617 4.4991390697 4.3857031936 4.2712800401 4.1588146215 
4.0509635631 3.94975894 3.8564636551 4.526799744 4.4046155105 4.426884955 4.2807094886 4.2918546451 4.3052269283 
4.1588146215 4.1588146215 4.1588146215 4.1588146215 4.042318168 4.0321740035 4.0201070968 4.0055183285 3.9875336042 
3.9337570603 3.9151549899 3.8932795963 3.8672112905 3.8356650183 3.7967995342 3.8346145692 3.809500442 3.7803704271 
3.7462412737 3.7058097288 3.657329819 3.5984456061 3.7454049075 3.7156421835 3.6816134988 3.6424295543 3.5969754326 
3.5438565869 3.4813459737 3.4073543651 3.5642842451 3.4524645613 3.5233842518 3.3320300872 3.403123212 3.4773852225 
3.20576226 3.2746326772 3.348015857 3.4255060145 3.0774230472 3.1415926536 3.2112816139 3.2864685043 3.3668817272 
2.95115522 3.00855263 3.0719036933 3.1415926536 3.2178377658 3.3005964304 2.8307207459 2.8800620952 2.9351694502 
2.9967168029 3.0653475414 3.1415926536 3.225752376 2.718901062 2.7598010554 2.8058000847 2.8576792927 2.91630358 
2.9825888767 3.0574329311 3.1415926536 3.5642842451 3.5233842518 3.4524645613 3.4773852225 3.403123212 3.3320300872 
3.4255060145 3.348015857 3.2746326772 3.20576226 3.3668817272 3.2864685043 3.2112816139 3.1415926536 3.0774230472 
3.3005964304 3.2178377658 3.1415926536 3.0719036933 3.00855263 2.95115522 3.225752376 3.1415926536 3.0653475414 
2.9967168029 2.9351694502 2.8800620952 2.8307207459 3.1415926536 3.0574329311 2.9825888767 2.91630358 2.8576792927 
2.8058000847 2.7598010554 2.718901062 4.526799744 4.426884955 4.4046155105 4.3052269283 4.2918546451 4.2807094886 
4.1588146215 4.1588146215 4.1588146215 4.1588146215 3.9875336042 4.0055183285 4.0201070968 4.0321740035 4.042318168 
3.7967995342 3.8356650183 3.8672112905 3.8932795963 3.9151549899 3.9337570603 3.5984456061 3.657329819 3.7058097288 
3.7462412737 3.7803704271 3.809500442 3.8346145692 3.4073543651 3.4813459737 3.5438565869 3.5969754326 3.6424295543 
3.6816134988 3.7156421835 3.7454049075 4.7123889804 4.8004512023 4.6243267584 4.9155579264 4.7123889804 4.5092200343 
5.0674903122 4.8353719722 4.5894059886 4.3572876485 5.2659633393 5.0120975802 4.7123889804 4.4126803806 4.1588146215 
5.5125918794 5.2659633393 4.9155579264 4.5092200343 4.1588146215 3.9121860814 5.7885595667 5.6029703303 5.2659633393 
4.7123889804 4.1588146215 3.8218076305 3.6362183941 6.0560271438 5.9702140275 5.7885595667 5.2659633393 4.1588146215 
3.6362183941 3.4545639333 3.368750817 0.22715816343 0.49462574053 0.3129712797 0.77059342779 0.68021497688 0.49462574053 
1.0172219679 1.0172219679 1.0172219679 1.0172219679 1.2156949949 1.271087727 1.3676273807 1.5707963268 2.1243706857 
1.3676273807 1.447813335 1.5707963268 1.7739652728 2.1243706857 2.6469669131 1.4827341049 1.5707963268 1.6937793186 
1.8705049266 2.1243706857 2.4613776767 2.8286213739 1.5707963268 1.6588585487 1.7739652728 1.9258976586 2.1243706857 
2.3709992258 2.6469669131 2.9144344902 1.7563855631 1.8785697967 1.8563003522 2.0024758186 1.9913306621 1.9779583789 
2.1243706857 2.1243706857 2.1243706857 2.1243706857 2.2408671392 2.2510113037 2.2630782103 2.2776669786 2.295651703 
2.3494282469 2.3680303173 2.3899057108 2.4159740166 2.4475202889 2.486385773 2.448570738 2.4736848652 2.5028148801 
2.5369440334 2.5773755784 2.6258554882 2.6847397011 2.5377803997 2.5675431237 2.6015718084 2.6407557529 2.6862098746 
2.7393287203 2.8018393335 2.8758309421 1.6743954455 1.6743954455 1.7840462375 1.6743954455 1.7840462375 1.8974821136 
1.6743954455 1.7840462375 1.8974821136 2.0119052671 1.6743954455 1.7840462375 1.8974821136 2.0119052671 2.1243706857 
1.6743954455 1.7840462375 1.8974821136 2.0119052671 2.1243706857 2.232221744 1.6743954455 1.7840462375 1.8974821136 
2.0119052671 2.1243706857 2.232221744 2.3334263672 1.6743954455 1.7840462375 1.8974821136 2.0119052671 2.1243706857 
2.232221744 2.3334263672 2.426721652 1.4671972081 1.3575464161 1.4671972081 1.24411054 1.3575464161 1.4671972081 
1.1296873865 1.24411054 1.3575464161 1.4671972081 1.0172219679 1.1296873865 1.24411054 1.3575464161 1.4671972081 
0.90937090954 1.0172219679 1.1296873865 1.24411054 1.3575464161 1.4671972081 0.80816628637 0.90937090954 1.0172219679 
1.1296873865 1.24411054 1.3575464161 1.4671972081 0.71487100155 0.80816628637 0.90937090954 1.0172219679 1.1296873865 
1.24411054 1.3575464161 1.4671972081 0.60381225391 0.57404952988 0.69302191562 0.54002084522 0.66790778838 0.79216440667 
0.50083690068 0.63877777351 0.77356233629 0.90072551443 0.45538277901 0.60464862014 0.75168694275 0.89058134991 1.0172219679 
0.40226393329 0.56421707518 0.72561863695 0.87851444325 1.0172219679 1.139116835 0.33975332011 0.51573716537 0.69407236469 
0.86392567495 1.0172219679 1.1502619915 1.2630228569 0.26576171152 0.45685295248 0.6552068806 0.84594095064 1.0172219679 
1.1636342747 1.2852923014 1.3852070904 0.22715816343 0.3129712797 0.49462574053 0.49462574053 0.68021497688 0.77059342779 
1.0172219679 1.0172219679 1.0172219679 1.0172219679 2.1243706857 1.5707963268 1.3676273807 1.271087727 1.2156949949 
2.6469669131 2.1243706857 1.7739652728 1.5707963268 1.447813335 1.3676273807 2.8286213739 2.4613776767 2.1243706857 
1.8705049266 1.6937793186 1.5707963268 1.4827341049 2.9144344902 2.6469669131 2.3709992258 2.1243706857 1.9258976586 
1.7739652728 1.6588585487 1.5707963268 1.7563855631 1.8563003522 1.8785697967 1.9779583789 1.9913306621 2.0024758186 
2.1243706857 2.1243706857 2.1243706857 2.1243706857 2.295651703 2.2776669786 2.2630782103 2.2510113037 2.2408671392 
2.486385773 2.4475202889 2.4159740166 2.3899057108 2.3680303173 2.3494282469 2.6847397011 2.6258554882 2.5773755784 
2.5369440334 2.5028148801 2.4736848652 2.448570738 2.8758309421 2.8018393335 2.7393287203 2.6862098746 2.6407557529 
2.6015718084 2.5675431237 2.5377803997 5.8604937156 5.901393709 5.9723133995 5.9473927383 6.0216547488 6.0927478736 
5.9992719463 6.0767621038 6.1501452836 6.2190157008 6.0578962336 6.1383094565 6.2134963469 0 0.064169606361 
6.1241815303 6.206940195 6.2831853072 0.069688960264 0.13304002361 0.19043743361 6.1990255847 0 0.07624511221 
0.14487585072 0.20642320337 0.26153055843 0.3108719077 0 0.084159722458 0.15900377685 0.22528907359 0.28391336087 
0.3357925689 0.38179159818 0.42269159155 5.8604937156 5.9723133995 5.901393709 6.0927478736 6.0216547488 5.9473927383 
6.2190157008 6.1501452836 6.0767621038 5.9992719463 0.064169606361 0 6.2134963469 6.1383094565 6.0578962336 
0.19043743361 0.13304002361 0.069688960264 6.2831853072 6.206940195 6.1241815303 0.3108719077 0.26153055843 0.20642320337 
0.14487585072 0.07624511221 6.2831853072 6.1990255847 0.42269159155 0.38179159818 0.3357925689 0.28391336087 0.22528907359 
0.15900377685 0.084159722458 0 5.6793730533 5.7091357773 5.5901633916 5.743164462 5.6152775188 5.4910209005 
5.7823484065 5.6444075337 5.5096229709 5.3824597928 5.8278025282 5.678536687 5.5314983644 5.3926039573 5.2659633393 
5.8809213739 5.718968232 5.5575666702 5.4046708639 5.2659633393 5.1440684722 5.9434319871 5.7674481418 5.5891129425 
5.4192596322 5.2659633393 5.1329233157 5.0201624502 6.0174235957 5.8263323547 5.6279784266 5.4372443565 5.2659633393 
5.1195510325 4.9978930058 4.8979782167 1.3852070904 1.2852923014 1.2630228569 1.1636342747 1.1502619915 1.139116835 
1.0172219679 1.0172219679 1.0172219679 1.0172219679 0.84594095064 0.86392567495 0.87851444325 0.89058134991 0.90072551443 
0.6552068806 0.69407236469 0.72561863695 0.75168694275 0.77356233629 0.79216440667 0.45685295248 0.51573716537 0.56421707518 
0.60464862014 0.63877777351 0.66790778838 0.69302191562 0.26576171152 0.33975332011 0.40226393329 0.45538277901 0.50083690068 
0.54002084522 0.57404952988 0.60381225391 
_paraPhiHalf 1 1002 double
0 3.1415926536 0 3.1415926536 1.5707963268 1.5707963268 1.5707963268 1.5707963268 2.5880182947 
0.5535743589 2.5880182947 0.5535743589 0 0 0 0 3.1415926536 3.1415926536 
3.1415926536 3.1415926536 3.1415926536 0.17788134 0.38438696014 0.60631181711 0.82323535693 1.0172219679 1.1799687454 
1.3118704726 1.4175000338 1.5022335207 0.17788134 0.38438696014 0.60631181711 0.82323535693 1.0172219679 1.1799687454 
1.3118704726 1.4175000338 1.5022335207 0.093902416448 0.17615329733 0.2478725152 0.31035131605 0.36486382811 0.41257334776 
0.45449736604 0.4915044461 0.52432611754 0.093902416448 0.17615329733 0.2478725152 0.31035131605 0.36486382811 0.41257334776 
0.45449736604 0.4915044461 0.52432611754 2.9637113136 2.7572056934 2.5352808365 2.3183572967 2.1243706857 1.9616239082 
1.829722181 1.7240926197 1.6393591329 2.9637113136 2.7572056934 2.5352808365 2.3183572967 2.1243706857 1.9616239082 
1.829722181 1.7240926197 1.6393591329 3.0476902371 2.9654393563 2.8937201384 2.8312413375 2.7767288255 2.7290193058 
2.6870952876 2.6500882075 2.617266536 3.0476902371 2.9654393563 2.8937201384 2.8312413375 2.7767288255 2.7290193058 
2.6870952876 2.6500882075 2.617266536 0 0 0 0 3.1415926536 3.1415926536 
3.1415926536 3.1415926536 3.1415926536 0.17788134 0.38438696014 0.60631181711 0.82323535693 1.0172219679 1.1799687454 
1.3118704726 1.4175000338 1.5022335207 0.17788134 0.38438696014 0.60631181711 0.82323535693 1.0172219679 1.1799687454 
1.3118704726 1.4175000338 1.5022335207 0.093902416448 0.17615329733 0.2478725152 0.31035131605 0.36486382811 0.41257334776 
0.45449736604 0.4915044461 0.52432611754 0.093902416448 0.17615329733 0.2478725152 0.31035131605 0.36486382811 0.41257334776 
0.45449736604 0.4915044461 0.52432611754 2.9637113136 2.7572056934 2.5352808365 2.3183572967 2.1243706857 1.9616239082 
1.829722181 1.7240926197 1.6393591329 2.9637113136 2.7572056934 2.5352808365 2.3183572967 2.1243706857 1.9616239082 
1.829722181 1.7240926197 1.6393591329 3.0476902371 2.9654393563 2.8937201384 2.8312413375 2.7767288255 2.7290193058 
2.6870952876 2.6500882075 2.617266536 3.0476902371 2.9654393563 2.8937201384 2.8312413375 2.7767288255 2.7290193058 
2.6870952876 2.6500882075 2.617266536 1.5707963268 1.5707963268 1.5707963268 1.5707963268 1.5707963268 1.5707963268 
1.5707963268 1.5707963268 1.5707963268 1.6743954455 1.7840462375 1.8974821136 2.0119052671 2.1243706857 2.232221744 
2.3334263672 2.426721652 2.5115728246 1.4671972081 1.3575464161 1.24411054 1.1296873865 1.0172219679 0.90937090954 
0.80816628637 0.71487100155 0.63001982895 1.6743954455 1.7840462375 1.8974821136 2.0119052671 2.1243706857 2.232221744 
2.3334263672 2.426721652 2.5115728246 1.4671972081 1.3575464161 1.24411054 1.1296873865 1.0172219679 0.90937090954 
0.80816628637 0.71487100155 0.63001982895 1.5707963268 1.5707963268 1.5707963268 1.5707963268 1.5707963268 1.5707963268 
1.5707963268 1.5707963268 1.5707963268 1.6743954455 1.7840462375 1.8974821136 2.0119052671 2.1243706857 2.232221744 
2.3334263672 2.426721652 2.5115728246 1.4671972081 1.3575464161 1.24411054 1.1296873865 1.0172219679 0.90937090954 
0.80816628637 0.71487100155 0.63001982895 1.6743954455 1.7840462375 1.8974821136 2.0119052671 2.1243706857 2.232221744 
2.3334263672 2.426721652 2.5115728246 1.4671972081 1.3575464161 1.24411054 1.1296873865 1.0172219679 0.90937090954 
0.80816628637 0.71487100155 0.63001982895 2.6824132222 2.7864913217 2.8992382033 3.0186096618 3.1415926536 3.0186096618 
2.8992382033 2.7864913217 2.6824132222 0.45917943135 0.35510133185 0.2423544503 0.12298299178 0 0.12298299178 
0.2423544503 0.35510133185 0.45917943135 0.22715816343 0.49462574053 0.3129712797 0.77059342779 0.68021497688 0.49462574053 
1.0172219679 1.0172219679 1.0172219679 1.0172219679 1.2156949949 1.271087727 1.3676273807 1.5707963268 2.1243706857 
1.3676273807 1.447813335 1.5707963268 1.7739652728 2.1243706857 2.6469669131 1.4827341049 1.5707963268 1.6937793186 
1.8705049266 2.1243706857 2.4613776767 2.8286213739 1.5707963268 1.6588585487 1.7739652728 1.9258976586 2.1243706857 
2.3709992258 2.6469669131 2.9144344902 0.26576171152 0.33975332011 0.45685295248 0.40226393329 0.51573716537 0.6552068806 
0.45538277901 0.56421707518 0.69407236469 0.84594095064 0.50083690068 0.60464862014 0.72561863695 0.86392567495 1.0172219679 
0.54002084522 0.63877777351 0.75168694275 0.87851444325 1.0172219679 1.1636342747 0.57404952988 0.66790778838 0.77356233629 
0.89058134991 1.0172219679 1.1502619915 1.2852923014 0.60381225391 0.69302191562 0.79216440667 0.90072551443 1.0172219679 
1.139116835 1.2630228569 1.3852070904 0.71487100155 0.80816628637 0.80816628637 0.90937090954 0.90937090954 0.90937090954 
1.0172219679 1.0172219679 1.0172219679 1.0172219679 1.1296873865 1.1296873865 1.1296873865 1.1296873865 1.1296873865 
1.24411054 1.24411054 1.24411054 1.24411054 1.24411054 1.24411054 1.3575464161 1.3575464161 1.3575464161 
1.3575464161 1.3575464161 1.3575464161 1.3575464161 1.4671972081 1.4671972081 1.4671972081 1.4671972081 1.4671972081 
1.4671972081 1.4671972081 1.4671972081 1.6743954455 1.6743954455 1.7840462375 1.6743954455 1.7840462375 1.8974821136 
1.6743954455 1.7840462375 1.8974821136 2.0119052671 1.6743954455 1.7840462375 1.8974821136 2.0119052671 2.1243706857 
1.6743954455 1.7840462375 1.8974821136 2.0119052671 2.1243706857 2.232221744 1.6743954455 1.7840462375 1.8974821136 
2.0119052671 2.1243706857 2.232221744 2.3334263672 1.6743954455 1.7840462375 1.8974821136 2.0119052671 2.1243706857 
2.232221744 2.3334263672 2.426721652 1.7563855631 1.8785697967 1.8563003522 2.0024758186 1.9913306621 1.9779583789 
2.1243706857 2.1243706857 2.1243706857 2.1243706857 2.2408671392 2.2510113037 2.2630782103 2.2776669786 2.295651703 
2.3494282469 2.3680303173 2.3899057108 2.4159740166 2.4475202889 2.486385773 2.448570738 2.4736848652 2.5028148801 
2.5369440334 2.5773755784 2.6258554882 2.6847397011 2.5377803997 2.5675431237 2.6015718084 2.6407557529 2.6862098746 
2.7393287203 2.8018393335 2.8758309421 2.718901062 2.8307207459 2.7598010554 2.95115522 2.8800620952 2.8058000847 
3.0774230472 3.00855263 2.9351694502 2.8576792927 3.0774230472 3.1415926536 3.0719036933 2.9967168029 2.91630358 
2.95115522 3.00855263 3.0719036933 3.1415926536 3.0653475414 2.9825888767 2.8307207459 2.8800620952 2.9351694502 
2.9967168029 3.0653475414 3.1415926536 3.0574329311 2.718901062 2.7598010554 2.8058000847 2.8576792927 2.91630358 
2.9825888767 3.0574329311 3.1415926536 2.718901062 2.7598010554 2.8307207459 2.8058000847 2.8800620952 2.95115522 
2.8576792927 2.9351694502 3.00855263 3.0774230472 2.91630358 2.9967168029 3.0719036933 3.1415926536 3.0774230472 
2.9825888767 3.0653475414 3.1415926536 3.0719036933 3.00855263 2.95115522 3.0574329311 3.1415926536 3.0653475414 