# vtk DataFile Version 5.1
vtk output
ASCII
DATASET POLYDATA
POINTS 1002 float
-5.17137 -0.327267 -4.35096 4.05793 0.103899 -2.18982 -4.82992 0.202911 5.14764 
3.78224 -0.0802914 3.45003 1.12556 7.51596 -2.04989 0.740944 8.89316 3.07382 
0.75645 -7.08892 -1.93611 1.15149 -8.19375 3.36625 9.92991 6.50484 0.495895 
-9.46512 4.5863 -1.48621 9.61679 -6.78385 -1.24756 -8.54635 -4.67356 -0.457343 
-4.3781 -0.350422 -4.18688 -3.61568 -0.338372 -3.72544 -2.70784 -0.266192 -3.14174 
-1.54437 -0.174539 -2.95521 -0.346444 -0.131492 -3.29972 0.597089 -0.109123 -3.48533 
1.37837 -0.0269622 -3.00053 2.25629 0.0882839 -2.29927 3.21758 0.139448 -2.01766 
-4.97713 0.290575 -4.24125 -4.71492 0.972557 -4.13545 -4.30206 1.71432 -3.89034 
-3.70602 2.47914 -3.37554 -2.92615 3.28495 -2.71509 -1.95004 4.21624 -2.16478 
-0.870186 5.24613 -1.81498 0.0731028 6.19677 -1.66357 0.718704 6.94506 -1.75169 
-4.84046 -0.957374 -4.43143 -4.49635 -1.63764 -4.44985 -4.07468 -2.38656 -4.31408 
-3.50908 -3.18196 -4.01111 -2.85537 -3.94143 -3.67425 -2.21996 -4.60468 -3.35542 
-1.57536 -5.20492 -2.93294 -0.827034 -5.81317 -2.4209 -0.00496835 -6.45269 -2.04454 
-5.97404 0.111429 -4.26199 -6.89941 0.621986 -4.105 -7.76045 1.16381 -3.9851 
-8.39887 1.7361 -3.88297 -8.92012 2.42545 -3.6381 -9.51476 3.26636 -3.22549 
-10.0611 4.06949 -2.82978 -10.2485 4.56753 -2.50864 -9.99237 4.69286 -2.09639 
-5.88398 -0.717511 -4.44561 -6.71801 -1.18931 -4.51764 -7.50063 -1.70062 -4.5195 
-8.06578 -2.19975 -4.31003 -8.43869 -2.69955 -3.80067 -8.73843 -3.24557 -3.11347 
-8.94152 -3.80084 -2.4336 -8.94913 -4.25447 -1.79138 -8.78201 -4.53977 -1.13003 
3.82146 0.965643 -1.8846 3.66359 1.88691 -1.61824 3.58471 2.79154 -1.46011 
3.46819 3.61103 -1.37144 3.20519 4.3811 -1.25234 2.8306 5.17921 -1.18079 
2.43333 5.95427 -1.35612 2.02706 6.5862 -1.72937 1.58918 7.07383 -2.015 
3.84427 -0.6734 -2.23418 3.5873 -1.45045 -2.14252 3.32054 -2.26305 -2.06095 
3.09118 -3.11282 -2.13924 2.84136 -3.92882 -2.2654 2.46036 -4.67039 -2.2199 
1.97086 -5.38036 -2.05758 1.4994 -6.06538 -1.97752 1.10432 -6.65179 -1.98193 
4.60668 0.620185 -2.24586 5.17843 1.31677 -2.13498 5.93749 2.1749 -1.92309 
6.8728 3.07183 -1.85687 7.7128 3.91966 -1.98607 8.35481 4.74786 -1.96127 
8.99795 5.53486 -1.48927 9.64829 6.12751 -0.727714 10.0152 6.42873 -0.0156063 
4.6452 -0.505405 -2.62868 5.13738 -1.23201 -3.0756 5.56977 -2.03465 -3.36759 
6.13391 -2.83718 -3.5474 6.94603 -3.55612 -3.69802 7.86285 -4.19479 -3.69702 
8.65997 -4.85548 -3.39008 9.23507 -5.58163 -2.8048 9.56001 -6.26996 -2.05503 
-4.00188 0.155071 4.90804 -3.19915 0.0552176 4.57899 -2.31922 -0.00581539 4.26357 
-1.29571 0.0431254 4.13422 -0.232987 0.138867 4.19586 0.729354 0.157634 4.19016 
1.5954 0.0903732 3.97953 2.41513 0.016597 3.73224 3.16086 -0.032281 3.58126 
-4.48973 0.868097 5.01391 -4.06326 1.60843 4.75295 -3.544 2.43482 4.49575 
-2.96443 3.38463 4.36818 -2.38615 4.45528 4.38926 -1.803 5.52873 4.42178 
-1.14645 6.48129 4.28178 -0.432261 7.33269 3.93616 0.224134 8.15061 3.50195 
-4.5436 -0.4816 5.05978 -4.13977 -1.26255 4.92628 -3.64856 -2.1224 4.68252 
-3.09409 -3.05013 4.33091 -2.44809 -4.01446 4.06382 -1.69009 -4.95217 4.0156 
-0.893238 -5.83067 4.01141 -0.152055 -6.66619 3.8475 0.520005 -7.46269 3.58069 
-5.54182 0.5671 5.31384 -6.33315 0.863471 5.37751 -7.12866 1.15273 4.98903 
-7.81102 1.51964 3.92952 -8.32347 1.94155 2.59644 -8.7126 2.34038 1.60095 
-9.03974 2.76788 0.915555 -9.30488 3.33691 0.132566 -9.46215 4.00277 -0.76555 
-5.61709 -0.206465 5.14836 -6.45842 -0.654737 4.76876 -7.15855 -1.12477 4.05075 
-7.69249 -1.63053 3.29157 -8.25655 -2.18339 2.72486 -8.84958 -2.74699 2.2473 
-9.16727 -3.2856 1.6449 -9.08905 -3.80077 0.910115 -8.81845 -4.27874 0.179403 
3.5181 0.859807 3.58751 3.21644 1.81526 3.67046 2.92105 2.76874 3.72952 
2.65553 3.7549 3.75281 2.37442 4.7578 3.66917 2.01382 5.68129 3.51677 
1.59589 6.51372 3.44169 1.21875 7.34681 3.44 0.943575 8.1806 3.34744 
3.64971 -0.985024 3.3281 3.47476 -1.91976 3.15596 3.3059 -2.85663 3.17226 
3.14588 -3.77528 3.55562 2.90595 -4.672 4.06976 2.54998 -5.55863 4.28684 
2.1753 -6.42363 4.14783 1.85103 -7.19523 3.89402 1.52902 -7.79021 3.64505 
4.17578 0.480667 3.29357 4.55144 1.14444 2.92056 4.97846 1.90687 2.43984 
5.54931 2.75937 2.06502 6.26332 3.64397 1.83359 7.04275 4.42674 1.59878 
7.86411 5.02225 1.33333 8.71397 5.50585 1.11722 9.46158 5.9974 0.888636 
4.27289 -0.744634 3.19806 4.78049 -1.52231 2.8357 5.341 -2.3816 2.34582 
5.96812 -3.29575 1.79132 6.64476 -4.21759 1.34999 7.40268 -5.07042 1.09 
8.27065 -5.79475 0.794254 9.08883 -6.34873 0.24276 9.57862 -6.68313 -0.504209 
0.987871 8.19457 -2.20235 0.769912 9.06295 -2.26675 0.573069 9.965 -2.1398 
0.491683 10.5711 -1.69156 0.548381 10.7368 -0.881017 0.702765 10.669 0.127575 
0.866783 10.5377 1.08524 0.938179 10.2348 1.88003 0.880521 9.6543 2.53507 
1.8542 7.69377 -2.45228 2.88636 7.79963 -2.67395 4.21735 7.96513 -2.5766 
5.60401 8.31744 -2.37663 6.8355 8.75538 -2.37703 7.93883 8.95479 -2.38821 
8.93682 8.70752 -1.93742 9.66399 8.09657 -1.01989 9.97924 7.31647 -0.093205 
0.423779 7.61981 -1.69147 -0.394533 7.62203 -1.3844 -1.41531 7.41505 -1.3271 
-2.57595 6.8884 -1.41114 -3.71611 6.14457 -1.35966 -4.83803 5.5582 -1.211 
-6.08041 5.36 -1.2416 -7.40519 5.32787 -1.45444 -8.58542 5.10421 -1.58866 
1.29959 9.05233 2.78703 1.97824 8.86373 2.26455 2.95851 8.40605 1.62178 
4.20334 8.04668 1.20834 5.4646 8.00215 1.1664 6.62355 8.01353 1.20298 
7.7527 7.78636 1.06174 8.80342 7.38591 0.832268 9.56711 6.96327 0.652297 
0.183074 8.97938 2.89261 -0.659295 8.85202 2.60693 -1.77162 8.58475 2.30937 
-2.85709 8.17668 1.98343 -3.68689 7.508 1.56427 -4.48298 6.59503 1.06465 
-5.58393 5.71839 0.499777 -6.95126 5.12937 -0.157102 -8.30676 4.80986 -0.858865 
0.950384 -7.72193 -1.84303 1.0506 -8.45363 -1.62257 1.05251 -9.3382 -1.1996 
1.07639 -10.2296 -0.550808 1.23272 -10.746 0.276904 1.43532 -10.6476 1.17044 
1.51163 -10.1116 1.97926 1.43278 -9.45594 2.60082 1.28969 -8.81872 3.04069 
1.64911 -7.46098 -2.08965 2.52017 -7.68509 -2.23781 3.44697 -7.72158 -2.20664 
4.50962 -7.77514 -2.13392 5.5735 -8.01066 -2.24134 6.43925 -8.21459 -2.39464 
7.21585 -8.08225 -2.30458 8.12064 -7.66084 -1.97316 9.03263 -7.19492 -1.58936 
-0.0810244 -7.04992 -1.86577 -1.05771 -7.05697 -1.94746 -2.12168 -7.19689 -2.16574 
-3.19298 -7.34162 -2.2858 -4.223 -7.25967 -2.11729 -5.20759 -6.92356 -1.7562 
-6.14949 -6.46469 -1.38648 -7.03477 -5.92971 -1.05659 -7.83968 -5.31378 -0.748977 
2.02436 -8.68314 3.42247 2.87557 -9.07256 3.42026 3.70932 -9.23144 3.11695 
4.6186 -9.19201 2.43501 5.65308 -9.10436 1.62265 6.70509 -8.97057 0.962138 
7.65306 -8.64256 0.454753 8.48481 -8.09133 -0.0539028 9.17442 -7.43913 -0.635059 
0.259587 -8.06143 3.15691 -0.77397 -7.89393 2.96952 -1.78579 -7.62961 2.74775 
-2.70191 -7.1326 2.30449 -3.64974 -6.47147 1.60836 -4.74867 -5.95616 0.96489 
-5.90554 -5.70161 0.608559 -6.95277 -5.48547 0.372382 -7.82788 -5.12716 0.014551 
9.82098 5.57085 0.523778 9.54984 4.35115 0.34676 9.11688 2.97148 0.0973785 
8.441 1.6481 -0.12013 7.71744 0.273026 -0.425344 7.56135 -1.47631 -0.919408 
8.25707 -3.4378 -1.38362 9.23582 -5.04349 -1.54745 9.75225 -6.07733 -1.43568 
-10.5198 3.93909 -1.64644 -11.498 3.11265 -1.67984 -12.2949 2.22771 -1.50757 
-12.6195 1.23965 -1.08329 -12.2831 -0.0206926 -0.592226 -11.5404 -1.41122 -0.361489 
-10.7828 -2.54032 -0.4438 -10.0868 -3.32553 -0.575862 -9.34556 -3.99463 -0.566861 
-4.17359 0.272819 -4.05739 -3.84471 1.00151 -3.96234 -3.34079 0.322916 -3.56685 
-3.27051 1.83464 -3.70894 -2.85118 1.14695 -3.50057 -2.274 0.448765 -3.07429 
-2.44911 2.71394 -3.14842 -2.0484 2.10334 -3.26384 -1.5957 1.35298 -3.07711 
-0.979792 0.564145 -3.07311 -1.48651 3.64421 -2.45417 -1.0467 3.07761 -2.70205 
-0.654867 2.35848 -2.80443 -0.226608 1.47964 -3.0057 0.220209 0.618591 -3.35669 
-0.496785 4.66789 -1.92086 -0.0723514 4.05139 -2.0485 0.334818 3.32336 -2.21247 
0.685205 2.45392 -2.51117 0.956468 1.53371 -2.93125 1.15963 0.692652 -3.16875 
0.394248 5.67859 -1.67347 0.756208 5.0408 -1.61797 1.1576 4.25464 -1.6393 
1.53888 3.38262 -1.84585 1.79946 2.50166 -2.18004 1.92013 1.64277 -2.44287 
2.02861 0.831372 -2.47032 1.08366 6.4938 -1.72353 1.44113 5.92566 -1.5245 
1.82024 5.1674 -1.34249 2.22243 4.29683 -1.37408 2.56015 3.45223 -1.56585 
2.73729 2.63995 -1.7435 2.81504 1.799 -1.85363 2.95419 0.946315 -1.93371 
-5.73913 0.820646 -4.12813 -6.57009 1.42402 -3.94454 -5.38452 1.58819 -3.92935 
-7.2627 2.06878 -3.90447 -6.0739 2.29777 -3.71245 -4.89656 2.37316 -3.52323 
-7.74119 2.77568 -3.93606 -6.60769 3.07687 -3.80833 -5.49612 3.16474 -3.33565 
-4.27726 3.1486 -2.93927 -8.2011 3.57224 -3.69032 -6.98663 3.86239 -3.94454 
-5.92731 4.00902 -3.57704 -4.79351 3.98534 -2.88868 -3.41507 3.99514 -2.4026 
-8.72835 4.34838 -3.12513 -7.36122 4.52581 -3.55701 -6.17536 4.67132 -3.63051 
-5.05623 4.7774 -3.11824 -3.73137 4.84118 -2.43059 -2.23704 4.98001 -1.99733 
-9.06487 4.89296 -2.55681 -7.66766 4.96207 -2.73961 -6.31111 4.99975 -2.95779 
-5.08081 5.21741 -2.88202 -3.78898 5.52794 -2.42411 -2.35709 5.77901 -1.91924 
-1.00287 5.99339 -1.67674 -8.98997 5.11505 -2.096 -7.68844 5.19699 -1.99618 
-6.28998 5.14842 -1.97552 -4.98902 5.35674 -2.04926 -3.73655 5.88526 -1.98918 
-2.41633 6.4128 -1.71131 -1.13865 6.72908 -1.48763 -0.0896126 6.88341 -1.53845 
-7.23338 5.32636 -0.926758 -5.77949 5.82943 -0.214569 -5.9523 5.65521 -0.765499 
-4.57939 6.78725 0.38397 -4.64293 6.54606 -0.194918 -4.73851 5.99845 -0.647205 
-3.79281 7.93061 0.812352 -3.81367 7.93125 0.105561 -3.78132 7.36954 -0.441967 
-3.74005 6.62979 -0.854373 -3.05332 8.77065 1.13665 -3.21218 9.15839 0.263851 
-3.22556 8.99201 -0.545576 -3.054 8.29413 -1.01355 -2.78421 7.49376 -1.19524 
-1.95701 9.21053 1.44882 -2.24427 9.79503 0.526605 -2.48058 10.0931 -0.501091 
-2.46537 9.84464 -1.28106 -2.15179 9.10196 -1.46756 -1.72137 8.207 -1.33606 
-0.700532 9.49828 1.82033 -0.91732 10.0778 0.972757 -1.24946 10.5384 -0.0543523 
-1.48931 10.7108 -1.1067 -1.44127 10.3622 -1.67789 -1.10536 9.5165 -1.63574 
[...]
POINT_DATA 1002
FIELD FieldData 4
_paraPhi 1 1002 double
6.2831853072 3.1415926536 6.2831853072 3.1415926536 4.7123889804 4.7123889804 1.5707963268 1.5707963268 3.6951670125 
5.7296109483 2.5880182947 0.5535743589 6.2831853072 6.2831853072 6.2831853072 6.2831853072 3.1415926536 3.1415926536 
3.1415926536 3.1415926536 3.1415926536 6.1053039672 5.898798347 5.6768734901 5.4599499503 5.2659633393 5.1032165617 
4.9713148346 4.8656852733 4.7809517865 0.17788134 0.38438696014 0.60631181711 0.82323535693 1.0172219679 1.1799687454 
1.3118704726 1.4175000338 1.5022335207 6.1892828907 6.1070320098 6.035312792 5.9728339911 5.9183214791 5.8706119594 
5.8286879411 5.7916808611 5.7588591896 0.093902416448 0.17615329733 0.2478725152 0.31035131605 0.36486382811 0.41257334776 
0.45449736604 0.4915044461 0.52432611754 3.3194739936 3.5259796137 3.7479044707 3.9648280105 4.1588146215 4.321561399 
4.4534631262 4.5590926874 4.6438261743 2.9637113136 2.7572056934 2.5352808365 2.3183572967 2.1243706857 1.9616239082 
1.829722181 1.7240926197 1.6393591329 3.23549507 3.3177459509 3.3894651688 3.4519439696 3.5064564817 3.5541660013 
3.5960900196 3.6330970997 3.6659187711 3.0476902371 2.9654393563 2.8937201384 2.8312413375 2.7767288255 2.7290193058 
2.6870952876 2.6500882075 2.617266536 6.2831853072 6.2831853072 6.2831853072 6.2831853072 3.1415926536 3.1415926536 
3.1415926536 3.1415926536 3.1415926536 6.1053039672 5.898798347 5.6768734901 5.4599499503 5.2659633393 5.1032165617 
4.9713148346 4.8656852733 4.7809517865 0.17788134 0.38438696014 0.60631181711 0.82323535693 1.0172219679 1.1799687454 
1.3118704726 1.4175000338 1.5022335207 6.1892828907 6.1070320098 6.035312792 5.9728339911 5.9183214791 5.8706119594 
5.8286879411 5.7916808611 5.7588591896 0.093902416448 0.17615329733 0.2478725152 0.31035131605 0.36486382811 0.41257334776 
0.45449736604 0.4915044461 0.52432611754 3.3194739936 3.5259796137 3.7479044707 3.9648280105 4.1588146215 4.321561399 
4.4534631262 4.5590926874 4.6438261743 2.9637113136 2.7572056934 2.5352808365 2.3183572967 2.1243706857 1.9616239082 
1.829722181 1.7240926197 1.6393591329 3.23549507 3.3177459509 3.3894651688 3.4519439696 3.5064564817 3.5541660013 
3.5960900196 3.6330970997 3.6659187711 3.0476902371 2.9654393563 2.8937201384 2.8312413375 2.7767288255 2.7290193058 
2.6870952876 2.6500882075 2.617266536 4.7123889804 4.7123889804 4.7123889804 4.7123889804 4.7123889804 4.7123889804 
4.7123889804 4.7123889804 4.7123889804 4.6087898617 4.4991390697 4.3857031936 4.2712800401 4.1588146215 4.0509635631 
3.94975894 3.8564636551 3.7716124825 4.8159880991 4.9256388911 5.0390747672 5.1534979207 5.2659633393 5.3738143976 
5.4750190208 5.5683143056 5.6531654782 4.6087898617 4.4991390697 4.3857031936 4.2712800401 4.1588146215 4.0509635631 
3.94975894 3.8564636551 3.7716124825 4.8159880991 4.9256388911 5.0390747672 5.1534979207 5.2659633393 5.3738143976 
5.4750190208 5.5683143056 5.6531654782 1.5707963268 1.5707963268 1.5707963268 1.5707963268 1.5707963268 1.5707963268 
1.5707963268 1.5707963268 1.5707963268 1.6743954455 1.7840462375 1.8974821136 2.0119052671 2.1243706857 2.232221744 
2.3334263672 2.426721652 2.5115728246 1.4671972081 1.3575464161 1.24411054 1.1296873865 1.0172219679 0.90937090954 
0.80816628637 0.71487100155 0.63001982895 1.6743954455 1.7840462375 1.8974821136 2.0119052671 2.1243706857 2.232221744 
2.3334263672 2.426721652 2.5115728246 1.4671972081 1.3575464161 1.24411054 1.1296873865 1.0172219679 0.90937090954 
0.80816628637 0.71487100155 0.63001982895 3.6007720849 3.4966939854 3.3839471039 3.2645756454 3.1415926536 3.0186096618 
2.8992382033 2.7864913217 2.6824132222 5.8240058758 5.9280839753 6.0408308569 6.1602023154 6.2831853072 0.12298299178 
0.2423544503 0.35510133185 0.45917943135 6.0560271438 5.7885595667 5.9702140275 5.5125918794 5.6029703303 5.7885595667 
5.2659633393 5.2659633393 5.2659633393 5.2659633393 5.0674903122 5.0120975802 4.9155579264 4.7123889804 4.1588146215 
4.9155579264 4.8353719722 4.7123889804 4.5092200343 4.1588146215 3.6362183941 4.8004512023 4.7123889804 4.5894059886 
4.4126803806 4.1588146215 3.8218076305 3.4545639333 4.7123889804 4.6243267584 4.5092200343 4.3572876485 4.1588146215 
3.9121860814 3.6362183941 3.368750817 6.0174235957 5.9434319871 5.8263323547 5.8809213739 5.7674481418 5.6279784266 
5.8278025282 5.718968232 5.5891129425 5.4372443565 5.7823484065 5.678536687 5.5575666702 5.4192596322 5.2659633393 
5.743164462 5.6444075337 5.5314983644 5.4046708639 5.2659633393 5.1195510325 5.7091357773 5.6152775188 5.5096229709 
5.3926039573 5.2659633393 5.1329233157 4.9978930058 5.6793730533 5.5901633916 5.4910209005 5.3824597928 5.2659633393 
5.1440684722 5.0201624502 4.8979782167 5.5683143056 5.4750190208 5.4750190208 5.3738143976 5.3738143976 5.3738143976 
5.2659633393 5.2659633393 5.2659633393 5.2659633393 5.1534979207 5.1534979207 5.1534979207 5.1534979207 5.1534979207 
5.0390747672 5.0390747672 5.0390747672 5.0390747672 5.0390747672 5.0390747672 4.9256388911 4.9256388911 4.9256388911 
4.9256388911 4.9256388911 4.9256388911 4.9256388911 4.8159880991 4.8159880991 4.8159880991 4.8159880991 4.8159880991 
4.8159880991 4.8159880991 4.8159880991 4.6087898617 4.6087898617 4.4991390697 4.6087898617 4.4991390697 4.3857031936 
4.6087898617 4.4991390697 4.3857031936 4.2712800401 4.6087898617 4.4991390697 4.3857031936 4.2712800401 4.1588146215 
4.6087898617 4.4991390697 4.3857031936 4.2712800401 4.1588146215 4.0509635631 4.6087898617 4.4991390697 4.3857031936 
4.2712800401 4.1588146215 4.0509635631 3.94975894 4.6087898617 4.4991390697 4.3857031936 4.2712800401 4.1588146215 
4.0509635631 3.94975894 3.8564636551 4.526799744 4.4046155105 4.426884955 4.2807094886 4.2918546451 4.3052269283 
4.1588146215 4.1588146215 4.1588146215 4.1588146215 4.042318168 4.0321740035 4.0201070968 4.0055183285 3.9875336042 
3.9337570603 3.9151549899 3.8932795963 3.8672112905 3.8356650183 3.7967995342 3.8346145692 3.809500442 3.7803704271 
3.7462412737 3.7058097288 3.657329819 3.5984456061 3.7454049075 3.7156421835 3.6816134988 3.6424295543 3.5969754326 
3.5438565869 3.4813459737 3.4073543651 3.5642842451 3.4524645613 3.5233842518 3.3320300872 3.403123212 3.4773852225 
3.20576226 3.2746326772 3.348015857 3.4255060145 3.0774230472 3.1415926536 3.2112816139 3.2864685043 3.3668817272 
2.95115522 3.00855263 3.0719036933 3.1415926536 3.2178377658 3.3005964304 2.8307207459 2.8800620952 2.9351694502 
2.9967168029 3.0653475414 3.1415926536 3.225752376 2.718901062 2.7598010554 2.8058000847 2.8576792927 2.91630358 
2.9825888767 3.0574329311 3.1415926536 3.5642842451 3.5233842518 3.4524645613 3.4773852225 3.403123212 3.3320300872 
3.4255060145 3.348015857 3.2746326772 3.20576226 3.3668817272 3.2864685043 3.2112816139 3.1415926536 3.0774230472 
3.3005964304 3.2178377658 3.1415926536 3.0719036933 3.00855263 2.95115522 3.225752376 3.1415926536 3.0653475414 
2.9967168029 2.9351694502 2.8800620952 2.8307207459 3.1415926536 3.0574329311 2.9825888767 2.91630358 2.8576792927 
2.8058000847 2.7598010554 2.718901062 4.526799744 4.426884955 4.4046155105 4.3052269283 4.2918546451 4.2807094886 
4.1588146215 4.1588146215 4.1588146215 4.1588146215 3.9875336042 4.0055183285 4.0201070968 4.0321740035 4.042318168 
3.7967995342 3.8356650183 3.8672112905 3.8932795963 3.9151549899 3.9337570603 3.5984456061 3.657329819 3.7058097288 
3.7462412737 3.7803704271 3.809500442 3.8346145692 3.4073543651 3.4813459737 3.5438565869 3.5969754326 3.6424295543 
3.6816134988 3.7156421835 3.7454049075 4.7123889804 4.8004512023 4.6243267584 4.9155579264 4.7123889804 4.5092200343 
5.0674903122 4.8353719722 4.5894059886 4.3572876485 5.2659633393 5.0120975802 4.7123889804 4.4126803806 4.1588146215 
5.5125918794 5.2659633393 4.9155579264 4.5092200343 4.1588146215 3.9121860814 5.7885595667 5.6029703303 5.2659633393 
4.7123889804 4.1588146215 3.8218076305 3.6362183941 6.0560271438 5.9702140275 5.7885595667 5.2659633393 4.1588146215 
3.6362183941 3.4545639333 3.368750817 0.22715816343 0.49462574053 0.3129712797 0.77059342779 0.68021497688 0.49462574053 
1.0172219679 1.0172219679 1.0172219679 1.0172219679 1.2156949949 1.271087727 1.3676273807 1.5707963268 2.1243706857 
1.3676273807 1.447813335 1.5707963268 1.7739652728 2.1243706857 2.6469669131 1.4827341049 1.5707963268 1.6937793186 
1.8705049266 2.1243706857 2.4613776767 2.8286213739 1.5707963268 1.6588585487 1.7739652728 1.9258976586 2.1243706857 
2.3709992258 2.6469669131 2.9144344902 1.7563855631 1.8785697967 1.8563003522 2.0024758186 1.9913306621 1.9779583789 
2.1243706857 2.1243706857 2.1243706857 2.1243706857 2.2408671392 2.2510113037 2.2630782103 2.2776669786 2.295651703 
2.3494282469 2.3680303173 2.3899057108 2.4159740166 2.4475202889 2.486385773 2.448570738 2.4736848652 2.5028148801 
2.5369440334 2.5773755784 2.6258554882 2.6847397011 2.5377803997 2.5675431237 2.6015718084 2.6407557529 2.6862098746 
2.7393287203 2.8018393335 2.8758309421 1.6743954455 1.6743954455 1.7840462375 1.6743954455 1.7840462375 1.8974821136 
1.6743954455 1.7840462375 1.8974821136 2.0119052671 1.6743954455 1.7840462375 1.8974821136 2.0119052671 2.1243706857 
1.6743954455 1.7840462375 1.8974821136 2.0119052671 2.1243706857 2.232221744 1.6743954455 1.7840462375 1.8974821136 
2.0119052671 2.1243706857 2.232221744 2.3334263672 1.6743954455 1.7840462375 1.8974821136 2.0119052671 2.1243706857 
2.232221744 2.3334263672 2.426721652 1.4671972081 1.3575464161 1.4671972081 1.24411054 1.3575464161 1.4671972081 
1.1296873865 1.24411054 1.3575464161 1.4671972081 1.0172219679 1.1296873865 1.24411054 1.3575464161 1.4671972081 
0.90937090954 1.0172219679 1.1296873865 1.24411054 1.3575464161 1.4671972081 0.80816628637 0.90937090954 1.0172219679 
1.1296873865 1.24411054 1.3575464161 1.4671972081 0.71487100155 0.80816628637 0.90937090954 1.0172219679 1.1296873865 
1.24411054 1.3575464161 1.4671972081 0.60381225391 0.57404952988 0.69302191562 0.54002084522 0.66790778838 0.79216440667 
0.50083690068 0.63877777351 0.77356233629 0.90072551443 0.45538277901 0.60464862014 0.75168694275 0.89058134991 1.0172219679 
0.40226393329 0.56421707518 0.72561863695 0.87851444325 1.0172219679 1.139116835 0.33975332011 0.51573716537 0.69407236469 
0.86392567495 1.0172219679 1.1502619915 1.2630228569 0.26576171152 0.45685295248 0.6552068806 0.84594095064 1.0172219679 
1.1636342747 1.2852923014 1.3852070904 0.22715816343 0.3129712797 0.49462574053 0.49462574053 0.68021497688 0.77059342779 
1.0172219679 1.0172219679 1.0172219679 1.0172219679 2.1243706857 1.5707963268 1.3676273807 1.271087727 1.2156949949 
2.6469669131 2.1243706857 1.7739652728 1.5707963268 1.447813335 1.3676273807 2.8286213739 2.4613776767 2.1243706857 
1.8705049266 1.6937793186 1.5707963268 1.4827341049 2.9144344902 2.6469669131 2.3709992258 2.1243706857 1.9258976586 
1.7739652728 1.6588585487 1.5707963268 1.7563855631 1.8563003522 1.8785697967 1.9779583789 1.9913306621 2.0024758186 
2.1243706857 2.1243706857 2.1243706857 2.1243706857 2.295651703 2.2776669786 2.2630782103 2.2510113037 2.2408671392 
2.486385773 2.4475202889 2.4159740166 2.3899057108 2.3680303173 2.3494282469 2.6847397011 2.6258554882 2.5773755784 
2.5369440334 2.5028148801 2.4736848652 2.448570738 2.8758309421 2.8018393335 2.7393287203 2.6862098746 2.6407557529 
2.6015718084 2.5675431237 2.5377803997 5.8604937156 5.901393709 5.9723133995 5.9473927383 6.0216547488 6.0927478736 
5.9992719463 6.0767621038 6.1501452836 6.2190157008 6.0578962336 6.1383094565 6.2134963469 0 0.064169606361 
6.1241815303 6.206940195 6.2831853072 0.069688960264 0.13304002361 0.19043743361 6.1990255847 0 0.07624511221 
0.14487585072 0.20642320337 0.26153055843 0.3108719077 0 0.084159722458 0.15900377685 0.22528907359 0.28391336087 
0.3357925689 0.38179159818 0.42269159155 5.8604937156 5.9723133995 5.901393709 6.0927478736 6.0216547488 5.9473927383 
6.2190157008 6.1501452836 6.0767621038 5.9992719463 0.064169606361 0 6.2134963469 6.1383094565 6.0578962336 
0.19043743361 0.13304002361 0.069688960264 6.2831853072 6.206940195 6.1241815303 0.3108719077 0.26153055843 0.20642320337 
0.14487585072 0.07624511221 6.2831853072 6.1990255847 0.42269159155 0.38179159818 0.3357925689 0.28391336087 0.22528907359 
0.15900377685 0.084159722458 0 5.6793730533 5.7091357773 5.5901633916 5.743164462 5.6152775188 5.4910209005 
5.7823484065 5.6444075337 5.5096229709 5.3824597928 5.8278025282 5.678536687 5.5314983644 5.3926039573 5.2659633393 
5.8809213739 5.718968232 5.5575666702 5.4046708639 5.2659633393 5.1440684722 5.9434319871 5.7674481418 5.5891129425 
5.4192596322 5.2659633393 5.1329233157 5.0201624502 6.0174235957 5.8263323547 5.6279784266 5.4372443565 5.2659633393 
5.1195510325 4.9978930058 4.8979782167 1.3852070904 1.2852923014 1.2630228569 1.1636342747 1.1502619915 1.139116835 
1.0172219679 1.0172219679 1.0172219679 1.0172219679 0.84594095064 0.86392567495 0.87851444325 0.89058134991 0.90072551443 
0.6552068806 0.69407236469 0.72561863695 0.75168694275 0.77356233629 0.79216440667 0.45685295248 0.51573716537 0.56421707518 
0.60464862014 0.63877777351 0.66790778838 0.69302191562 0.26576171152 0.33975332011 0.40226393329 0.45538277901 0.50083690068 
0.54002084522 0.57404952988 0.60381225391 
_paraPhiHalf 1 1002 double
0 3.1415926536 0 3.1415926536 1.5707963268 1.5707963268 1.5707963268 1.5707963268 2.5880182947 
0.5535743589 2.5880182947 0.5535743589 0 0 0 0 3.1415926536 3.1415926536 
3.1415926536 3.1415926536 3.1415926536 0.17788134 0.38438696014 0.60631181711 0.82323535693 1.0172219679 1.1799687454 
1.3118704726 1.4175000338 1.5022335207 0.17788134 0.38438696014 0.60631181711 0.82323535693 1.0172219679 1.1799687454 
1.3118704726 1.4175000338 1.5022335207 0.093902416448 0.17615329733 0.2478725152 0.31035131605 0.36486382811 0.41257334776 
0.45449736604 0.4915044461 0.52432611754 0.093902416448 0.17615329733 0.2478725152 0.31035131605 0.36486382811 0.41257334776 
0.45449736604 0.4915044461 0.52432611754 2.9637113136 2.7572056934 2.5352808365 2.3183572967 2.1243706857 1.9616239082 
1.829722181 1.7240926197 1.6393591329 2.9637113136 2.7572056934 2.5352808365 2.3183572967 2.1243706857 1.9616239082 
1.829722181 1.7240926197 1.6393591329 3.0476902371 2.9654393563 2.8937201384 2.8312413375 2.7767288255 2.7290193058 
2.6870952876 2.6500882075 2.617266536 3.0476902371 2.9654393563 2.8937201384 2.8312413375 2.7767288255 2.7290193058 
2.6870952876 2.6500882075 2.617266536 0 0 0 0 3.1415926536 3.1415926536 
3.1415926536 3.1415926536 3.1415926536 0.17788134 0.38438696014 0.60631181711 0.82323535693 1.0172219679 1.1799687454 
1.3118704726 1.4175000338 1.5022335207 0.17788134 0.38438696014 0.60631181711 0.82323535693 1.0172219679 1.1799687454 
1.3118704726 1.4175000338 1.5022335207 0.093902416448 0.17615329733 0.2478725152 0.31035131605 0.36486382811 0.41257334776 
0.45449736604 0.4915044461 0.52432611754 0.093902416448 0.17615329733 0.2478725152 0.31035131605 0.36486382811 0.41257334776 
0.45449736604 0.4915044461 0.52432611754 2.9637113136 2.7572056934 2.5352808365 2.3183572967 2.1243706857 1.9616239082 
1.829722181 1.7240926197 1.6393591329 2.9637113136 2.7572056934 2.5352808365 2.3183572967 2.1243706857 1.9616239082 
1.829722181 1.7240926197 1.6393591329 3.0476902371 2.9654393563 2.8937201384 2.8312413375 2.7767288255 2.7290193058 
2.6870952876 2.6500882075 2.617266536 3.0476902371 2.9654393563 2.8937201384 2.8312413375 2.7767288255 2.7290193058 
2.6870952876 2.6500882075 2.617266536 1.5707963268 1.5707963268 1.5707963268 1.5707963268 1.5707963268 1.5707963268 
1.5707963268 1.5707963268 1.5707963268 1.6743954455 1.7840462375 1.8974821136 2.0119052671 2.1243706857 2.232221744 
2.3334263672 2.426721652 2.5115728246 1.4671972081 1.3575464161 1.24411054 1.1296873865 1.0172219679 0.90937090954 
0.80816628637 0.71487100155 0.63001982895 1.6743954455 1.7840462375 1.8974821136 2.0119052671 2.1243706857 2.232221744 
2.3334263672 2.426721652 2.5115728246 1.4671972081 1.3575464161 1.24411054 1.1296873865 1.0172219679 0.90937090954 
0.80816628637 0.71487100155 0.63001982895 1.5707963268 1.5707963268 1.5707963268 1.5707963268 1.5707963268 1.5707963268 
1.5707963268 1.5707963268 1.5707963268 1.6743954455 1.7840462375 1.8974821136 2.0119052671 2.1243706857 2.232221744 
2.3334263672 2.426721652 2.5115728246 1.4671972081 1.3575464161 1.24411054 1.1296873865 1.0172219679 0.90937090954 
0.80816628637 0.71487100155 0.63001982895 1.6743954455 1.7840462375 1.8974821136 2.0119052671 2.1243706857 2.232221744 
2.3334263672 2.426721652 2.5115728246 1.4671972081 1.3575464161 1.24411054 1.1296873865 1.0172219679 0.90937090954 
0.80816628637 0.71487100155 0.63001982895 2.6824132222 2.7864913217 2.8992382033 3.0186096618 3.1415926536 3.0186096618 
2.8992382033 2.7864913217 2.6824132222 0.45917943135 0.35510133185 0.2423544503 0.12298299178 0 0.12298299178 
0.2423544503 0.35510133185 0.45917943135 0.22715816343 0.49462574053 0.3129712797 0.77059342779 0.68021497688 0.49462574053 
1.0172219679 1.0172219679 1.0172219679 1.0172219679 1.2156949949 1.271087727 1.3676273807 1.5707963268 2.1243706857 
1.3676273807 1.447813335 1.5707963268 1.7739652728 2.1243706857 2.6469669131 1.4827341049 1.5707963268 1.6937793186 
1.8705049266 2.1243706857 2.4613776767 2.8286213739 1.5707963268 1.6588585487 1.7739652728 1.9258976586 2.1243706857 
2.3709992258 2.6469669131 2.9144344902 0.26576171152 0.33975332011 0.45685295248 0.40226393329 0.51573716537 0.6552068806 
0.45538277901 0.56421707518 0.69407236469 0.84594095064 0.50083690068 0.60464862014 0.72561863695 0.86392567495 1.0172219679 
0.54002084522 0.63877777351 0.75168694275 0.87851444325 1.0172219679 1.1636342747 0.57404952988 0.66790778838 0.77356233629 
0.89058134991 1.0172219679 1.1502619915 1.2852923014 0.60381225391 0.69302191562 0.79216440667 0.90072551443 1.0172219679 
1.139116835 1.2630228569 1.3852070904 0.71487100155 0.80816628637 0.80816628637 0.90937090954 0.90937090954 0.90937090954 
1.0172219679 1.0172219679 1.0172219679 1.0172219679 1.1296873865 1.1296873865 1.1296873865 1.1296873865 1.1296873865 
1.24411054 1.24411054 1.24411054 1.24411054 1.24411054 1.24411054 1.3575464161 1.3575464161 1.3575464161 
1.3575464161 1.3575464161 1.3575464161 1.3575464161 1.4671972081 1.4671972081 1.4671972081 1.4671972081 1.4671972081 
1.4671972081 1.4671972081 1.4671972081 1.6743954455 1.6743954455 1.7840462375 1.6743954455 1.7840462375 1.8974821136 
1.6743954455 1.7840462375 1.8974821136 2.0119052671 1.6743954455 1.7840462375 1.8974821136 2.0119052671 2.1243706857 
1.6743954455 1.7840462375 1.8974821136 2.0119052671 2.1243706857 2.232221744 1.6743954455 1.7840462375 1.8974821136 
2.0119052671 2.1243706857 2.232221744 2.3334263672 1.6743954455 1.7840462375 1.8974821136 2.0119052671 2.1243706857 
2.232221744 2.3334263672 2.426721652 1.7563855631 1.8785697967 1.8563003522 2.0024758186 1.9913306621 1.9779583789 
2.1243706857 2.1243706857 2.1243706857 2.1243706857 2.2408671392 2.2510113037 2.2630782103 2.2776669786 2.295651703 
2.3494282469 2.3680303173 2.3899057108 2.4159740166 2.4475202889 2.486385773 2.448570738 2.4736848652 2.5028148801 
2.5369440334 2.5773755784 2.6258554882 2.6847397011 2.5377803997 2.5675431237 2.6015718084 2.6407557529 2.6862098746 
2.7393287203 2.8018393335 2.8758309421 2.718901062 2.8307207459 2.7598010554 2.95115522 2.8800620952 2.8058000847 
3.0774230472 3.00855263 2.9351694502 2.8576792927 3.0774230472 3.1415926536 3.0719036933 2.9967168029 2.91630358 
2.95115522 3.00855263 3.0719036933 3.1415926536 3.0653475414 2.9825888767 2.8307207459 2.8800620952 2.9351694502 
2.9967168029 3.0653475414 3.1415926536 3.0574329311 2.718901062 2.7598010554 2.8058000847 2.8576792927 2.91630358 
2.9825888767 3.0574329311 3.1415926536 2.718901062 2.7598010554 2.8307207459 2.8058000847 2.8800620952 2.95115522 
2.8576792927 2.9351694502 3.00855263 3.0774230472 2.91630358 2.9967168029 3.0719036933 3.1415926536 3.0774230472 
2.9825888767 3.0653475414 3.1415926536 3.0719036933 3.00855263 2.95115522 3.0574329311 3.1415926536 3.0653475414 