# vtk DataFile Version 5.1
vtk output
ASCII
DATASET POLYDATA
POINTS 1002 float
11.7762 39.8037 16.9046 21.785 44.5613 15.1193 15.0139 34.8355 8.24281 
23.2696 41.0452 8.88573 20.794 36.7465 18.9165 23.1886 33.1316 13.5002 
14.1437 46.0964 11.381 15.8741 43.7595 5.87317 28.0151 41.4078 16.0745 
12.0452 33.1223 15.9798 23.5007 49.682 9.88618 8.19142 38.4342 10.5591 
12.4257 40.1935 16.7419 13.3109 40.4304 16.3739 14.4179 40.7714 16.0887 
15.6229 41.3817 16.0536 16.8161 42.0403 15.9799 17.9403 42.4973 15.5964 
18.9575 42.8867 15.1611 19.9015 43.4147 15.0068 20.8481 44.0234 15.0663 
12.3371 39.2481 17.0199 13.1561 38.7046 17.1511 14.1961 38.3544 17.4187 
15.313 38.1856 17.7186 16.422 37.8944 17.7091 17.5348 37.2995 17.3239 
18.5965 36.6879 17.0435 19.4875 36.4358 17.3256 20.1907 36.5422 18.0866 
11.7034 40.5984 16.6875 11.7251 41.2796 16.3073 11.8482 41.8542 15.733 
12.0708 42.4234 15.0091 12.4335 42.9827 14.1784 12.9386 43.452 13.2858 
13.4329 43.9293 12.4894 13.7537 44.5887 11.96 13.9383 45.3813 11.6576 
11.4928 38.8599 16.9634 11.159 37.7801 16.9884 10.7901 36.7954 17.1387 
10.489 35.9513 17.4908 10.3002 35.05 17.9389 10.1788 34.0561 18.2493 
10.1941 33.2863 18.1862 10.5289 32.9821 17.665 11.2097 33.0173 16.8393 
11.1686 39.7121 16.6921 10.5165 39.44 16.2391 9.7301 39.1624 15.7604 
8.91487 39.067 15.4163 8.30575 39.0956 14.985 7.9768 39.0709 14.1768 
7.83808 38.9675 13.1194 7.84476 38.8323 12.1237 7.98387 38.6533 11.2851 
21.841 43.885 15.4478 21.8786 43.1541 15.7726 21.9946 42.4055 16.0772 
22.1578 41.6249 16.3874 22.1584 40.776 16.7578 21.8782 39.8782 17.2167 
21.4802 39.0017 17.7366 21.1703 38.1901 18.2448 20.9673 37.441 18.6552 
21.0556 44.8778 14.786 20.2141 45.1638 14.4661 19.3814 45.4829 14.1731 
18.623 45.872 13.8737 17.8445 46.2315 13.5479 16.9502 46.4096 13.2034 
16.0378 46.3901 12.7971 15.2696 46.2862 12.2983 14.6662 46.1854 11.7911 
22.7534 44.6018 15.3239 23.6428 44.5538 15.5333 24.3493 44.4626 15.8265 
24.9679 44.3459 16.2412 25.7402 44.1554 16.6665 26.6932 43.8694 16.9658 
27.5111 43.4924 17.096 27.9281 42.9638 17.013 28.0195 42.2379 16.6579 
22.2686 45.2656 14.8862 22.6396 46.0075 14.6063 22.8453 46.7911 14.3269 
22.985 47.5761 13.999 23.2083 48.28 13.5217 23.507 48.8692 12.9026 
23.7171 49.3462 12.2227 23.7367 49.6624 11.4921 23.6269 49.7651 10.6945 
15.973 35.16 8.21128 16.8242 35.4386 8.1036 17.4617 35.9101 8.12178 
18.0539 36.7712 8.43646 18.9349 37.7641 8.79801 20.1079 38.482 8.83194 
21.198 39.0073 8.64289 21.9985 39.6588 8.58287 22.6407 40.4174 8.71511 
15.7611 34.368 8.53296 16.4094 33.9487 8.94072 17.0964 33.5828 9.44555 
18.0758 33.1853 9.87155 19.3466 32.7677 10.1461 20.552 32.5132 10.4892 
21.4174 32.5366 11.1038 22.0323 32.7354 11.9111 22.6037 32.9524 12.7364 
14.8015 35.5215 7.97206 14.5948 36.1536 7.65872 14.4859 36.7928 7.35917 
14.5348 37.6583 7.16505 14.698 38.8387 7.06946 14.8876 40.0766 6.92525 
15.0768 41.0939 6.63855 15.2947 41.944 6.29633 15.5631 42.8209 6.02922 
14.539 34.1035 8.37548 14.1039 33.3687 8.57466 13.7437 32.9364 9.03774 
13.4023 32.9156 9.90344 13.0226 33.0565 11.0806 12.6756 33.1172 12.3042 
12.4553 33.1396 13.3719 12.3195 33.1915 14.2773 12.181 33.2009 15.1259 
13.8348 34.8773 8.0471 12.6061 34.8675 7.83498 11.5948 34.8369 7.74884 
10.8255 34.9023 7.92996 10.0346 35.1884 8.33023 9.15563 35.7033 8.78062 
8.50162 36.3362 9.21737 8.25887 36.999 9.67011 8.23699 37.694 10.1305 
23.2946 40.4363 9.33731 23.3549 39.6826 9.74903 23.4634 38.7481 10.0994 
23.5696 37.7166 10.4825 23.6111 36.695 10.9905 23.6017 35.6967 11.5367 
23.5882 34.7503 11.9842 23.5487 33.9788 12.384 23.4212 33.4576 12.8808 
22.8018 41.3128 8.34443 22.2188 41.6328 7.8671 21.5284 42.0362 7.54438 
20.7587 42.5047 7.31137 19.988 42.9164 6.95284 19.2904 43.1552 6.43154 
18.6133 43.267 5.99809 17.8181 43.3875 5.82711 16.8675 43.5671 5.83167 
23.929 41.1538 9.3359 24.618 41.1766 9.81304 25.3512 41.2363 10.3354 
26.1677 41.4091 10.901 27.0059 41.536 11.4326 27.6405 41.4343 11.9756 
27.9293 41.2102 12.7556 27.9931 41.1022 13.8404 28.0098 41.1899 15.0199 
23.6806 41.7008 8.67684 24.0385 42.4162 8.50456 24.1698 43.3527 8.49023 
24.1111 44.566 8.59892 24.1037 45.8802 8.65442 24.2352 47.0453 8.61527 
24.3121 47.967 8.66104 24.1734 48.689 8.93363 23.8655 49.2578 9.38525 
21.0952 36.358 19.4126 21.5134 35.7493 19.5925 21.9733 34.9871 19.3017 
22.3112 34.303 18.6505 22.5066 33.8376 17.9183 22.7344 33.5149 17.2208 
23.0532 33.2628 16.4325 23.2943 33.1181 15.4689 23.3253 33.0907 14.4368 
21.4992 37.3315 19.4249 22.2237 37.8159 19.538 23.0201 38.1486 19.1664 
24.0177 38.5203 18.5467 25.2143 39.1736 18.1091 26.3507 39.9931 18.0183 
27.1757 40.6001 17.9765 27.6707 40.8831 17.6299 27.9268 41.0796 16.9405 
20.1919 35.9701 18.555 19.4668 35.2665 18.0979 18.6369 34.6622 17.7221 
17.6724 34.0491 17.6462 16.5452 33.3922 17.9387 15.36 32.8785 18.2587 
14.3014 32.6932 18.1114 13.4418 32.7889 17.4485 12.715 32.9794 16.6438 
23.9623 33.4937 13.8162 24.6367 34.0095 14.1114 24.9966 34.8723 14.3923 
25.1741 36.146 14.6631 25.6339 37.4915 14.8885 26.5329 38.419 15.0512 
27.4363 38.9226 15.2371 27.9169 39.465 15.5337 28.0183 40.3363 15.8699 
22.5287 32.7606 13.7227 21.8373 32.3884 13.9581 20.9887 32.0912 14.1931 
19.7146 31.9525 14.4666 18.0472 31.9578 14.7945 16.468 32.077 15.0783 
15.302 32.3499 15.232 14.3405 32.7315 15.3472 13.2641 33.0333 15.5851 
14.0338 46.3557 10.8734 14.0033 46.4751 10.1183 14.0147 46.5204 9.1335 
14.086 46.5247 8.11582 14.2797 46.4003 7.27935 14.5642 46.0935 6.67262 
14.8466 45.6597 6.24382 15.1325 45.1206 5.97633 15.4798 44.4647 5.86712 
14.7758 46.7781 11.2315 15.6045 47.3794 10.9495 16.641 47.8246 10.5498 
17.7431 48.2211 10.1664 18.7831 48.7521 9.92609 19.7917 49.4008 9.83713 
20.8211 49.9305 9.83878 21.8223 50.1433 9.87165 22.7252 50.0261 9.89131 
13.3804 45.6392 11.2825 12.4132 45.2148 11.2696 11.3591 44.772 11.1983 
10.3866 44.2706 10.9328 9.52262 43.7203 10.5944 8.76624 43.0436 10.4335 
8.27478 42.0784 10.4705 8.1425 40.8358 10.5361 8.19413 39.5487 10.5514 
16.8495 44.6665 5.72425 17.8307 45.6863 5.4991 18.652 46.6802 5.21558 
19.2926 47.5037 5.12516 19.9376 48.134 5.53604 20.7355 48.6595 6.39735 
21.5899 49.1331 7.35993 22.3327 49.5057 8.23986 22.9443 49.6972 9.07749 
14.6825 43.3481 5.98667 13.5436 42.9002 6.17782 12.5782 42.4142 6.56261 
11.7883 41.9271 7.14841 11.0618 41.432 7.79324 10.2988 40.8324 8.3581 
9.54514 40.1083 8.83523 8.92875 39.408 9.31802 8.49468 38.8591 9.89286 
28.0424 42.4533 15.4457 28.0727 43.6478 14.6115 28.0087 44.8065 13.7317 
27.7412 45.8141 12.9599 27.2965 46.659 12.3431 26.7396 47.37 11.8358 
26.042 48.0134 11.3638 25.2007 48.6538 10.8764 24.3203 49.2486 10.3741 
10.769 33.0878 15.926 9.41572 32.9491 15.773 8.26353 32.8942 15.2553 
7.48167 33.1165 14.3686 7.0593 33.6847 13.4779 6.96996 34.5459 12.8426 
7.19064 35.5697 12.313 7.57738 36.6001 11.7027 7.93866 37.5516 11.0739 
13.1707 39.6214 16.7828 14.1908 39.144 16.9347 14.2058 40.0024 16.5001 
15.3314 38.9073 17.2584 15.3095 39.7358 16.8048 15.3623 40.6157 16.4244 
16.413 38.7491 17.4931 16.4346 39.5916 17.1495 16.4607 40.511 16.7915 
16.5759 41.3703 16.4167 17.456 38.3343 17.3548 17.4993 39.3038 17.2239 
17.6215 40.2531 16.9381 17.7181 41.1766 16.551 17.8181 41.9197 16.0861 
18.538 37.7057 17.0845 18.5869 38.7638 17.0531 18.8076 39.7586 16.8349 
18.9945 40.7104 16.4462 19.016 41.5662 15.9916 18.9777 42.2603 15.5477 
19.5521 37.2834 17.2082 19.664 38.2694 17.0767 19.9441 39.2581 16.8222 
20.2345 40.2026 16.4119 20.2768 41.1112 15.9625 20.1193 41.946 15.5845 
19.9758 42.6979 15.2762 20.3546 37.2625 17.8431 20.5451 38.1072 17.542 
20.861 39.0161 17.1624 21.2236 39.9298 16.6998 21.3682 40.8275 16.2359 
21.224 41.6957 15.8711 21.0152 42.5191 15.5965 20.9044 43.298 15.3377 
12.07 38.3253 17.1904 11.7713 37.3619 17.3542 12.9088 37.8939 17.4791 
11.5214 36.5079 17.6167 12.658 37.1025 17.8108 13.984 37.6577 17.8581 
11.4098 35.693 18.0157 12.5271 36.3376 18.1627 13.8009 36.9106 18.2288 
15.1992 37.4235 18.0497 11.3762 34.7605 18.4284 12.5321 35.4887 18.5388 
13.7312 36.0659 18.5005 15.1178 36.5047 18.2023 16.4724 36.9007 17.7334 
11.3667 33.835 18.5885 12.5577 34.526 18.8208 13.7254 35.1197 18.7162 
15.0455 35.5258 18.2409 16.4715 35.8475 17.6298 17.6891 36.2123 17.1847 
11.5347 33.2243 18.2756 12.6347 33.6457 18.7665 13.7556 34.1376 18.8173 
14.9865 34.5795 18.3065 16.3656 34.9486 17.5938 17.6741 35.3155 17.1374 
18.7046 35.793 17.0873 12.0194 33.0028 17.5363 12.928 33.065 18.2561 
13.9325 33.2775 18.6323 15.0701 33.6692 18.3695 16.3306 34.171 17.7391 
17.5733 34.6692 17.3136 18.6423 35.1711 17.3359 19.5011 35.7886 17.6714 
13.8956 32.7462 16.3492 15.0065 32.3678 16.1767 14.6456 32.4188 17.2198 
16.2209 32.0467 16.0368 15.9861 32.0591 17.0153 15.68 32.3038 17.825 
17.7809 31.8931 15.797 17.5962 31.8819 16.7887 17.3538 32.0934 17.5825 
16.9538 32.6398 17.9593 19.5057 31.8616 15.4815 19.3434 31.8553 16.5192 
19.1512 32.0756 17.4297 18.7413 32.606 17.9327 18.1472 33.348 17.935 
20.8907 31.9729 15.2167 20.7717 31.9427 16.2715 20.6283 32.1467 17.2967 
20.3136 32.6399 18.0601 19.7139 33.3665 18.3332 19.0499 34.1092 18.1402 
21.8113 32.2836 15.0048 21.7048 32.2344 16.0703 21.5554 32.3714 17.1049 
21.3534 32.7421 18.012 20.9511 33.351 18.627 20.3369 34.1138 18.8119 
19.7772 34.7995 18.5757 22.5665 32.6998 14.7513 22.4651 32.6855 15.8234 
22.2466 32.7985 16.8197 22.0298 33.056 17.6868 21.8104 33.4729 18.4391 
21.435 34.1111 19.0182 20.9188 34.8806 19.2507 20.4703 35.5367 19.0501 
21.9224 36.837 19.76 22.4212 36.1266 19.6098 22.7381 37.2478 19.6338 
22.8266 35.3701 18.942 23.2314 36.5714 19.1994 23.5533 37.623 19.051 
23.0503 34.774 18.0698 23.5368 35.9417 18.3446 23.9447 37.1319 18.5016 
24.4892 38.152 18.2918 23.2721 34.3325 17.3226 23.7485 35.3986 17.4628 
24.1518 36.6689 17.6947 24.7327 37.8655 17.7571 25.5703 38.901 17.7231 
23.6518 33.9415 16.6456 24.1079 34.867 16.7546 24.3987 36.1325 16.9247 
24.8556 37.5056 17.0889 25.6956 38.6377 17.1728 26.604 39.5875 17.4276 
[...]
POINT_DATA 1002
FIELD FieldData 4
_paraPhi 1 1002 double
6.2831853072 3.1415926536 6.2831853072 3.1415926536 4.7123889804 4.7123889804 1.5707963268 1.5707963268 3.6951670125 
5.7296109483 2.5880182947 0.5535743589 6.2831853072 6.2831853072 6.2831853072 6.2831853072 3.1415926536 3.1415926536 
3.1415926536 3.1415926536 3.1415926536 6.1053039672 5.898798347 5.6768734901 5.4599499503 5.2659633393 5.1032165617 
4.9713148346 4.8656852733 4.7809517865 0.17788134 0.38438696014 0.60631181711 0.82323535693 1.0172219679 1.1799687454 
1.3118704726 1.4175000338 1.5022335207 6.1892828907 6.1070320098 6.035312792 5.9728339911 5.9183214791 5.8706119594 
5.8286879411 5.7916808611 5.7588591896 0.093902416448 0.17615329733 0.2478725152 0.31035131605 0.36486382811 0.41257334776 
0.45449736604 0.4915044461 0.52432611754 3.3194739936 3.5259796137 3.7479044707 3.9648280105 4.1588146215 4.321561399 
4.4534631262 4.5590926874 4.6438261743 2.9637113136 2.7572056934 2.5352808365 2.3183572967 2.1243706857 1.9616239082 
1.829722181 1.7240926197 1.6393591329 3.23549507 3.3177459509 3.3894651688 3.4519439696 3.5064564817 3.5541660013 
3.5960900196 3.6330970997 3.6659187711 3.0476902371 2.9654393563 2.8937201384 2.8312413375 2.7767288255 2.7290193058 
2.6870952876 2.6500882075 2.617266536 6.2831853072 6.2831853072 6.2831853072 6.2831853072 3.1415926536 3.1415926536 
3.1415926536 3.1415926536 3.1415926536 6.1053039672 5.898798347 5.6768734901 5.4599499503 5.2659633393 5.1032165617 
4.9713148346 4.8656852733 4.7809517865 0.17788134 0.38438696014 0.60631181711 0.82323535693 1.0172219679 1.1799687454 
1.3118704726 1.4175000338 1.5022335207 6.1892828907 6.1070320098 6.035312792 5.9728339911 5.9183214791 5.8706119594 
5.8286879411 5.7916808611 5.7588591896 0.093902416448 0.17615329733 0.2478725152 0.31035131605 0.36486382811 0.41257334776 
0.45449736604 0.4915044461 0.52432611754 3.3194739936 3.5259796137 3.7479044707 3.9648280105 4.1588146215 4.321561399 
4.4534631262 4.5590926874 4.6438261743 2.9637113136 2.7572056934 2.5352808365 2.3183572967 2.1243706857 1.9616239082 
1.829722181 1.7240926197 1.6393591329 3.23549507 3.3177459509 3.3894651688 3.4519439696 3.5064564817 3.5541660013 
3.5960900196 3.6330970997 3.6659187711 3.0476902371 2.9654393563 2.8937201384 2.8312413375 2.7767288255 2.7290193058 
2.6870952876 2.6500882075 2.617266536 4.7123889804 4.7123889804 4.7123889804 4.7123889804 4.7123889804 4.7123889804 
4.7123889804 4.7123889804 4.7123889804 4.6087898617 4.4991390697 4.3857031936 4.2712800401 4.1588146215 4.0509635631 
3.94975894 3.8564636551 3.7716124825 4.8159880991 4.9256388911 5.0390747672 5.1534979207 5.2659633393 5.3738143976 
5.4750190208 5.5683143056 5.6531654782 4.6087898617 4.4991390697 4.3857031936 4.2712800401 4.1588146215 4.0509635631 
3.94975894 3.8564636551 3.7716124825 4.8159880991 4.9256388911 5.0390747672 5.1534979207 5.2659633393 5.3738143976 
5.4750190208 5.5683143056 5.6531654782 1.5707963268 1.5707963268 1.5707963268 1.5707963268 1.5707963268 1.5707963268 
1.5707963268 1.5707963268 1.5707963268 1.6743954455 1.7840462375 1.8974821136 2.0119052671 2.1243706857 2.232221744 
2.3334263672 2.426721652 2.5115728246 1.4671972081 1.3575464161 1.24411054 1.1296873865 1.0172219679 0.90937090954 
0.80816628637 0.71487100155 0.63001982895 1.6743954455 1.7840462375 1.8974821136 2.0119052671 2.1243706857 2.232221744 
2.3334263672 2.426721652 2.5115728246 1.4671972081 1.3575464161 1.24411054 1.1296873865 1.0172219679 0.90937090954 
0.80816628637 0.71487100155 0.63001982895 3.6007720849 3.4966939854 3.3839471039 3.2645756454 3.1415926536 3.0186096618 
2.8992382033 2.7864913217 2.6824132222 5.8240058758 5.9280839753 6.0408308569 6.1602023154 6.2831853072 0.12298299178 
0.2423544503 0.35510133185 0.45917943135 6.0560271438 5.7885595667 5.9702140275 5.5125918794 5.6029703303 5.7885595667 
5.2659633393 5.2659633393 5.2659633393 5.2659633393 5.0674903122 5.0120975802 4.9155579264 4.7123889804 4.1588146215 
4.9155579264 4.8353719722 4.7123889804 4.5092200343 4.1588146215 3.6362183941 4.8004512023 4.7123889804 4.5894059886 
4.4126803806 4.1588146215 3.8218076305 3.4545639333 4.7123889804 4.6243267584 4.5092200343 4.3572876485 4.1588146215 
3.9121860814 3.6362183941 3.368750817 6.0174235957 5.9434319871 5.8263323547 5.8809213739 5.7674481418 5.6279784266 
5.8278025282 5.718968232 5.5891129425 5.4372443565 5.7823484065 5.678536687 5.5575666702 5.4192596322 5.2659633393 
5.743164462 5.6444075337 5.5314983644 5.4046708639 5.2659633393 5.1195510325 5.7091357773 5.6152775188 5.5096229709 
5.3926039573 5.2659633393 5.1329233157 4.9978930058 5.6793730533 5.5901633916 5.4910209005 5.3824597928 5.2659633393 
5.1440684722 5.0201624502 4.8979782167 5.5683143056 5.4750190208 5.4750190208 5.3738143976 5.3738143976 5.3738143976 
5.2659633393 5.2659633393 5.2659633393 5.2659633393 5.1534979207 5.1534979207 5.1534979207 5.1534979207 5.1534979207 
5.0390747672 5.0390747672 5.0390747672 5.0390747672 5.0390747672 5.0390747672 4.9256388911 4.9256388911 4.9256388911 
4.9256388911 4.9256388911 4.9256388911 4.9256388911 4.8159880991 4.8159880991 4.8159880991 4.8159880991 4.8159880991 
4.8159880991 4.8159880991 4.8159880991 4.6087898617 4.6087898617 4.4991390697 4.6087898617 4.4991390697 4.3857031936 
4.6087898617 4.4991390697 4.3857031936 4.2712800401 4.6087898617 4.4991390697 4.3857031936 4.2712800401 4.1588146215 
4.6087898617 4.4991390697 4.3857031936 4.2712800401 4.1588146215 4.0509635631 4.6087898617 4.4991390697 4.3857031936 
4.2712800401 4.1588146215 4.0509635631 3.94975894 4.6087898617 4.4991390697 4.3857031936 4.2712800401 4.1588146215 
4.0509635631 3.94975894 3.8564636551 4.526799744 4.4046155105 4.426884955 4.2807094886 4.2918546451 4.3052269283 
4.1588146215 4.1588146215 4.1588146215 4.1588146215 4.042318168 4.0321740035 4.0201070968 4.0055183285 3.9875336042 
3.9337570603 3.9151549899 3.8932795963 3.8672112905 3.8356650183 3.7967995342 3.8346145692 3.809500442 3.7803704271 
3.7462412737 3.7058097288 3.657329819 3.5984456061 3.7454049075 3.7156421835 3.6816134988 3.6424295543 3.5969754326 
3.5438565869 3.4813459737 3.4073543651 3.5642842451 3.4524645613 3.5233842518 3.3320300872 3.403123212 3.4773852225 
3.20576226 3.2746326772 3.348015857 3.4255060145 3.0774230472 3.1415926536 3.2112816139 3.2864685043 3.3668817272 
2.95115522 3.00855263 3.0719036933 3.1415926536 3.2178377658 3.3005964304 2.8307207459 2.8800620952 2.9351694502 
2.9967168029 3.0653475414 3.1415926536 3.225752376 2.718901062 2.7598010554 2.8058000847 2.8576792927 2.91630358 
2.9825888767 3.0574329311 3.1415926536 3.5642842451 3.5233842518 3.4524645613 3.4773852225 3.403123212 3.3320300872 
3.4255060145 3.348015857 3.2746326772 3.20576226 3.3668817272 3.2864685043 3.2112816139 3.1415926536 3.0774230472 
3.3005964304 3.2178377658 3.1415926536 3.0719036933 3.00855263 2.95115522 3.225752376 3.1415926536 3.0653475414 
2.9967168029 2.9351694502 2.8800620952 2.8307207459 3.1415926536 3.0574329311 2.9825888767 2.91630358 2.8576792927 
2.8058000847 2.7598010554 2.718901062 4.526799744 4.426884955 4.4046155105 4.3052269283 4.2918546451 4.2807094886 
4.1588146215 4.1588146215 4.1588146215 4.1588146215 3.9875336042 4.0055183285 4.0201070968 4.0321740035 4.042318168 
3.7967995342 3.8356650183 3.8672112905 3.8932795963 3.9151549899 3.9337570603 3.5984456061 3.657329819 3.7058097288 
3.7462412737 3.7803704271 3.809500442 3.8346145692 3.4073543651 3.4813459737 3.5438565869 3.5969754326 3.6424295543 
3.6816134988 3.7156421835 3.7454049075 4.7123889804 4.8004512023 4.6243267584 4.9155579264 4.7123889804 4.5092200343 
5.0674903122 4.8353719722 4.5894059886 4.3572876485 5.2659633393 5.0120975802 4.7123889804 4.4126803806 4.1588146215 
5.5125918794 5.2659633393 4.9155579264 4.5092200343 4.1588146215 3.9121860814 5.7885595667 5.6029703303 5.2659633393 
4.7123889804 4.1588146215 3.8218076305 3.6362183941 6.0560271438 5.9702140275 5.7885595667 5.2659633393 4.1588146215 
3.6362183941 3.4545639333 3.368750817 0.22715816343 0.49462574053 0.3129712797 0.77059342779 0.68021497688 0.49462574053 
1.0172219679 1.0172219679 1.0172219679 1.0172219679 1.2156949949 1.271087727 1.3676273807 1.5707963268 2.1243706857 
1.3676273807 1.447813335 1.5707963268 1.7739652728 2.1243706857 2.6469669131 1.4827341049 1.5707963268 1.6937793186 
1.8705049266 2.1243706857 2.4613776767 2.8286213739 1.5707963268 1.6588585487 1.7739652728 1.9258976586 2.1243706857 
2.3709992258 2.6469669131 2.9144344902 1.7563855631 1.8785697967 1.8563003522 2.0024758186 1.9913306621 1.9779583789 
2.1243706857 2.1243706857 2.1243706857 2.1243706857 2.2408671392 2.2510113037 2.2630782103 2.2776669786 2.295651703 
2.3494282469 2.3680303173 2.3899057108 2.4159740166 2.4475202889 2.486385773 2.448570738 2.4736848652 2.5028148801 
2.5369440334 2.5773755784 2.6258554882 2.6847397011 2.5377803997 2.5675431237 2.6015718084 2.6407557529 2.6862098746 
2.7393287203 2.8018393335 2.8758309421 1.6743954455 1.6743954455 1.7840462375 1.6743954455 1.7840462375 1.8974821136 
1.6743954455 1.7840462375 1.8974821136 2.0119052671 1.6743954455 1.7840462375 1.8974821136 2.0119052671 2.1243706857 
1.6743954455 1.7840462375 1.8974821136 2.0119052671 2.1243706857 2.232221744 1.6743954455 1.7840462375 1.8974821136 
2.0119052671 2.1243706857 2.232221744 2.3334263672 1.6743954455 1.7840462375 1.8974821136 2.0119052671 2.1243706857 
2.232221744 2.3334263672 2.426721652 1.4671972081 1.3575464161 1.4671972081 1.24411054 1.3575464161 1.4671972081 
1.1296873865 1.24411054 1.3575464161 1.4671972081 1.0172219679 1.1296873865 1.24411054 1.3575464161 1.4671972081 
0.90937090954 1.0172219679 1.1296873865 1.24411054 1.3575464161 1.4671972081 0.80816628637 0.90937090954 1.0172219679 
1.1296873865 1.24411054 1.3575464161 1.4671972081 0.71487100155 0.80816628637 0.90937090954 1.0172219679 1.1296873865 
1.24411054 1.3575464161 1.4671972081 0.60381225391 0.57404952988 0.69302191562 0.54002084522 0.66790778838 0.79216440667 
0.50083690068 0.63877777351 0.77356233629 0.90072551443 0.45538277901 0.60464862014 0.75168694275 0.89058134991 1.0172219679 
0.40226393329 0.56421707518 0.72561863695 0.87851444325 1.0172219679 1.139116835 0.33975332011 0.51573716537 0.69407236469 
0.86392567495 1.0172219679 1.1502619915 1.2630228569 0.26576171152 0.45685295248 0.6552068806 0.84594095064 1.0172219679 
1.1636342747 1.2852923014 1.3852070904 0.22715816343 0.3129712797 0.49462574053 0.49462574053 0.68021497688 0.77059342779 
1.0172219679 1.0172219679 1.0172219679 1.0172219679 2.1243706857 1.5707963268 1.3676273807 1.271087727 1.2156949949 
2.6469669131 2.1243706857 1.7739652728 1.5707963268 1.447813335 1.3676273807 2.8286213739 2.4613776767 2.1243706857 
1.8705049266 1.6937793186 1.5707963268 1.4827341049 2.9144344902 2.6469669131 2.3709992258 2.1243706857 1.9258976586 
1.7739652728 1.6588585487 1.5707963268 1.7563855631 1.8563003522 1.8785697967 1.9779583789 1.9913306621 2.0024758186 
2.1243706857 2.1243706857 2.1243706857 2.1243706857 2.295651703 2.2776669786 2.2630782103 2.2510113037 2.2408671392 
2.486385773 2.4475202889 2.4159740166 2.3899057108 2.3680303173 2.3494282469 2.6847397011 2.6258554882 2.5773755784 
2.5369440334 2.5028148801 2.4736848652 2.448570738 2.8758309421 2.8018393335 2.7393287203 2.6862098746 2.6407557529 
2.6015718084 2.5675431237 2.5377803997 5.8604937156 5.901393709 5.9723133995 5.9473927383 6.0216547488 6.0927478736 
5.9992719463 6.0767621038 6.1501452836 6.2190157008 6.0578962336 6.1383094565 6.2134963469 0 0.064169606361 
6.1241815303 6.206940195 6.2831853072 0.069688960264 0.13304002361 0.19043743361 6.1990255847 0 0.07624511221 
0.14487585072 0.20642320337 0.26153055843 0.3108719077 0 0.084159722458 0.15900377685 0.22528907359 0.28391336087 
0.3357925689 0.38179159818 0.42269159155 5.8604937156 5.9723133995 5.901393709 6.0927478736 6.0216547488 5.9473927383 
6.2190157008 6.1501452836 6.0767621038 5.9992719463 0.064169606361 0 6.2134963469 6.1383094565 6.0578962336 
0.19043743361 0.13304002361 0.069688960264 6.2831853072 6.206940195 6.1241815303 0.3108719077 0.26153055843 0.20642320337 
0.14487585072 0.07624511221 6.2831853072 6.1990255847 0.42269159155 0.38179159818 0.3357925689 0.28391336087 0.22528907359 
0.15900377685 0.084159722458 0 5.6793730533 5.7091357773 5.5901633916 5.743164462 5.6152775188 5.4910209005 
5.7823484065 5.6444075337 5.5096229709 5.3824597928 5.8278025282 5.678536687 5.5314983644 5.3926039573 5.2659633393 
5.8809213739 5.718968232 5.5575666702 5.4046708639 5.2659633393 5.1440684722 5.9434319871 5.7674481418 5.5891129425 
5.4192596322 5.2659633393 5.1329233157 5.0201624502 6.0174235957 5.8263323547 5.6279784266 5.4372443565 5.2659633393 
5.1195510325 4.9978930058 4.8979782167 1.3852070904 1.2852923014 1.2630228569 1.1636342747 1.1502619915 1.139116835 
1.0172219679 1.0172219679 1.0172219679 1.0172219679 0.84594095064 0.86392567495 0.87851444325 0.89058134991 0.90072551443 
0.6552068806 0.69407236469 0.72561863695 0.75168694275 0.77356233629 0.79216440667 0.45685295248 0.51573716537 0.56421707518 
0.60464862014 0.63877777351 0.66790778838 0.69302191562 0.26576171152 0.33975332011 0.40226393329 0.45538277901 0.50083690068 
0.54002084522 0.57404952988 0.60381225391 
_paraPhiHalf 1 1002 double
0 3.1415926536 0 3.1415926536 1.5707963268 1.5707963268 1.5707963268 1.5707963268 2.5880182947 
0.5535743589 2.5880182947 0.5535743589 0 0 0 0 3.1415926536 3.1415926536 
3.1415926536 3.1415926536 3.1415926536 0.17788134 0.38438696014 0.60631181711 0.82323535693 1.0172219679 1.1799687454 
1.3118704726 1.4175000338 1.5022335207 0.17788134 0.38438696014 0.60631181711 0.82323535693 1.0172219679 1.1799687454 
1.3118704726 1.4175000338 1.5022335207 0.093902416448 0.17615329733 0.2478725152 0.31035131605 0.36486382811 0.41257334776 
0.45449736604 0.4915044461 0.52432611754 0.093902416448 0.17615329733 0.2478725152 0.31035131605 0.36486382811 0.41257334776 
0.45449736604 0.4915044461 0.52432611754 2.9637113136 2.7572056934 2.5352808365 2.3183572967 2.1243706857 1.9616239082 
1.829722181 1.7240926197 1.6393591329 2.9637113136 2.7572056934 2.5352808365 2.3183572967 2.1243706857 1.9616239082 
1.829722181 1.7240926197 1.6393591329 3.0476902371 2.9654393563 2.8937201384 2.8312413375 2.7767288255 2.7290193058 
2.6870952876 2.6500882075 2.617266536 3.0476902371 2.9654393563 2.8937201384 2.8312413375 2.7767288255 2.7290193058 
2.6870952876 2.6500882075 2.617266536 0 0 0 0 3.1415926536 3.1415926536 
3.1415926536 3.1415926536 3.1415926536 0.17788134 0.38438696014 0.60631181711 0.82323535693 1.0172219679 1.1799687454 
1.3118704726 1.4175000338 1.5022335207 0.17788134 0.38438696014 0.60631181711 0.82323535693 1.0172219679 1.1799687454 
1.3118704726 1.4175000338 1.5022335207 0.093902416448 0.17615329733 0.2478725152 0.31035131605 0.36486382811 0.41257334776 
0.45449736604 0.4915044461 0.52432611754 0.093902416448 0.17615329733 0.2478725152 0.31035131605 0.36486382811 0.41257334776 
0.45449736604 0.4915044461 0.52432611754 2.9637113136 2.7572056934 2.5352808365 2.3183572967 2.1243706857 1.9616239082 
1.829722181 1.7240926197 1.6393591329 2.9637113136 2.7572056934 2.5352808365 2.3183572967 2.1243706857 1.9616239082 
1.829722181 1.7240926197 1.6393591329 3.0476902371 2.9654393563 2.8937201384 2.8312413375 2.7767288255 2.7290193058 
2.6870952876 2.6500882075 2.617266536 3.0476902371 2.9654393563 2.8937201384 2.8312413375 2.7767288255 2.7290193058 
2.6870952876 2.6500882075 2.617266536 1.5707963268 1.5707963268 1.5707963268 1.5707963268 1.5707963268 1.5707963268 
1.5707963268 1.5707963268 1.5707963268 1.6743954455 1.7840462375 1.8974821136 2.0119052671 2.1243706857 2.232221744 
2.3334263672 2.426721652 2.5115728246 1.4671972081 1.3575464161 1.24411054 1.1296873865 1.0172219679 0.90937090954 
0.80816628637 0.71487100155 0.63001982895 1.6743954455 1.7840462375 1.8974821136 2.0119052671 2.1243706857 2.232221744 
2.3334263672 2.426721652 2.5115728246 1.4671972081 1.3575464161 1.24411054 1.1296873865 1.0172219679 0.90937090954 
0.80816628637 0.71487100155 0.63001982895 1.5707963268 1.5707963268 1.5707963268 1.5707963268 1.5707963268 1.5707963268 
1.5707963268 1.5707963268 1.5707963268 1.6743954455 1.7840462375 1.8974821136 2.0119052671 2.1243706857 2.232221744 
2.3334263672 2.426721652 2.5115728246 1.4671972081 1.3575464161 1.24411054 1.1296873865 1.0172219679 0.90937090954 
0.80816628637 0.71487100155 0.63001982895 1.6743954455 1.7840462375 1.8974821136 2.0119052671 2.1243706857 2.232221744 
2.3334263672 2.426721652 2.5115728246 1.4671972081 1.3575464161 1.24411054 1.1296873865 1.0172219679 0.90937090954 
0.80816628637 0.71487100155 0.63001982895 2.6824132222 2.7864913217 2.8992382033 3.0186096618 3.1415926536 3.0186096618 
2.8992382033 2.7864913217 2.6824132222 0.45917943135 0.35510133185 0.2423544503 0.12298299178 0 0.12298299178 
0.2423544503 0.35510133185 0.45917943135 0.22715816343 0.49462574053 0.3129712797 0.77059342779 0.68021497688 0.49462574053 
1.0172219679 1.0172219679 1.0172219679 1.0172219679 1.2156949949 1.271087727 1.3676273807 1.5707963268 2.1243706857 
1.3676273807 1.447813335 1.5707963268 1.7739652728 2.1243706857 2.6469669131 1.4827341049 1.5707963268 1.6937793186 
1.8705049266 2.1243706857 2.4613776767 2.8286213739 1.5707963268 1.6588585487 1.7739652728 1.9258976586 2.1243706857 
2.3709992258 2.6469669131 2.9144344902 0.26576171152 0.33975332011 0.45685295248 0.40226393329 0.51573716537 0.6552068806 
0.45538277901 0.56421707518 0.69407236469 0.84594095064 0.50083690068 0.60464862014 0.72561863695 0.86392567495 1.0172219679 
0.54002084522 0.63877777351 0.75168694275 0.87851444325 1.0172219679 1.1636342747 0.57404952988 0.66790778838 0.77356233629 
0.89058134991 1.0172219679 1.1502619915 1.2852923014 0.60381225391 0.69302191562 0.79216440667 0.90072551443 1.0172219679 
1.139116835 1.2630228569 1.3852070904 0.71487100155 0.80816628637 0.80816628637 0.90937090954 0.90937090954 0.90937090954 
1.0172219679 1.0172219679 1.0172219679 1.0172219679 1.1296873865 1.1296873865 1.1296873865 1.1296873865 1.1296873865 
1.24411054 1.24411054 1.24411054 1.24411054 1.24411054 1.24411054 1.3575464161 1.3575464161 1.3575464161 
1.3575464161 1.3575464161 1.3575464161 1.3575464161 1.4671972081 1.4671972081 1.4671972081 1.4671972081 1.4671972081 
1.4671972081 1.4671972081 1.4671972081 1.6743954455 1.6743954455 1.7840462375 1.6743954455 1.7840462375 1.8974821136 
1.6743954455 1.7840462375 1.8974821136 2.0119052671 1.6743954455 1.7840462375 1.8974821136 2.0119052671 2.1243706857 
1.6743954455 1.7840462375 1.8974821136 2.0119052671 2.1243706857 2.232221744 1.6743954455 1.7840462375 1.8974821136 
2.0119052671 2.1243706857 2.232221744 2.3334263672 1.6743954455 1.7840462375 1.8974821136 2.0119052671 2.1243706857 
2.232221744 2.3334263672 2.426721652 1.7563855631 1.8785697967 1.8563003522 2.0024758186 1.9913306621 1.9779583789 
2.1243706857 2.1243706857 2.1243706857 2.1243706857 2.2408671392 2.2510113037 2.2630782103 2.2776669786 2.295651703 
2.3494282469 2.3680303173 2.3899057108 2.4159740166 2.4475202889 2.486385773 2.448570738 2.4736848652 2.5028148801 
2.5369440334 2.5773755784 2.6258554882 2.6847397011 2.5377803997 2.5675431237 2.6015718084 2.6407557529 2.6862098746 
2.7393287203 2.8018393335 2.8758309421 2.718901062 2.8307207459 2.7598010554 2.95115522 2.8800620952 2.8058000847 
3.0774230472 3.00855263 2.9351694502 2.8576792927 3.0774230472 3.1415926536 3.0719036933 2.9967168029 2.91630358 
2.95115522 3.00855263 3.0719036933 3.1415926536 3.0653475414 2.9825888767 2.8307207459 2.8800620952 2.9351694502 
2.9967168029 3.0653475414 3.1415926536 3.0574329311 2.718901062 2.7598010554 2.8058000847 2.8576792927 2.91630358 
2.9825888767 3.0574329311 3.1415926536 2.718901062 2.7598010554 2.8307207459 2.8058000847 2.8800620952 2.95115522 
2.8576792927 2.9351694502 3.00855263 3.0774230472 2.91630358 2.9967168029 3.0719036933 3.1415926536 3.0774230472 
2.9825888767 3.0653475414 3.1415926536 3.0719036933 3.00855263 2.95115522 3.0574329311 3.1415926536 3.0653475414 