# vtk DataFile Version 5.1
vtk output
ASCII
DATASET POLYDATA
POINTS 1002 float
10.5719 33.4138 16.7894 19.6145 38.8189 15.9518 13.8469 29.9103 9.04433 
20.6987 35.6202 9.46639 19.2506 30.3796 17.7246 21.4451 27.9617 12.9298 
12.1012 40.0058 12.3184 14.1711 38.406 6.30183 25.6774 36.4296 14.6695 
10.78 27.0434 14.8981 20.7276 43.0344 10.9801 7.05319 33.2808 10.7015 
11.1173 34.049 16.9878 11.8265 34.6771 17.0828 12.7735 35.2878 17.0269 
13.9235 35.8274 16.8303 15.0612 36.1908 16.4848 16.0254 36.4352 16.0332 
16.9201 36.8291 15.6971 17.8811 37.4953 15.6638 18.8308 38.2402 15.8297 
11.0877 32.8821 16.9417 11.7984 32.2609 16.9377 12.6176 31.7053 16.9325 
13.4856 31.3622 17.15 14.4898 31.188 17.4738 15.6714 30.9936 17.4809 
16.8347 30.7166 17.1423 17.7835 30.482 16.954 18.5487 30.3845 17.2181 
10.5062 34.207 16.6206 10.5581 34.8439 16.2682 10.706 35.455 15.7903 
10.8586 36.26 15.3374 10.9644 37.1712 14.9354 11.0943 37.8752 14.4334 
11.3242 38.3531 13.7828 11.6113 38.8527 13.1503 11.8738 39.4488 12.6738 
10.3394 32.4177 16.7202 10.0826 31.4193 16.7745 9.79809 30.6244 16.9904 
9.53074 29.9234 17.1886 9.3374 28.9992 17.2196 9.26499 27.9165 17.1326 
9.37632 27.15 16.9102 9.71238 26.9172 16.4089 10.2196 26.9785 15.6614 
10.0456 33.292 16.4399 9.56594 33.1451 15.9803 9.08329 33.0122 15.4816 
8.5708 32.9192 14.9737 8.08675 32.8633 14.414 7.69386 32.8741 13.7644 
7.37098 32.9921 13.0311 7.1077 33.163 12.2363 6.97939 33.2736 11.4306 
19.7869 38.1627 16.0688 19.9467 37.1819 15.9729 20.0492 36.0943 15.8588 
20.0106 35.2361 16.028 19.8005 34.6445 16.5125 19.5344 34.0107 17.0411 
19.3728 33.1418 17.4105 19.3366 32.1512 17.6147 19.3219 31.2088 17.702 
19.0162 38.8921 15.5626 18.3735 38.7393 14.9643 17.6256 38.6105 14.3995 
16.8001 38.7398 14.0485 16.0187 39.0126 13.7853 15.3045 39.1759 13.4239 
14.5323 39.2716 13.034 13.654 39.4863 12.7553 12.795 39.7909 12.5553 
20.4281 38.8499 16.0238 21.2751 38.7068 15.9187 22.1548 38.6494 15.8814 
23.1485 38.8723 16.175 24.2938 39.1334 16.6731 25.3767 38.9632 16.8952 
26.0365 38.292 16.5746 26.1504 37.493 15.9092 25.9361 36.8692 15.2243 
19.8668 39.3486 15.755 20.047 39.8251 15.412 20.2609 40.3851 15.0117 
20.5402 41.0764 14.635 20.7859 41.7818 14.3046 20.9302 42.3703 13.9556 
21.0037 42.8014 13.4315 21.0071 43.0592 12.6535 20.9065 43.1281 11.7639 
14.7102 30.3483 9.01335 15.5592 30.7271 8.80399 16.3906 31.1307 8.53602 
17.1972 31.7019 8.44951 17.9314 32.4296 8.58351 18.5941 33.1516 8.74546 
19.2397 33.7948 8.84774 19.8436 34.4136 8.98408 20.3291 35.0342 9.20831 
14.5279 29.4224 9.07311 15.2327 28.9319 9.12175 15.9579 28.5989 9.37381 
16.7255 28.4281 9.84208 17.5396 28.265 10.3611 18.3665 28.085 10.8827 
19.176 28.0226 11.482 19.9685 28.0691 12.0918 20.7384 28.0665 12.5726 
13.7116 30.5848 8.88394 13.5874 31.1744 8.49809 13.5335 31.8569 8.06496 
13.588 32.8145 7.78162 13.6975 33.8993 7.53667 13.7768 34.8081 7.12032 
13.8303 35.5641 6.65793 13.9191 36.4164 6.39958 14.0493 37.4176 6.33356 
13.3649 29.078 8.97578 12.8506 28.144 8.87227 12.3624 27.3759 8.97367 
11.9101 27.007 9.46732 11.4644 26.9872 10.3495 11.0683 27.0566 11.4267 
10.8217 27.063 12.4386 10.7386 27.0429 13.2771 10.7439 27.0443 14.0544 
12.8422 29.8818 8.94111 11.7825 29.8562 8.84652 10.8258 29.9254 8.93644 
10.0581 30.1701 9.26865 9.39081 30.5682 9.60967 8.68972 31.0398 9.70799 
7.98088 31.5645 9.673 7.42212 32.1525 9.80385 7.11946 32.7525 10.1919 
20.7366 35.0713 9.8969 20.7678 34.3927 10.3308 20.815 33.5968 10.6774 
20.8872 32.759 10.974 20.9817 31.8705 11.3377 21.0932 30.8768 11.7426 
21.213 29.8778 12.0518 21.3254 29.05 12.2717 21.4095 28.4335 12.5411 
20.4224 35.8111 8.91048 20.0073 36.1004 8.39144 19.3057 36.4984 7.97467 
18.3898 36.9168 7.63393 17.5833 37.2375 7.2116 17.0251 37.4402 6.60916 
16.4635 37.6161 6.02738 15.7015 37.8513 5.78572 14.8705 38.1388 5.94428 
21.1256 35.8772 9.96403 21.7242 36.1391 10.4247 22.4537 36.3482 10.8378 
23.1672 36.4328 11.2812 23.814 36.3953 11.8199 24.4501 36.3638 12.3954 
25.0176 36.4333 12.9131 25.3857 36.5237 13.4022 25.5669 36.5185 13.9757 
20.8572 36.3048 9.40071 20.9951 37.0801 9.41133 21.1382 37.9874 9.50075 
21.2605 38.9778 9.63547 21.2821 39.8983 9.82438 21.1944 40.663 10.0714 
21.0944 41.3464 10.2876 21.029 42.0193 10.4355 20.9303 42.6194 10.6323 
19.6555 29.8532 18.0196 20.1313 29.2229 18.1408 20.639 28.6147 17.9513 
21.1555 28.2021 17.5158 21.6766 27.9536 16.9714 22.1176 27.6908 16.2774 
22.3142 27.4415 15.3543 22.1957 27.4063 14.3517 21.8567 27.6272 13.5146 
20.0242 30.9146 18.147 20.8066 31.4296 18.2495 21.5772 31.8351 17.9179 
22.4113 32.2919 17.3581 23.4006 32.9989 16.931 24.4059 33.8473 16.7632 
25.1224 34.598 16.6077 25.4629 35.2315 16.1653 25.6001 35.8441 15.4364 
18.6379 29.652 17.4079 17.8926 29.1018 17.1434 17.094 28.6852 17.0398 
16.2645 28.1793 17.129 15.3242 27.5439 17.3528 14.2389 27.0676 17.5061 
13.1423 26.9343 17.2899 12.1989 26.9874 16.6137 11.4359 27.034 15.7178 
22.0622 28.1386 12.9884 22.5366 28.6098 13.1104 22.8353 29.5993 13.3387 
23.1077 30.9183 13.5924 23.576 32.0727 13.8038 24.2315 32.9213 14.0364 
24.8217 33.7603 14.3132 25.1945 34.7219 14.5266 25.4364 35.6464 14.6222 
20.9631 27.61 13.1677 20.3155 27.2243 13.3624 19.47 26.9417 13.5 
18.3208 26.939 13.6614 16.8252 27.0963 13.8953 15.2103 27.1213 14.1324 
13.8131 27.0129 14.3092 12.7095 26.9723 14.4646 11.7348 27.0224 14.6597 
11.9021 40.3367 11.8608 11.8125 40.524 11.1864 11.8746 40.5935 10.3071 
12.0449 40.6041 9.33805 12.2761 40.5206 8.39924 12.5961 40.3061 7.60064 
13.0158 40.0097 7.04459 13.4565 39.628 6.72216 13.8422 39.088 6.50709 
12.7938 40.3409 12.1255 13.7101 40.5555 11.8391 14.7447 40.846 11.5265 
15.6655 41.3862 11.3529 16.3664 42.052 11.3665 17.0492 42.5948 11.3998 
17.9541 42.9705 11.3068 19.0192 43.2138 11.1381 19.9928 43.252 11.0136 
11.4364 39.6891 12.1945 10.84 39.1361 12.0137 10.1484 38.5602 11.8338 
9.31874 38.1124 11.6334 8.60455 37.6025 11.379 8.22546 36.7871 11.1585 
8.01953 35.7771 11.0541 7.72515 34.8329 10.9904 7.34807 34.0247 10.869 
14.6886 39.2146 6.01484 15.2649 40.0482 5.83867 15.8661 40.8193 5.99451 
16.5145 41.4145 6.55319 17.2654 41.8307 7.32747 18.0834 42.2046 8.09805 
18.8507 42.5963 8.82244 19.52 42.9021 9.54483 20.1363 43.0374 10.2719 
13.5345 38.0319 6.71698 12.9039 37.5528 7.07117 12.0798 36.9522 7.36408 
10.9881 36.3095 7.71931 9.93667 35.7221 8.19798 9.23111 35.1789 8.72212 
8.71657 34.6381 9.21396 8.11951 34.1336 9.68041 7.49387 33.6945 10.1669 
25.8607 37.2315 14.3034 25.9391 38.0897 14.0563 25.7615 39.0473 13.8701 
25.2933 40.0506 13.5619 24.6563 40.9061 13.0896 23.9344 41.4917 12.6165 
23.1236 41.9142 12.2308 22.276 42.3259 11.8529 21.4746 42.7291 11.4241 
9.73199 27.0171 14.6133 8.59567 26.9665 14.3502 7.59368 26.978 14.0119 
6.98426 27.2342 13.4901 6.83191 27.8964 12.8576 6.90752 28.9547 12.2849 
6.91984 30.2197 11.8047 6.83306 31.4472 11.3667 6.83474 32.4754 10.9871 
11.7707 33.5728 17.0929 12.6042 32.9725 17.001 12.6493 34.3135 17.1912 
13.4859 32.4067 16.9034 13.6088 33.7975 17.0881 13.773 35.0204 17.1754 
14.4207 32.0198 17.0042 14.5582 33.2575 16.9386 14.8082 34.5545 17.0948 
14.9796 35.5342 16.9608 15.5448 31.7658 17.1554 15.5655 32.847 16.9126 
15.7672 34.0184 16.8966 15.9457 35.0184 16.8283 15.9912 35.8041 16.5066 
16.7754 31.5212 17.1057 16.715 32.5768 16.9555 16.7674 33.6308 16.7867 
16.8543 34.4851 16.5737 16.8505 35.265 16.3001 16.8318 36.091 16.0192 
17.8335 31.3081 17.0262 17.8125 32.3786 17.0168 17.8115 33.4338 16.8534 
17.844 34.1925 16.4967 17.8203 34.8181 16.0913 17.7559 35.6681 15.8781 
17.7704 36.6755 15.8182 18.6375 31.213 17.24 18.6627 32.2395 17.2271 
18.6973 33.3009 17.081 18.7986 34.1051 16.7014 18.8952 34.6505 16.1698 
18.8998 35.3415 15.8207 18.8537 36.3819 15.8222 18.833 37.4653 15.9222 
10.892 31.806 16.8879 10.6462 30.9015 17.0482 11.6483 31.2463 16.9953 
10.3614 30.2342 17.3565 11.4477 30.5342 17.3433 12.532 30.8938 17.2685 
10.1221 29.458 17.5734 11.2217 29.9042 17.7372 12.4344 30.3468 17.8211 
13.5164 30.7625 17.746 10.0276 28.3666 17.6532 11.0797 28.9358 17.9571 
12.3342 29.6232 18.1602 13.5587 30.254 18.2132 14.6537 30.6617 17.9437 
10.1391 27.38 17.6356 11.1329 27.7926 18.08 12.3318 28.5198 18.2277 
13.5855 29.4337 18.1967 14.771 30.1046 17.9526 15.8629 30.4136 17.5151 
10.4624 26.9482 17.3303 11.3959 27.0709 18.027 12.5102 27.5047 18.2212 
13.6967 28.3663 17.991 14.8494 29.2843 17.6 15.9403 29.8083 17.2114 
16.9416 30.069 16.9601 10.9306 26.9528 16.6159 11.7852 26.9142 17.5184 
12.8176 27.0134 17.9762 13.945 27.5054 17.8421 15.0292 28.3295 17.3953 
16.0264 29.0355 17 16.969 29.4279 16.8356 17.8344 29.7929 16.9348 
12.4325 27.0322 15.4265 13.5143 27.0232 15.1179 13.3035 26.9925 16.1941 
14.8484 27.0803 14.8746 14.5923 26.9844 15.7433 14.4171 26.934 16.754 
16.4957 27.1137 14.6959 16.177 26.9899 15.4712 15.9099 26.899 16.3482 
15.6377 27.0577 17.0708 18.1807 27.0034 14.5166 17.9158 26.9599 15.3527 
17.5708 26.8719 16.2495 17.1658 26.9846 17.0175 16.7007 27.4543 17.2818 
19.56 26.9028 14.3247 19.4656 26.9075 15.2106 19.1552 26.9054 16.2012 
18.6803 26.9741 17.1582 18.1041 27.3078 17.6368 17.529 27.9442 17.4586 
20.5741 27.0214 14.1211 20.6647 26.9568 14.9958 20.4781 27.0245 15.9855 
20.0351 27.1321 17.0242 19.4438 27.328 17.807 18.8147 27.7744 17.9798 
18.2689 28.4354 17.6119 21.3246 27.3054 13.8538 21.5645 27.1402 14.7193 
21.5341 27.2079 15.689 21.1941 27.4001 16.6411 20.659 27.5846 17.463 
20.0648 27.8738 17.9941 19.4911 28.4027 18.0818 19.0029 29.057 17.7961 
20.5471 30.3335 18.2446 21.0624 29.6534 17.9932 21.3656 30.7982 18.0591 
21.5228 29.0613 17.4945 21.8044 30.1346 17.5444 22.064 31.2336 17.5556 
21.9792 28.6912 17.03 22.1508 29.6485 17.009 22.3574 30.7224 17.0319 
22.7912 31.8261 17.0202 22.4494 28.3971 16.5748 22.5352 29.3551 16.6244 
22.5939 30.4326 16.5608 22.9633 31.5153 16.5666 23.6721 32.64 16.6526 
22.7738 28.0408 15.8015 22.9134 29.0326 16.0578 22.891 30.236 16.0458 
23.1047 31.3644 15.9931 23.7302 32.3982 16.1343 24.508 33.4783 16.393 
[...]
POINT_DATA 1002
FIELD FieldData 4
_paraPhi 1 1002 double
6.2831853072 3.1415926536 6.2831853072 3.1415926536 4.7123889804 4.7123889804 1.5707963268 1.5707963268 3.6951670125 
5.7296109483 2.5880182947 0.5535743589 6.2831853072 6.2831853072 6.2831853072 6.2831853072 3.1415926536 3.1415926536 
3.1415926536 3.1415926536 3.1415926536 6.1053039672 5.898798347 5.6768734901 5.4599499503 5.2659633393 5.1032165617 
4.9713148346 4.8656852733 4.7809517865 0.17788134 0.38438696014 0.60631181711 0.82323535693 1.0172219679 1.1799687454 
1.3118704726 1.4175000338 1.5022335207 6.1892828907 6.1070320098 6.035312792 5.9728339911 5.9183214791 5.8706119594 
5.8286879411 5.7916808611 5.7588591896 0.093902416448 0.17615329733 0.2478725152 0.31035131605 0.36486382811 0.41257334776 
0.45449736604 0.4915044461 0.52432611754 3.3194739936 3.5259796137 3.7479044707 3.9648280105 4.1588146215 4.321561399 
4.4534631262 4.5590926874 4.6438261743 2.9637113136 2.7572056934 2.5352808365 2.3183572967 2.1243706857 1.9616239082 
1.829722181 1.7240926197 1.6393591329 3.23549507 3.3177459509 3.3894651688 3.4519439696 3.5064564817 3.5541660013 
3.5960900196 3.6330970997 3.6659187711 3.0476902371 2.9654393563 2.8937201384 2.8312413375 2.7767288255 2.7290193058 
2.6870952876 2.6500882075 2.617266536 6.2831853072 6.2831853072 6.2831853072 6.2831853072 3.1415926536 3.1415926536 
3.1415926536 3.1415926536 3.1415926536 6.1053039672 5.898798347 5.6768734901 5.4599499503 5.2659633393 5.1032165617 
4.9713148346 4.8656852733 4.7809517865 0.17788134 0.38438696014 0.60631181711 0.82323535693 1.0172219679 1.1799687454 
1.3118704726 1.4175000338 1.5022335207 6.1892828907 6.1070320098 6.035312792 5.9728339911 5.9183214791 5.8706119594 
5.8286879411 5.7916808611 5.7588591896 0.093902416448 0.17615329733 0.2478725152 0.31035131605 0.36486382811 0.41257334776 
0.45449736604 0.4915044461 0.52432611754 3.3194739936 3.5259796137 3.7479044707 3.9648280105 4.1588146215 4.321561399 
4.4534631262 4.5590926874 4.6438261743 2.9637113136 2.7572056934 2.5352808365 2.3183572967 2.1243706857 1.9616239082 
1.829722181 1.7240926197 1.6393591329 3.23549507 3.3177459509 3.3894651688 3.4519439696 3.5064564817 3.5541660013 
3.5960900196 3.6330970997 3.6659187711 3.0476902371 2.9654393563 2.8937201384 2.8312413375 2.7767288255 2.7290193058 
2.6870952876 2.6500882075 2.617266536 4.7123889804 4.7123889804 4.7123889804 4.7123889804 4.7123889804 4.7123889804 
4.7123889804 4.7123889804 4.7123889804 4.6087898617 4.4991390697 4.3857031936 4.2712800401 4.1588146215 4.0509635631 
3.94975894 3.8564636551 3.7716124825 4.8159880991 4.9256388911 5.0390747672 5.1534979207 5.2659633393 5.3738143976 
5.4750190208 5.5683143056 5.6531654782 4.6087898617 4.4991390697 4.3857031936 4.2712800401 4.1588146215 4.0509635631 
3.94975894 3.8564636551 3.7716124825 4.8159880991 4.9256388911 5.0390747672 5.1534979207 5.2659633393 5.3738143976 
5.4750190208 5.5683143056 5.6531654782 1.5707963268 1.5707963268 1.5707963268 1.5707963268 1.5707963268 1.5707963268 
1.5707963268 1.5707963268 1.5707963268 1.6743954455 1.7840462375 1.8974821136 2.0119052671 2.1243706857 2.232221744 
2.3334263672 2.426721652 2.5115728246 1.4671972081 1.3575464161 1.24411054 1.1296873865 1.0172219679 0.90937090954 
0.80816628637 0.71487100155 0.63001982895 1.6743954455 1.7840462375 1.8974821136 2.0119052671 2.1243706857 2.232221744 
2.3334263672 2.426721652 2.5115728246 1.4671972081 1.3575464161 1.24411054 1.1296873865 1.0172219679 0.90937090954 
0.80816628637 0.71487100155 0.63001982895 3.6007720849 3.4966939854 3.3839471039 3.2645756454 3.1415926536 3.0186096618 
2.8992382033 2.7864913217 2.6824132222 5.8240058758 5.9280839753 6.0408308569 6.1602023154 6.2831853072 0.12298299178 
0.2423544503 0.35510133185 0.45917943135 6.0560271438 5.7885595667 5.9702140275 5.5125918794 5.6029703303 5.7885595667 
5.2659633393 5.2659633393 5.2659633393 5.2659633393 5.0674903122 5.0120975802 4.9155579264 4.7123889804 4.1588146215 
4.9155579264 4.8353719722 4.7123889804 4.5092200343 4.1588146215 3.6362183941 4.8004512023 4.7123889804 4.5894059886 
4.4126803806 4.1588146215 3.8218076305 3.4545639333 4.7123889804 4.6243267584 4.5092200343 4.3572876485 4.1588146215 
3.9121860814 3.6362183941 3.368750817 6.0174235957 5.9434319871 5.8263323547 5.8809213739 5.7674481418 5.6279784266 
5.8278025282 5.718968232 5.5891129425 5.4372443565 5.7823484065 5.678536687 5.5575666702 5.4192596322 5.2659633393 
5.743164462 5.6444075337 5.5314983644 5.4046708639 5.2659633393 5.1195510325 5.7091357773 5.6152775188 5.5096229709 
5.3926039573 5.2659633393 5.1329233157 4.9978930058 5.6793730533 5.5901633916 5.4910209005 5.3824597928 5.2659633393 
5.1440684722 5.0201624502 4.8979782167 5.5683143056 5.4750190208 5.4750190208 5.3738143976 5.3738143976 5.3738143976 
5.2659633393 5.2659633393 5.2659633393 5.2659633393 5.1534979207 5.1534979207 5.1534979207 5.1534979207 5.1534979207 
5.0390747672 5.0390747672 5.0390747672 5.0390747672 5.0390747672 5.0390747672 4.9256388911 4.9256388911 4.9256388911 
4.9256388911 4.9256388911 4.9256388911 4.9256388911 4.8159880991 4.8159880991 4.8159880991 4.8159880991 4.8159880991 
4.8159880991 4.8159880991 4.8159880991 4.6087898617 4.6087898617 4.4991390697 4.6087898617 4.4991390697 4.3857031936 
4.6087898617 4.4991390697 4.3857031936 4.2712800401 4.6087898617 4.4991390697 4.3857031936 4.2712800401 4.1588146215 
4.6087898617 4.4991390697 4.3857031936 4.2712800401 4.1588146215 4.0509635631 4.6087898617 4.4991390697 4.3857031936 
4.2712800401 4.1588146215 4.0509635631 3.94975894 4.6087898617 4.4991390697 4.3857031936 4.2712800401 4.1588146215 
4.0509635631 3.94975894 3.8564636551 4.526799744 4.4046155105 4.426884955 4.2807094886 4.2918546451 4.3052269283 
4.1588146215 4.1588146215 4.1588146215 4.1588146215 4.042318168 4.0321740035 4.0201070968 4.0055183285 3.9875336042 
3.9337570603 3.9151549899 3.8932795963 3.8672112905 3.8356650183 3.7967995342 3.8346145692 3.809500442 3.7803704271 
3.7462412737 3.7058097288 3.657329819 3.5984456061 3.7454049075 3.7156421835 3.6816134988 3.6424295543 3.5969754326 
3.5438565869 3.4813459737 3.4073543651 3.5642842451 3.4524645613 3.5233842518 3.3320300872 3.403123212 3.4773852225 
3.20576226 3.2746326772 3.348015857 3.4255060145 3.0774230472 3.1415926536 3.2112816139 3.2864685043 3.3668817272 
2.95115522 3.00855263 3.0719036933 3.1415926536 3.2178377658 3.3005964304 2.8307207459 2.8800620952 2.9351694502 
2.9967168029 3.0653475414 3.1415926536 3.225752376 2.718901062 2.7598010554 2.8058000847 2.8576792927 2.91630358 
2.9825888767 3.0574329311 3.1415926536 3.5642842451 3.5233842518 3.4524645613 3.4773852225 3.403123212 3.3320300872 
3.4255060145 3.348015857 3.2746326772 3.20576226 3.3668817272 3.2864685043 3.2112816139 3.1415926536 3.0774230472 
3.3005964304 3.2178377658 3.1415926536 3.0719036933 3.00855263 2.95115522 3.225752376 3.1415926536 3.0653475414 
2.9967168029 2.9351694502 2.8800620952 2.8307207459 3.1415926536 3.0574329311 2.9825888767 2.91630358 2.8576792927 
2.8058000847 2.7598010554 2.718901062 4.526799744 4.426884955 4.4046155105 4.3052269283 4.2918546451 4.2807094886 
4.1588146215 4.1588146215 4.1588146215 4.1588146215 3.9875336042 4.0055183285 4.0201070968 4.0321740035 4.042318168 
3.7967995342 3.8356650183 3.8672112905 3.8932795963 3.9151549899 3.9337570603 3.5984456061 3.657329819 3.7058097288 
3.7462412737 3.7803704271 3.809500442 3.8346145692 3.4073543651 3.4813459737 3.5438565869 3.5969754326 3.6424295543 
3.6816134988 3.7156421835 3.7454049075 4.7123889804 4.8004512023 4.6243267584 4.9155579264 4.7123889804 4.5092200343 
5.0674903122 4.8353719722 4.5894059886 4.3572876485 5.2659633393 5.0120975802 4.7123889804 4.4126803806 4.1588146215 
5.5125918794 5.2659633393 4.9155579264 4.5092200343 4.1588146215 3.9121860814 5.7885595667 5.6029703303 5.2659633393 
4.7123889804 4.1588146215 3.8218076305 3.6362183941 6.0560271438 5.9702140275 5.7885595667 5.2659633393 4.1588146215 
3.6362183941 3.4545639333 3.368750817 0.22715816343 0.49462574053 0.3129712797 0.77059342779 0.68021497688 0.49462574053 
1.0172219679 1.0172219679 1.0172219679 1.0172219679 1.2156949949 1.271087727 1.3676273807 1.5707963268 2.1243706857 
1.3676273807 1.447813335 1.5707963268 1.7739652728 2.1243706857 2.6469669131 1.4827341049 1.5707963268 1.6937793186 
1.8705049266 2.1243706857 2.4613776767 2.8286213739 1.5707963268 1.6588585487 1.7739652728 1.9258976586 2.1243706857 
2.3709992258 2.6469669131 2.9144344902 1.7563855631 1.8785697967 1.8563003522 2.0024758186 1.9913306621 1.9779583789 
2.1243706857 2.1243706857 2.1243706857 2.1243706857 2.2408671392 2.2510113037 2.2630782103 2.2776669786 2.295651703 
2.3494282469 2.3680303173 2.3899057108 2.4159740166 2.4475202889 2.486385773 2.448570738 2.4736848652 2.5028148801 
2.5369440334 2.5773755784 2.6258554882 2.6847397011 2.5377803997 2.5675431237 2.6015718084 2.6407557529 2.6862098746 
2.7393287203 2.8018393335 2.8758309421 1.6743954455 1.6743954455 1.7840462375 1.6743954455 1.7840462375 1.8974821136 
1.6743954455 1.7840462375 1.8974821136 2.0119052671 1.6743954455 1.7840462375 1.8974821136 2.0119052671 2.1243706857 
1.6743954455 1.7840462375 1.8974821136 2.0119052671 2.1243706857 2.232221744 1.6743954455 1.7840462375 1.8974821136 
2.0119052671 2.1243706857 2.232221744 2.3334263672 1.6743954455 1.7840462375 1.8974821136 2.0119052671 2.1243706857 
2.232221744 2.3334263672 2.426721652 1.4671972081 1.3575464161 1.4671972081 1.24411054 1.3575464161 1.4671972081 
1.1296873865 1.24411054 1.3575464161 1.4671972081 1.0172219679 1.1296873865 1.24411054 1.3575464161 1.4671972081 
0.90937090954 1.0172219679 1.1296873865 1.24411054 1.3575464161 1.4671972081 0.80816628637 0.90937090954 1.0172219679 
1.1296873865 1.24411054 1.3575464161 1.4671972081 0.71487100155 0.80816628637 0.90937090954 1.0172219679 1.1296873865 
1.24411054 1.3575464161 1.4671972081 0.60381225391 0.57404952988 0.69302191562 0.54002084522 0.66790778838 0.79216440667 
0.50083690068 0.63877777351 0.77356233629 0.90072551443 0.45538277901 0.60464862014 0.75168694275 0.89058134991 1.0172219679 
0.40226393329 0.56421707518 0.72561863695 0.87851444325 1.0172219679 1.139116835 0.33975332011 0.51573716537 0.69407236469 
0.86392567495 1.0172219679 1.1502619915 1.2630228569 0.26576171152 0.45685295248 0.6552068806 0.84594095064 1.0172219679 
1.1636342747 1.2852923014 1.3852070904 0.22715816343 0.3129712797 0.49462574053 0.49462574053 0.68021497688 0.77059342779 
1.0172219679 1.0172219679 1.0172219679 1.0172219679 2.1243706857 1.5707963268 1.3676273807 1.271087727 1.2156949949 
2.6469669131 2.1243706857 1.7739652728 1.5707963268 1.447813335 1.3676273807 2.8286213739 2.4613776767 2.1243706857 
1.8705049266 1.6937793186 1.5707963268 1.4827341049 2.9144344902 2.6469669131 2.3709992258 2.1243706857 1.9258976586 
1.7739652728 1.6588585487 1.5707963268 1.7563855631 1.8563003522 1.8785697967 1.9779583789 1.9913306621 2.0024758186 
2.1243706857 2.1243706857 2.1243706857 2.1243706857 2.295651703 2.2776669786 2.2630782103 2.2510113037 2.2408671392 
2.486385773 2.4475202889 2.4159740166 2.3899057108 2.3680303173 2.3494282469 2.6847397011 2.6258554882 2.5773755784 
2.5369440334 2.5028148801 2.4736848652 2.448570738 2.8758309421 2.8018393335 2.7393287203 2.6862098746 2.6407557529 
2.6015718084 2.5675431237 2.5377803997 5.8604937156 5.901393709 5.9723133995 5.9473927383 6.0216547488 6.0927478736 
5.9992719463 6.0767621038 6.1501452836 6.2190157008 6.0578962336 6.1383094565 6.2134963469 0 0.064169606361 
6.1241815303 6.206940195 6.2831853072 0.069688960264 0.13304002361 0.19043743361 6.1990255847 0 0.07624511221 
0.14487585072 0.20642320337 0.26153055843 0.3108719077 0 0.084159722458 0.15900377685 0.22528907359 0.28391336087 
0.3357925689 0.38179159818 0.42269159155 5.8604937156 5.9723133995 5.901393709 6.0927478736 6.0216547488 5.9473927383 
6.2190157008 6.1501452836 6.0767621038 5.9992719463 0.064169606361 0 6.2134963469 6.1383094565 6.0578962336 
0.19043743361 0.13304002361 0.069688960264 6.2831853072 6.206940195 6.1241815303 0.3108719077 0.26153055843 0.20642320337 
0.14487585072 0.07624511221 6.2831853072 6.1990255847 0.42269159155 0.38179159818 0.3357925689 0.28391336087 0.22528907359 
0.15900377685 0.084159722458 0 5.6793730533 5.7091357773 5.5901633916 5.743164462 5.6152775188 5.4910209005 
5.7823484065 5.6444075337 5.5096229709 5.3824597928 5.8278025282 5.678536687 5.5314983644 5.3926039573 5.2659633393 
5.8809213739 5.718968232 5.5575666702 5.4046708639 5.2659633393 5.1440684722 5.9434319871 5.7674481418 5.5891129425 
5.4192596322 5.2659633393 5.1329233157 5.0201624502 6.0174235957 5.8263323547 5.6279784266 5.4372443565 5.2659633393 
5.1195510325 4.9978930058 4.8979782167 1.3852070904 1.2852923014 1.2630228569 1.1636342747 1.1502619915 1.139116835 
1.0172219679 1.0172219679 1.0172219679 1.0172219679 0.84594095064 0.86392567495 0.87851444325 0.89058134991 0.90072551443 
0.6552068806 0.69407236469 0.72561863695 0.75168694275 0.77356233629 0.79216440667 0.45685295248 0.51573716537 0.56421707518 
0.60464862014 0.63877777351 0.66790778838 0.69302191562 0.26576171152 0.33975332011 0.40226393329 0.45538277901 0.50083690068 
0.54002084522 0.57404952988 0.60381225391 
_paraPhiHalf 1 1002 double
0 3.1415926536 0 3.1415926536 1.5707963268 1.5707963268 1.5707963268 1.5707963268 2.5880182947 
0.5535743589 2.5880182947 0.5535743589 0 0 0 0 3.1415926536 3.1415926536 
3.1415926536 3.1415926536 3.1415926536 0.17788134 0.38438696014 0.60631181711 0.82323535693 1.0172219679 1.1799687454 
1.3118704726 1.4175000338 1.5022335207 0.17788134 0.38438696014 0.60631181711 0.82323535693 1.0172219679 1.1799687454 
1.3118704726 1.4175000338 1.5022335207 0.093902416448 0.17615329733 0.2478725152 0.31035131605 0.36486382811 0.41257334776 
0.45449736604 0.4915044461 0.52432611754 0.093902416448 0.17615329733 0.2478725152 0.31035131605 0.36486382811 0.41257334776 
0.45449736604 0.4915044461 0.52432611754 2.9637113136 2.7572056934 2.5352808365 2.3183572967 2.1243706857 1.9616239082 
1.829722181 1.7240926197 1.6393591329 2.9637113136 2.7572056934 2.5352808365 2.3183572967 2.1243706857 1.9616239082 
1.829722181 1.7240926197 1.6393591329 3.0476902371 2.9654393563 2.8937201384 2.8312413375 2.7767288255 2.7290193058 
2.6870952876 2.6500882075 2.617266536 3.0476902371 2.9654393563 2.8937201384 2.8312413375 2.7767288255 2.7290193058 
2.6870952876 2.6500882075 2.617266536 0 0 0 0 3.1415926536 3.1415926536 
3.1415926536 3.1415926536 3.1415926536 0.17788134 0.38438696014 0.60631181711 0.82323535693 1.0172219679 1.1799687454 
1.3118704726 1.4175000338 1.5022335207 0.17788134 0.38438696014 0.60631181711 0.82323535693 1.0172219679 1.1799687454 
1.3118704726 1.4175000338 1.5022335207 0.093902416448 0.17615329733 0.2478725152 0.31035131605 0.36486382811 0.41257334776 
0.45449736604 0.4915044461 0.52432611754 0.093902416448 0.17615329733 0.2478725152 0.31035131605 0.36486382811 0.41257334776 
0.45449736604 0.4915044461 0.52432611754 2.9637113136 2.7572056934 2.5352808365 2.3183572967 2.1243706857 1.9616239082 
1.829722181 1.7240926197 1.6393591329 2.9637113136 2.7572056934 2.5352808365 2.3183572967 2.1243706857 1.9616239082 
1.829722181 1.7240926197 1.6393591329 3.0476902371 2.9654393563 2.8937201384 2.8312413375 2.7767288255 2.7290193058 
2.6870952876 2.6500882075 2.617266536 3.0476902371 2.9654393563 2.8937201384 2.8312413375 2.7767288255 2.7290193058 
2.6870952876 2.6500882075 2.617266536 1.5707963268 1.5707963268 1.5707963268 1.5707963268 1.5707963268 1.5707963268 
1.5707963268 1.5707963268 1.5707963268 1.6743954455 1.7840462375 1.8974821136 2.0119052671 2.1243706857 2.232221744 
2.3334263672 2.426721652 2.5115728246 1.4671972081 1.3575464161 1.24411054 1.1296873865 1.0172219679 0.90937090954 
0.80816628637 0.71487100155 0.63001982895 1.6743954455 1.7840462375 1.8974821136 2.0119052671 2.1243706857 2.232221744 
2.3334263672 2.426721652 2.5115728246 1.4671972081 1.3575464161 1.24411054 1.1296873865 1.0172219679 0.90937090954 
0.80816628637 0.71487100155 0.63001982895 1.5707963268 1.5707963268 1.5707963268 1.5707963268 1.5707963268 1.5707963268 
1.5707963268 1.5707963268 1.5707963268 1.6743954455 1.7840462375 1.8974821136 2.0119052671 2.1243706857 2.232221744 
2.3334263672 2.426721652 2.5115728246 1.4671972081 1.3575464161 1.24411054 1.1296873865 1.0172219679 0.90937090954 
0.80816628637 0.71487100155 0.63001982895 1.6743954455 1.7840462375 1.8974821136 2.0119052671 2.1243706857 2.232221744 
2.3334263672 2.426721652 2.5115728246 1.4671972081 1.3575464161 1.24411054 1.1296873865 1.0172219679 0.90937090954 
0.80816628637 0.71487100155 0.63001982895 2.6824132222 2.7864913217 2.8992382033 3.0186096618 3.1415926536 3.0186096618 
2.8992382033 2.7864913217 2.6824132222 0.45917943135 0.35510133185 0.2423544503 0.12298299178 0 0.12298299178 
0.2423544503 0.35510133185 0.45917943135 0.22715816343 0.49462574053 0.3129712797 0.77059342779 0.68021497688 0.49462574053 
1.0172219679 1.0172219679 1.0172219679 1.0172219679 1.2156949949 1.271087727 1.3676273807 1.5707963268 2.1243706857 
1.3676273807 1.447813335 1.5707963268 1.7739652728 2.1243706857 2.6469669131 1.4827341049 1.5707963268 1.6937793186 
1.8705049266 2.1243706857 2.4613776767 2.8286213739 1.5707963268 1.6588585487 1.7739652728 1.9258976586 2.1243706857 
2.3709992258 2.6469669131 2.9144344902 0.26576171152 0.33975332011 0.45685295248 0.40226393329 0.51573716537 0.6552068806 
0.45538277901 0.56421707518 0.69407236469 0.84594095064 0.50083690068 0.60464862014 0.72561863695 0.86392567495 1.0172219679 
0.54002084522 0.63877777351 0.75168694275 0.87851444325 1.0172219679 1.1636342747 0.57404952988 0.66790778838 0.77356233629 
0.89058134991 1.0172219679 1.1502619915 1.2852923014 0.60381225391 0.69302191562 0.79216440667 0.90072551443 1.0172219679 
1.139116835 1.2630228569 1.3852070904 0.71487100155 0.80816628637 0.80816628637 0.90937090954 0.90937090954 0.90937090954 
1.0172219679 1.0172219679 1.0172219679 1.0172219679 1.1296873865 1.1296873865 1.1296873865 1.1296873865 1.1296873865 
1.24411054 1.24411054 1.24411054 1.24411054 1.24411054 1.24411054 1.3575464161 1.3575464161 1.3575464161 
1.3575464161 1.3575464161 1.3575464161 1.3575464161 1.4671972081 1.4671972081 1.4671972081 1.4671972081 1.4671972081 
1.4671972081 1.4671972081 1.4671972081 1.6743954455 1.6743954455 1.7840462375 1.6743954455 1.7840462375 1.8974821136 
1.6743954455 1.7840462375 1.8974821136 2.0119052671 1.6743954455 1.7840462375 1.8974821136 2.0119052671 2.1243706857 
1.6743954455 1.7840462375 1.8974821136 2.0119052671 2.1243706857 2.232221744 1.6743954455 1.7840462375 1.8974821136 
2.0119052671 2.1243706857 2.232221744 2.3334263672 1.6743954455 1.7840462375 1.8974821136 2.0119052671 2.1243706857 
2.232221744 2.3334263672 2.426721652 1.7563855631 1.8785697967 1.8563003522 2.0024758186 1.9913306621 1.9779583789 
2.1243706857 2.1243706857 2.1243706857 2.1243706857 2.2408671392 2.2510113037 2.2630782103 2.2776669786 2.295651703 
2.3494282469 2.3680303173 2.3899057108 2.4159740166 2.4475202889 2.486385773 2.448570738 2.4736848652 2.5028148801 
2.5369440334 2.5773755784 2.6258554882 2.6847397011 2.5377803997 2.5675431237 2.6015718084 2.6407557529 2.6862098746 
2.7393287203 2.8018393335 2.8758309421 2.718901062 2.8307207459 2.7598010554 2.95115522 2.8800620952 2.8058000847 
3.0774230472 3.00855263 2.9351694502 2.8576792927 3.0774230472 3.1415926536 3.0719036933 2.9967168029 2.91630358 
2.95115522 3.00855263 3.0719036933 3.1415926536 3.0653475414 2.9825888767 2.8307207459 2.8800620952 2.9351694502 
2.9967168029 3.0653475414 3.1415926536 3.0574329311 2.718901062 2.7598010554 2.8058000847 2.8576792927 2.91630358 
2.9825888767 3.0574329311 3.1415926536 2.718901062 2.7598010554 2.8307207459 2.8058000847 2.8800620952 2.95115522 
2.8576792927 2.9351694502 3.00855263 3.0774230472 2.91630358 2.9967168029 3.0719036933 3.1415926536 3.0774230472 
2.9825888767 3.0653475414 3.1415926536 3.0719036933 3.00855263 2.95115522 3.0574329311 3.1415926536 3.0653475414 