# vtk DataFile Version 5.1
vtk output
ASCII
DATASET POLYDATA
POINTS 1002 float
-4.54782 0.0305262 -3.8048 4.59847 -0.147499 -3.74168 -4.50276 0.137965 5.18492 
3.86384 0.0326726 2.96513 0.149244 5.11186 -2.3704 0.663223 6.19541 3.66483 
0.0482923 -4.39454 -1.84477 0.620418 -4.68474 3.06982 8.22978 3.3413 -0.0700307 
-8.46001 3.05869 -1.26957 8.48034 -4.19708 -0.224613 -7.7485 -3.71058 -0.0347672 
-3.82809 0.0798089 -3.80837 -3.03148 0.217152 -3.77157 -2.15336 0.319904 -3.66577 
-1.18378 0.282227 -3.55621 -0.134879 0.187331 -3.61137 0.921466 0.1549 -3.87931 
1.90901 0.125669 -4.14837 2.83217 0.0176902 -4.1946 3.73157 -0.104688 -4.01665 
-4.35178 0.543122 -3.80911 -4.19576 1.01807 -3.94011 -4.01468 1.49654 -3.99102 
-3.649 2.11474 -3.64588 -3.0739 2.82244 -2.925 -2.44401 3.35226 -2.29337 
-1.82409 3.66957 -2.10964 -1.15086 4.0435 -2.25217 -0.452277 4.58354 -2.39765 
-4.32301 -0.504111 -3.87525 -4.03363 -1.02329 -3.87752 -3.61153 -1.46793 -3.70562 
-3.08328 -1.88876 -3.37331 -2.55197 -2.37544 -3.05345 -2.05032 -2.88989 -2.87072 
-1.52099 -3.32345 -2.73706 -0.952028 -3.67338 -2.50531 -0.410074 -4.01736 -2.17231 
-5.15103 0.39415 -3.73451 -5.84417 0.804828 -3.71355 -6.57652 1.18906 -3.86428 
-7.28085 1.53983 -4.10261 -7.94739 1.9549 -4.10328 -8.56707 2.48412 -3.66828 
-9.01405 2.97891 -2.97681 -9.12813 3.23146 -2.31093 -8.89694 3.21088 -1.75885 
-5.11132 -0.273626 -3.87095 -5.65599 -0.560674 -3.89996 -6.12198 -0.894481 -3.7424 
-6.52463 -1.35588 -3.40946 -6.91106 -1.88982 -2.97776 -7.25813 -2.34085 -2.37476 
-7.50459 -2.68157 -1.58987 -7.64602 -3.01705 -0.867204 -7.71974 -3.38366 -0.383666 
4.3763 0.274381 -3.71642 4.05996 0.825746 -3.49518 3.65179 1.43248 -3.15124 
3.14592 2.00286 -2.94174 2.5393 2.56817 -3.03371 1.88945 3.21855 -3.23933 
1.30748 3.90027 -3.26008 0.85496 4.46034 -3.04922 0.493651 4.84455 -2.72875 
4.23277 -0.497899 -3.78358 3.84268 -0.910776 -3.68781 3.4425 -1.46985 -3.60366 
2.98848 -2.07175 -3.65744 2.45573 -2.5639 -3.75042 1.91277 -3.01218 -3.67439 
1.42975 -3.51542 -3.3634 0.982082 -3.95496 -2.88996 0.519724 -4.21855 -2.35201 
5.35706 0.148917 -3.43093 6.10574 0.579011 -3.08342 6.75481 1.03792 -2.81368 
7.37646 1.43399 -2.60858 8.13801 1.89588 -2.33285 8.94162 2.57567 -1.9318 
9.38598 3.26772 -1.47338 9.25763 3.61018 -1.00229 8.7645 3.55388 -0.523386 
5.23292 -0.337661 -3.50643 5.86871 -0.504311 -3.24015 6.51312 -0.747537 -2.95583 
7.17548 -1.1323 -2.68143 7.76025 -1.5862 -2.49457 8.11578 -2.04326 -2.37445 
8.25188 -2.57956 -2.11317 8.32916 -3.2251 -1.57648 8.42587 -3.82296 -0.883192 
-3.75196 0.268951 5.03587 -2.91133 0.387823 4.81131 -1.97836 0.451461 4.71768 
-1.01178 0.433325 4.78085 -0.080051 0.388999 4.78033 0.806096 0.372297 4.56852 
1.66178 0.3366 4.23204 2.47299 0.236696 3.85873 3.21111 0.116857 3.43365 
-4.15896 0.640164 5.20948 -3.68498 1.18056 5.08693 -3.16129 1.78477 4.90583 
-2.63605 2.49795 4.76936 -2.06235 3.28455 4.74669 -1.40033 4.02533 4.79751 
-0.726119 4.68437 4.76669 -0.149673 5.30682 4.53715 0.301427 5.84773 4.1364 
-4.24874 -0.292306 4.90028 -3.84754 -0.769078 4.48774 -3.37802 -1.27584 4.25583 
-2.93156 -1.8178 4.30004 -2.4769 -2.38519 4.3308 -1.9129 -2.91085 4.11778 
-1.24756 -3.3469 3.80815 -0.578585 -3.74596 3.57625 0.0435397 -4.1889 3.3643 
-5.07365 0.297012 5.12374 -5.68059 0.427465 4.58123 -6.2825 0.53977 3.64105 
-6.80196 0.716884 2.66995 -7.22896 1.03545 1.89866 -7.63284 1.42773 1.20985 
-8.01204 1.77235 0.48806 -8.28079 2.1018 -0.191346 -8.41319 2.53178 -0.767217 
-5.12406 -0.266269 5.04077 -5.79289 -0.722404 4.60531 -6.55699 -1.22401 3.92698 
-7.39874 -1.72824 3.28585 -8.13038 -2.17048 2.85775 -8.51683 -2.55144 2.43258 
-8.5265 -2.93481 1.76774 -8.32141 -3.31179 0.988572 -8.04629 -3.58691 0.364568 
3.6839 0.517347 3.39233 3.52106 1.0146 3.87922 3.28523 1.56472 4.15715 
2.91645 2.2109 4.06457 2.47774 2.95991 3.87321 2.06766 3.76704 3.96168 
1.69747 4.5472 4.23665 1.33838 5.22524 4.31762 0.991898 5.77517 4.07656 
3.70218 -0.438147 2.97122 3.5268 -0.951745 3.06071 3.26864 -1.49082 3.10261 
2.91219 -2.03289 3.05705 2.51552 -2.57167 3.08165 2.15904 -3.10272 3.31997 
1.87499 -3.57888 3.63586 1.58998 -3.96908 3.7387 1.18217 -4.32187 3.50944 
4.38098 0.304145 2.7436 4.9499 0.618524 2.6058 5.54402 0.890785 2.50005 
6.15347 1.07903 2.26746 6.78168 1.30373 1.86927 7.36322 1.70384 1.50266 
7.77283 2.20954 1.26611 7.9841 2.6588 0.978369 8.10511 3.01887 0.5012 
4.41483 -0.340777 2.4478 5.07471 -0.790404 1.96091 5.78273 -1.2618 1.54939 
6.41145 -1.66675 1.24254 6.9569 -2.0205 1.09966 7.57024 -2.45844 1.11969 
8.24816 -3.03866 1.12225 8.71989 -3.62976 0.887415 8.77446 -4.0442 0.386946 
0.22694 5.48332 -1.93538 0.240999 5.67522 -1.26876 0.241951 5.67599 -0.519429 
0.316561 5.67998 0.137895 0.459471 5.91529 0.691675 0.574308 6.33884 1.26207 
0.620748 6.66931 1.88583 0.639547 6.71878 2.50186 0.657126 6.52194 3.08973 
0.842424 5.3481 -2.44626 1.46065 5.35527 -2.35466 2.14924 5.10012 -2.05179 
3.11394 4.72499 -1.66187 4.37772 4.41545 -1.33731 5.68123 4.21934 -1.13854 
6.72742 4.05979 -1.02394 7.43731 3.86625 -0.859182 7.90433 3.62373 -0.5301 
-0.640181 5.06463 -2.10871 -1.65679 5.07612 -1.99786 -2.8198 5.20398 -2.03988 
-3.99816 5.39665 -2.11343 -5.11273 5.5126 -2.16269 -6.11684 5.42207 -2.21054 
-6.93229 5.07509 -2.17851 -7.53316 4.50149 -1.95947 -8.00941 3.79077 -1.60763 
1.2135 6.04349 3.3637 1.80611 5.54299 2.9035 2.43504 4.86202 2.35656 
3.12834 4.37926 1.81344 3.9738 4.27044 1.34213 4.98077 4.23372 0.94537 
5.98417 3.95558 0.587844 6.83497 3.57159 0.281686 7.55683 3.36119 0.0684413 
0.077549 6.29461 3.42824 -0.674272 6.15679 3.0006 -1.63534 5.83775 2.43383 
-2.74634 5.42602 1.82456 -3.87476 4.95621 1.2305 -4.92704 4.45177 0.626948 
-5.88774 3.98858 0.0110269 -6.7859 3.62365 -0.534621 -7.6503 3.33178 -0.950538 
0.0109203 -4.82932 -1.39641 0.0065943 -5.39959 -1.03721 0.0897014 -5.92533 -0.708982 
0.21128 -6.17263 -0.228489 0.247616 -6.15618 0.410756 0.199319 -6.09554 0.978595 
0.214811 -6.01945 1.40707 0.35771 -5.75068 1.88477 0.529024 -5.25113 2.48901 
0.75243 -4.6893 -1.88094 1.44348 -4.99532 -1.99537 2.15916 -5.23649 -2.1014 
3.01984 -5.26492 -2.00907 4.04192 -4.98473 -1.63547 5.06051 -4.56659 -1.1945 
5.97622 -4.3279 -0.931705 6.86003 -4.33683 -0.789278 7.73311 -4.36375 -0.568537 
-0.718304 -4.3717 -1.5902 -1.55949 -4.51153 -1.43086 -2.4639 -4.8824 -1.42706 
-3.42376 -5.30616 -1.5546 -4.35585 -5.45381 -1.60672 -5.16285 -5.22976 -1.36808 
-5.87341 -4.83984 -0.907256 -6.56117 -4.45623 -0.480847 -7.20524 -4.08627 -0.211297 
1.612 -5.00415 2.99083 2.61907 -5.38405 2.77782 3.44884 -5.69295 2.37851 
4.04783 -5.68849 1.85945 4.63258 -5.28894 1.3636 5.43875 -4.78681 0.989152 
6.41481 -4.5398 0.719598 7.32121 -4.53521 0.459998 8.00686 -4.48539 0.140962 
-0.396042 -4.74452 2.80412 -1.4578 -4.79865 2.55954 -2.51039 -4.82564 2.27164 
-3.58933 -4.87861 1.90959 -4.6925 -5.02479 1.60574 -5.68846 -5.17103 1.40427 
-6.45499 -5.1066 1.12289 -7.00562 -4.75746 0.690654 -7.41972 -4.2427 0.266555 
8.80935 3.10438 0.153579 9.36088 2.6201 0.259516 9.82245 1.73784 0.130218 
10.1499 0.571095 -0.106687 10.3166 -0.478989 -0.191749 10.2845 -1.21465 -0.101063 
10.0373 -1.89623 -0.0425684 9.61861 -2.74645 -0.10493 9.08808 -3.60056 -0.19242 
-9.2624 2.40184 -1.30679 -10.0988 1.68029 -1.41917 -10.7441 0.950526 -1.47938 
-10.9318 0.216303 -1.28904 -10.5945 -0.555499 -0.842363 -9.95378 -1.33149 -0.395507 
-9.29683 -2.0237 -0.161549 -8.73642 -2.61319 -0.101894 -8.23539 -3.16143 -0.0786759 
-3.58265 0.622886 -3.94117 -3.36434 1.10211 -4.16313 -2.73705 0.752827 -3.98848 
-3.05049 1.59529 -4.09346 -2.41283 1.21088 -4.17711 -1.79372 0.800853 -3.8589 
-2.51495 2.22807 -3.44317 -1.92466 1.70273 -3.93747 -1.33701 1.2337 -3.96731 
-0.735588 0.72573 -3.71406 -1.86119 2.87867 -2.57035 -1.27364 2.30921 -3.24619 
-0.72493 1.72539 -3.75406 -0.177325 1.16431 -3.83809 0.387448 0.641221 -3.81008 
-1.25763 3.34929 -2.14312 -0.654358 2.89187 -2.67836 -0.0832984 2.29707 -3.36261 
0.449864 1.65899 -3.75411 0.971766 1.08063 -3.91828 1.46829 0.58583 -4.06826 
-0.67809 3.75282 -2.29192 -0.139181 3.37744 -2.64495 0.440172 2.84664 -3.16895 
1.01642 2.20576 -3.52403 1.5575 1.56614 -3.71186 2.04449 0.992745 -3.94603 
2.46931 0.483031 -4.16829 -0.0679125 4.27875 -2.60572 0.362903 3.89407 -2.906 
0.883063 3.36602 -3.22061 1.48142 2.73331 -3.34258 2.08383 2.09589 -3.31777 
2.61861 1.48625 -3.44363 3.06642 0.89278 -3.76058 3.43622 0.347905 -4.00464 
-5.01216 0.90296 -3.7221 -5.73657 1.32344 -3.69428 -4.89028 1.38823 -3.75684 
-6.4406 1.73653 -3.80674 -5.56159 1.86247 -3.58397 -4.6582 1.97143 -3.64359 
-7.09355 2.13847 -3.89118 -6.1334 2.34635 -3.49162 -5.18735 2.5567 -3.34607 
-4.19023 2.72041 -3.26238 -7.73035 2.64301 -3.68001 -6.68165 2.82647 -3.35378 
-5.62045 3.09026 -3.16744 -4.62597 3.31135 -3.12858 -3.57372 3.38136 -2.79796 
-8.27706 3.265 -3.18222 -7.27407 3.42568 -3.07825 -6.12574 3.60101 -2.98903 
-5.04824 3.77719 -3.10938 -4.02616 3.81958 -3.01376 -2.93382 3.73661 -2.50807 
-8.53064 3.76655 -2.62261 -7.72988 4.08326 -2.74719 -6.68539 4.23159 -2.76817 
-5.55674 4.29233 -2.93317 -4.47241 4.2526 -3.07934 -3.36837 4.12073 -2.83496 
-2.2195 4.0208 -2.39306 -8.40051 3.92519 -2.10922 -7.81123 4.49139 -2.39722 
-7.00985 4.82436 -2.52387 -5.9947 4.93404 -2.60003 -4.88636 4.86827 -2.7177 
-3.73781 4.69392 -2.69866 -2.54759 4.53463 -2.46589 -1.40859 4.50139 -2.29153 
-7.17605 4.07253 -1.29477 -6.24266 4.36423 -0.789779 -6.64642 4.83247 -1.59281 
-5.24167 4.7601 -0.102369 -5.59335 5.16341 -0.960085 -5.95744 5.48667 -1.70386 
-4.1989 5.25976 0.603708 -4.46718 5.53806 -0.200359 -4.77791 5.8244 -0.986407 
-5.05804 5.8799 -1.60964 -3.10692 5.74144 1.23577 -3.36088 5.87751 0.470156 
-3.57254 5.99481 -0.294332 -3.81725 6.11263 -0.880524 -3.99787 5.94206 -1.44448 
-1.96716 6.13798 1.84295 -2.25048 6.13914 1.07692 -2.44434 5.97685 0.268727 
-2.61272 5.97255 -0.302633 -2.7663 6.03247 -0.736232 -2.84061 5.78207 -1.34213 
-0.888278 6.45745 2.41264 -1.12581 6.42121 1.69625 -1.32751 6.04027 0.870224 
[...]
POINT_DATA 1002
FIELD FieldData 4
_paraPhi 1 1002 double
6.2831853072 3.1415926536 6.2831853072 3.1415926536 4.7123889804 4.7123889804 1.5707963268 1.5707963268 3.6951670125 
5.7296109483 2.5880182947 0.5535743589 6.2831853072 6.2831853072 6.2831853072 6.2831853072 3.1415926536 3.1415926536 
3.1415926536 3.1415926536 3.1415926536 6.1053039672 5.898798347 5.6768734901 5.4599499503 5.2659633393 5.1032165617 
4.9713148346 4.8656852733 4.7809517865 0.17788134 0.38438696014 0.60631181711 0.82323535693 1.0172219679 1.1799687454 
1.3118704726 1.4175000338 1.5022335207 6.1892828907 6.1070320098 6.035312792 5.9728339911 5.9183214791 5.8706119594 
5.8286879411 5.7916808611 5.7588591896 0.093902416448 0.17615329733 0.2478725152 0.31035131605 0.36486382811 0.41257334776 
0.45449736604 0.4915044461 0.52432611754 3.3194739936 3.5259796137 3.7479044707 3.9648280105 4.1588146215 4.321561399 
4.4534631262 4.5590926874 4.6438261743 2.9637113136 2.7572056934 2.5352808365 2.3183572967 2.1243706857 1.9616239082 
1.829722181 1.7240926197 1.6393591329 3.23549507 3.3177459509 3.3894651688 3.4519439696 3.5064564817 3.5541660013 
3.5960900196 3.6330970997 3.6659187711 3.0476902371 2.9654393563 2.8937201384 2.8312413375 2.7767288255 2.7290193058 
2.6870952876 2.6500882075 2.617266536 6.2831853072 6.2831853072 6.2831853072 6.2831853072 3.1415926536 3.1415926536 
3.1415926536 3.1415926536 3.1415926536 6.1053039672 5.898798347 5.6768734901 5.4599499503 5.2659633393 5.1032165617 
4.9713148346 4.8656852733 4.7809517865 0.17788134 0.38438696014 0.60631181711 0.82323535693 1.0172219679 1.1799687454 
1.3118704726 1.4175000338 1.5022335207 6.1892828907 6.1070320098 6.035312792 5.9728339911 5.9183214791 5.8706119594 
5.8286879411 5.7916808611 5.7588591896 0.093902416448 0.17615329733 0.2478725152 0.31035131605 0.36486382811 0.41257334776 
0.45449736604 0.4915044461 0.52432611754 3.3194739936 3.5259796137 3.7479044707 3.9648280105 4.1588146215 4.321561399 
4.4534631262 4.5590926874 4.6438261743 2.9637113136 2.7572056934 2.5352808365 2.3183572967 2.1243706857 1.9616239082 
1.829722181 1.7240926197 1.6393591329 3.23549507 3.3177459509 3.3894651688 3.4519439696 3.5064564817 3.5541660013 
3.5960900196 3.6330970997 3.6659187711 3.0476902371 2.9654393563 2.8937201384 2.8312413375 2.7767288255 2.7290193058 
2.6870952876 2.6500882075 2.617266536 4.7123889804 4.7123889804 4.7123889804 4.7123889804 4.7123889804 4.7123889804 
4.7123889804 4.7123889804 4.7123889804 4.6087898617 4.4991390697 4.3857031936 4.2712800401 4.1588146215 4.0509635631 
3.94975894 3.8564636551 3.7716124825 4.8159880991 4.9256388911 5.0390747672 5.1534979207 5.2659633393 5.3738143976 
5.4750190208 5.5683143056 5.6531654782 4.6087898617 4.4991390697 4.3857031936 4.2712800401 4.1588146215 4.0509635631 
3.94975894 3.8564636551 3.7716124825 4.8159880991 4.9256388911 5.0390747672 5.1534979207 5.2659633393 5.3738143976 
5.4750190208 5.5683143056 5.6531654782 1.5707963268 1.5707963268 1.5707963268 1.5707963268 1.5707963268 1.5707963268 
1.5707963268 1.5707963268 1.5707963268 1.6743954455 1.7840462375 1.8974821136 2.0119052671 2.1243706857 2.232221744 
2.3334263672 2.426721652 2.5115728246 1.4671972081 1.3575464161 1.24411054 1.1296873865 1.0172219679 0.90937090954 
0.80816628637 0.71487100155 0.63001982895 1.6743954455 1.7840462375 1.8974821136 2.0119052671 2.1243706857 2.232221744 
2.3334263672 2.426721652 2.5115728246 1.4671972081 1.3575464161 1.24411054 1.1296873865 1.0172219679 0.90937090954 
0.80816628637 0.71487100155 0.63001982895 3.6007720849 3.4966939854 3.3839471039 3.2645756454 3.1415926536 3.0186096618 
2.8992382033 2.7864913217 2.6824132222 5.8240058758 5.9280839753 6.0408308569 6.1602023154 6.2831853072 0.12298299178 
0.2423544503 0.35510133185 0.45917943135 6.0560271438 5.7885595667 5.9702140275 5.5125918794 5.6029703303 5.7885595667 
5.2659633393 5.2659633393 5.2659633393 5.2659633393 5.0674903122 5.0120975802 4.9155579264 4.7123889804 4.1588146215 
4.9155579264 4.8353719722 4.7123889804 4.5092200343 4.1588146215 3.6362183941 4.8004512023 4.7123889804 4.5894059886 
4.4126803806 4.1588146215 3.8218076305 3.4545639333 4.7123889804 4.6243267584 4.5092200343 4.3572876485 4.1588146215 
3.9121860814 3.6362183941 3.368750817 6.0174235957 5.9434319871 5.8263323547 5.8809213739 5.7674481418 5.6279784266 
5.8278025282 5.718968232 5.5891129425 5.4372443565 5.7823484065 5.678536687 5.5575666702 5.4192596322 5.2659633393 
5.743164462 5.6444075337 5.5314983644 5.4046708639 5.2659633393 5.1195510325 5.7091357773 5.6152775188 5.5096229709 
5.3926039573 5.2659633393 5.1329233157 4.9978930058 5.6793730533 5.5901633916 5.4910209005 5.3824597928 5.2659633393 
5.1440684722 5.0201624502 4.8979782167 5.5683143056 5.4750190208 5.4750190208 5.3738143976 5.3738143976 5.3738143976 
5.2659633393 5.2659633393 5.2659633393 5.2659633393 5.1534979207 5.1534979207 5.1534979207 5.1534979207 5.1534979207 
5.0390747672 5.0390747672 5.0390747672 5.0390747672 5.0390747672 5.0390747672 4.9256388911 4.9256388911 4.9256388911 
4.9256388911 4.9256388911 4.9256388911 4.9256388911 4.8159880991 4.8159880991 4.8159880991 4.8159880991 4.8159880991 
4.8159880991 4.8159880991 4.8159880991 4.6087898617 4.6087898617 4.4991390697 4.6087898617 4.4991390697 4.3857031936 
4.6087898617 4.4991390697 4.3857031936 4.2712800401 4.6087898617 4.4991390697 4.3857031936 4.2712800401 4.1588146215 
4.6087898617 4.4991390697 4.3857031936 4.2712800401 4.1588146215 4.0509635631 4.6087898617 4.4991390697 4.3857031936 
4.2712800401 4.1588146215 4.0509635631 3.94975894 4.6087898617 4.4991390697 4.3857031936 4.2712800401 4.1588146215 
4.0509635631 3.94975894 3.8564636551 4.526799744 4.4046155105 4.426884955 4.2807094886 4.2918546451 4.3052269283 
4.1588146215 4.1588146215 4.1588146215 4.1588146215 4.042318168 4.0321740035 4.0201070968 4.0055183285 3.9875336042 
3.9337570603 3.9151549899 3.8932795963 3.8672112905 3.8356650183 3.7967995342 3.8346145692 3.809500442 3.7803704271 
3.7462412737 3.7058097288 3.657329819 3.5984456061 3.7454049075 3.7156421835 3.6816134988 3.6424295543 3.5969754326 
3.5438565869 3.4813459737 3.4073543651 3.5642842451 3.4524645613 3.5233842518 3.3320300872 3.403123212 3.4773852225 
3.20576226 3.2746326772 3.348015857 3.4255060145 3.0774230472 3.1415926536 3.2112816139 3.2864685043 3.3668817272 
2.95115522 3.00855263 3.0719036933 3.1415926536 3.2178377658 3.3005964304 2.8307207459 2.8800620952 2.9351694502 
2.9967168029 3.0653475414 3.1415926536 3.225752376 2.718901062 2.7598010554 2.8058000847 2.8576792927 2.91630358 
2.9825888767 3.0574329311 3.1415926536 3.5642842451 3.5233842518 3.4524645613 3.4773852225 3.403123212 3.3320300872 
3.4255060145 3.348015857 3.2746326772 3.20576226 3.3668817272 3.2864685043 3.2112816139 3.1415926536 3.0774230472 
3.3005964304 3.2178377658 3.1415926536 3.0719036933 3.00855263 2.95115522 3.225752376 3.1415926536 3.0653475414 
2.9967168029 2.9351694502 2.8800620952 2.8307207459 3.1415926536 3.0574329311 2.9825888767 2.91630358 2.8576792927 
2.8058000847 2.7598010554 2.718901062 4.526799744 4.426884955 4.4046155105 4.3052269283 4.2918546451 4.2807094886 
4.1588146215 4.1588146215 4.1588146215 4.1588146215 3.9875336042 4.0055183285 4.0201070968 4.0321740035 4.042318168 
3.7967995342 3.8356650183 3.8672112905 3.8932795963 3.9151549899 3.9337570603 3.5984456061 3.657329819 3.7058097288 
3.7462412737 3.7803704271 3.809500442 3.8346145692 3.4073543651 3.4813459737 3.5438565869 3.5969754326 3.6424295543 
3.6816134988 3.7156421835 3.7454049075 4.7123889804 4.8004512023 4.6243267584 4.9155579264 4.7123889804 4.5092200343 
5.0674903122 4.8353719722 4.5894059886 4.3572876485 5.2659633393 5.0120975802 4.7123889804 4.4126803806 4.1588146215 
5.5125918794 5.2659633393 4.9155579264 4.5092200343 4.1588146215 3.9121860814 5.7885595667 5.6029703303 5.2659633393 
4.7123889804 4.1588146215 3.8218076305 3.6362183941 6.0560271438 5.9702140275 5.7885595667 5.2659633393 4.1588146215 
3.6362183941 3.4545639333 3.368750817 0.22715816343 0.49462574053 0.3129712797 0.77059342779 0.68021497688 0.49462574053 
1.0172219679 1.0172219679 1.0172219679 1.0172219679 1.2156949949 1.271087727 1.3676273807 1.5707963268 2.1243706857 
1.3676273807 1.447813335 1.5707963268 1.7739652728 2.1243706857 2.6469669131 1.4827341049 1.5707963268 1.6937793186 
1.8705049266 2.1243706857 2.4613776767 2.8286213739 1.5707963268 1.6588585487 1.7739652728 1.9258976586 2.1243706857 
2.3709992258 2.6469669131 2.9144344902 1.7563855631 1.8785697967 1.8563003522 2.0024758186 1.9913306621 1.9779583789 
2.1243706857 2.1243706857 2.1243706857 2.1243706857 2.2408671392 2.2510113037 2.2630782103 2.2776669786 2.295651703 
2.3494282469 2.3680303173 2.3899057108 2.4159740166 2.4475202889 2.486385773 2.448570738 2.4736848652 2.5028148801 
2.5369440334 2.5773755784 2.6258554882 2.6847397011 2.5377803997 2.5675431237 2.6015718084 2.6407557529 2.6862098746 
2.7393287203 2.8018393335 2.8758309421 1.6743954455 1.6743954455 1.7840462375 1.6743954455 1.7840462375 1.8974821136 
1.6743954455 1.7840462375 1.8974821136 2.0119052671 1.6743954455 1.7840462375 1.8974821136 2.0119052671 2.1243706857 
1.6743954455 1.7840462375 1.8974821136 2.0119052671 2.1243706857 2.232221744 1.6743954455 1.7840462375 1.8974821136 
2.0119052671 2.1243706857 2.232221744 2.3334263672 1.6743954455 1.7840462375 1.8974821136 2.0119052671 2.1243706857 
2.232221744 2.3334263672 2.426721652 1.4671972081 1.3575464161 1.4671972081 1.24411054 1.3575464161 1.4671972081 
1.1296873865 1.24411054 1.3575464161 1.4671972081 1.0172219679 1.1296873865 1.24411054 1.3575464161 1.4671972081 
0.90937090954 1.0172219679 1.1296873865 1.24411054 1.3575464161 1.4671972081 0.80816628637 0.90937090954 1.0172219679 
1.1296873865 1.24411054 1.3575464161 1.4671972081 0.71487100155 0.80816628637 0.90937090954 1.0172219679 1.1296873865 
1.24411054 1.3575464161 1.4671972081 0.60381225391 0.57404952988 0.69302191562 0.54002084522 0.66790778838 0.79216440667 
0.50083690068 0.63877777351 0.77356233629 0.90072551443 0.45538277901 0.60464862014 0.75168694275 0.89058134991 1.0172219679 
0.40226393329 0.56421707518 0.72561863695 0.87851444325 1.0172219679 1.139116835 0.33975332011 0.51573716537 0.69407236469 
0.86392567495 1.0172219679 1.1502619915 1.2630228569 0.26576171152 0.45685295248 0.6552068806 0.84594095064 1.0172219679 
1.1636342747 1.2852923014 1.3852070904 0.22715816343 0.3129712797 0.49462574053 0.49462574053 0.68021497688 0.77059342779 
1.0172219679 1.0172219679 1.0172219679 1.0172219679 2.1243706857 1.5707963268 1.3676273807 1.271087727 1.2156949949 
2.6469669131 2.1243706857 1.7739652728 1.5707963268 1.447813335 1.3676273807 2.8286213739 2.4613776767 2.1243706857 
1.8705049266 1.6937793186 1.5707963268 1.4827341049 2.9144344902 2.6469669131 2.3709992258 2.1243706857 1.9258976586 
1.7739652728 1.6588585487 1.5707963268 1.7563855631 1.8563003522 1.8785697967 1.9779583789 1.9913306621 2.0024758186 
2.1243706857 2.1243706857 2.1243706857 2.1243706857 2.295651703 2.2776669786 2.2630782103 2.2510113037 2.2408671392 
2.486385773 2.4475202889 2.4159740166 2.3899057108 2.3680303173 2.3494282469 2.6847397011 2.6258554882 2.5773755784 
2.5369440334 2.5028148801 2.4736848652 2.448570738 2.8758309421 2.8018393335 2.7393287203 2.6862098746 2.6407557529 
2.6015718084 2.5675431237 2.5377803997 5.8604937156 5.901393709 5.9723133995 5.9473927383 6.0216547488 6.0927478736 
5.9992719463 6.0767621038 6.1501452836 6.2190157008 6.0578962336 6.1383094565 6.2134963469 0 0.064169606361 
6.1241815303 6.206940195 6.2831853072 0.069688960264 0.13304002361 0.19043743361 6.1990255847 0 0.07624511221 
0.14487585072 0.20642320337 0.26153055843 0.3108719077 0 0.084159722458 0.15900377685 0.22528907359 0.28391336087 
0.3357925689 0.38179159818 0.42269159155 5.8604937156 5.9723133995 5.901393709 6.0927478736 6.0216547488 5.9473927383 
6.2190157008 6.1501452836 6.0767621038 5.9992719463 0.064169606361 0 6.2134963469 6.1383094565 6.0578962336 
0.19043743361 0.13304002361 0.069688960264 6.2831853072 6.206940195 6.1241815303 0.3108719077 0.26153055843 0.20642320337 
0.14487585072 0.07624511221 6.2831853072 6.1990255847 0.42269159155 0.38179159818 0.3357925689 0.28391336087 0.22528907359 
0.15900377685 0.084159722458 0 5.6793730533 5.7091357773 5.5901633916 5.743164462 5.6152775188 5.4910209005 
5.7823484065 5.6444075337 5.5096229709 5.3824597928 5.8278025282 5.678536687 5.5314983644 5.3926039573 5.2659633393 
5.8809213739 5.718968232 5.5575666702 5.4046708639 5.2659633393 5.1440684722 5.9434319871 5.7674481418 5.5891129425 
5.4192596322 5.2659633393 5.1329233157 5.0201624502 6.0174235957 5.8263323547 5.6279784266 5.4372443565 5.2659633393 
5.1195510325 4.9978930058 4.8979782167 1.3852070904 1.2852923014 1.2630228569 1.1636342747 1.1502619915 1.139116835 
1.0172219679 1.0172219679 1.0172219679 1.0172219679 0.84594095064 0.86392567495 0.87851444325 0.89058134991 0.90072551443 
0.6552068806 0.69407236469 0.72561863695 0.75168694275 0.77356233629 0.79216440667 0.45685295248 0.51573716537 0.56421707518 
0.60464862014 0.63877777351 0.66790778838 0.69302191562 0.26576171152 0.33975332011 0.40226393329 0.45538277901 0.50083690068 
0.54002084522 0.57404952988 0.60381225391 
_paraPhiHalf 1 1002 double
0 3.1415926536 0 3.1415926536 1.5707963268 1.5707963268 1.5707963268 1.5707963268 2.5880182947 
0.5535743589 2.5880182947 0.5535743589 0 0 0 0 3.1415926536 3.1415926536 
3.1415926536 3.1415926536 3.1415926536 0.17788134 0.38438696014 0.60631181711 0.82323535693 1.0172219679 1.1799687454 
1.3118704726 1.4175000338 1.5022335207 0.17788134 0.38438696014 0.60631181711 0.82323535693 1.0172219679 1.1799687454 
1.3118704726 1.4175000338 1.5022335207 0.093902416448 0.17615329733 0.2478725152 0.31035131605 0.36486382811 0.41257334776 
0.45449736604 0.4915044461 0.52432611754 0.093902416448 0.17615329733 0.2478725152 0.31035131605 0.36486382811 0.41257334776 
0.45449736604 0.4915044461 0.52432611754 2.9637113136 2.7572056934 2.5352808365 2.3183572967 2.1243706857 1.9616239082 
1.829722181 1.7240926197 1.6393591329 2.9637113136 2.7572056934 2.5352808365 2.3183572967 2.1243706857 1.9616239082 
1.829722181 1.7240926197 1.6393591329 3.0476902371 2.9654393563 2.8937201384 2.8312413375 2.7767288255 2.7290193058 
2.6870952876 2.6500882075 2.617266536 3.0476902371 2.9654393563 2.8937201384 2.8312413375 2.7767288255 2.7290193058 
2.6870952876 2.6500882075 2.617266536 0 0 0 0 3.1415926536 3.1415926536 
3.1415926536 3.1415926536 3.1415926536 0.17788134 0.38438696014 0.60631181711 0.82323535693 1.0172219679 1.1799687454 
1.3118704726 1.4175000338 1.5022335207 0.17788134 0.38438696014 0.60631181711 0.82323535693 1.0172219679 1.1799687454 
1.3118704726 1.4175000338 1.5022335207 0.093902416448 0.17615329733 0.2478725152 0.31035131605 0.36486382811 0.41257334776 
0.45449736604 0.4915044461 0.52432611754 0.093902416448 0.17615329733 0.2478725152 0.31035131605 0.36486382811 0.41257334776 
0.45449736604 0.4915044461 0.52432611754 2.9637113136 2.7572056934 2.5352808365 2.3183572967 2.1243706857 1.9616239082 
1.829722181 1.7240926197 1.6393591329 2.9637113136 2.7572056934 2.5352808365 2.3183572967 2.1243706857 1.9616239082 
1.829722181 1.7240926197 1.6393591329 3.0476902371 2.9654393563 2.8937201384 2.8312413375 2.7767288255 2.7290193058 
2.6870952876 2.6500882075 2.617266536 3.0476902371 2.9654393563 2.8937201384 2.8312413375 2.7767288255 2.7290193058 
2.6870952876 2.6500882075 2.617266536 1.5707963268 1.5707963268 1.5707963268 1.5707963268 1.5707963268 1.5707963268 
1.5707963268 1.5707963268 1.5707963268 1.6743954455 1.7840462375 1.8974821136 2.0119052671 2.1243706857 2.232221744 
2.3334263672 2.426721652 2.5115728246 1.4671972081 1.3575464161 1.24411054 1.1296873865 1.0172219679 0.90937090954 
0.80816628637 0.71487100155 0.63001982895 1.6743954455 1.7840462375 1.8974821136 2.0119052671 2.1243706857 2.232221744 
2.3334263672 2.426721652 2.5115728246 1.4671972081 1.3575464161 1.24411054 1.1296873865 1.0172219679 0.90937090954 
0.80816628637 0.71487100155 0.63001982895 1.5707963268 1.5707963268 1.5707963268 1.5707963268 1.5707963268 1.5707963268 
1.5707963268 1.5707963268 1.5707963268 1.6743954455 1.7840462375 1.8974821136 2.0119052671 2.1243706857 2.232221744 
2.3334263672 2.426721652 2.5115728246 1.4671972081 1.3575464161 1.24411054 1.1296873865 1.0172219679 0.90937090954 
0.80816628637 0.71487100155 0.63001982895 1.6743954455 1.7840462375 1.8974821136 2.0119052671 2.1243706857 2.232221744 
2.3334263672 2.426721652 2.5115728246 1.4671972081 1.3575464161 1.24411054 1.1296873865 1.0172219679 0.90937090954 
0.80816628637 0.71487100155 0.63001982895 2.6824132222 2.7864913217 2.8992382033 3.0186096618 3.1415926536 3.0186096618 
2.8992382033 2.7864913217 2.6824132222 0.45917943135 0.35510133185 0.2423544503 0.12298299178 0 0.12298299178 
0.2423544503 0.35510133185 0.45917943135 0.22715816343 0.49462574053 0.3129712797 0.77059342779 0.68021497688 0.49462574053 
1.0172219679 1.0172219679 1.0172219679 1.0172219679 1.2156949949 1.271087727 1.3676273807 1.5707963268 2.1243706857 
1.3676273807 1.447813335 1.5707963268 1.7739652728 2.1243706857 2.6469669131 1.4827341049 1.5707963268 1.6937793186 
1.8705049266 2.1243706857 2.4613776767 2.8286213739 1.5707963268 1.6588585487 1.7739652728 1.9258976586 2.1243706857 
2.3709992258 2.6469669131 2.9144344902 0.26576171152 0.33975332011 0.45685295248 0.40226393329 0.51573716537 0.6552068806 
0.45538277901 0.56421707518 0.69407236469 0.84594095064 0.50083690068 0.60464862014 0.72561863695 0.86392567495 1.0172219679 
0.54002084522 0.63877777351 0.75168694275 0.87851444325 1.0172219679 1.1636342747 0.57404952988 0.66790778838 0.77356233629 
0.89058134991 1.0172219679 1.1502619915 1.2852923014 0.60381225391 0.69302191562 0.79216440667 0.90072551443 1.0172219679 
1.139116835 1.2630228569 1.3852070904 0.71487100155 0.80816628637 0.80816628637 0.90937090954 0.90937090954 0.90937090954 
1.0172219679 1.0172219679 1.0172219679 1.0172219679 1.1296873865 1.1296873865 1.1296873865 1.1296873865 1.1296873865 
1.24411054 1.24411054 1.24411054 1.24411054 1.24411054 1.24411054 1.3575464161 1.3575464161 1.3575464161 
1.3575464161 1.3575464161 1.3575464161 1.3575464161 1.4671972081 1.4671972081 1.4671972081 1.4671972081 1.4671972081 
1.4671972081 1.4671972081 1.4671972081 1.6743954455 1.6743954455 1.7840462375 1.6743954455 1.7840462375 1.8974821136 
1.6743954455 1.7840462375 1.8974821136 2.0119052671 1.6743954455 1.7840462375 1.8974821136 2.0119052671 2.1243706857 
1.6743954455 1.7840462375 1.8974821136 2.0119052671 2.1243706857 2.232221744 1.6743954455 1.7840462375 1.8974821136 
2.0119052671 2.1243706857 2.232221744 2.3334263672 1.6743954455 1.7840462375 1.8974821136 2.0119052671 2.1243706857 
2.232221744 2.3334263672 2.426721652 1.7563855631 1.8785697967 1.8563003522 2.0024758186 1.9913306621 1.9779583789 
2.1243706857 2.1243706857 2.1243706857 2.1243706857 2.2408671392 2.2510113037 2.2630782103 2.2776669786 2.295651703 
2.3494282469 2.3680303173 2.3899057108 2.4159740166 2.4475202889 2.486385773 2.448570738 2.4736848652 2.5028148801 
2.5369440334 2.5773755784 2.6258554882 2.6847397011 2.5377803997 2.5675431237 2.6015718084 2.6407557529 2.6862098746 
2.7393287203 2.8018393335 2.8758309421 2.718901062 2.8307207459 2.7598010554 2.95115522 2.8800620952 2.8058000847 
3.0774230472 3.00855263 2.9351694502 2.8576792927 3.0774230472 3.1415926536 3.0719036933 2.9967168029 2.91630358 
2.95115522 3.00855263 3.0719036933 3.1415926536 3.0653475414 2.9825888767 2.8307207459 2.8800620952 2.9351694502 
2.9967168029 3.0653475414 3.1415926536 3.0574329311 2.718901062 2.7598010554 2.8058000847 2.8576792927 2.91630358 
2.9825888767 3.0574329311 3.1415926536 2.718901062 2.7598010554 2.8307207459 2.8058000847 2.8800620952 2.95115522 
2.8576792927 2.9351694502 3.00855263 3.0774230472 2.91630358 2.9967168029 3.0719036933 3.1415926536 3.0774230472 
2.9825888767 3.0653475414 3.1415926536 3.0719036933 3.00855263 2.95115522 3.0574329311 3.1415926536 3.0653475414 