# vtk DataFile Version 5.1
vtk output
ASCII
DATASET POLYDATA
POINTS 1002 float
10.6855 38.7052 16.6531 20.9431 46.2117 14.3612 14.3932 34.4147 8.03377 
22.3907 44.5709 8.23382 21.368 37.7984 18.1124 22.8288 35.0901 12.6055 
11.5397 47.0993 11.9632 13.6205 44.6958 6.17539 29.125 45.9984 13.6908 
12.4767 30.912 14.8161 21.8738 53.1538 9.54437 6.12573 36.9672 11.1565 
11.4244 39.4799 16.3629 12.4404 40.1609 15.947 13.6347 40.862 15.5394 
14.7535 41.7772 15.377 15.6612 42.8708 15.5072 16.5433 43.8479 15.621 
17.6299 44.5391 15.4211 18.8567 45.0656 14.9882 19.9978 45.605 14.5904 
11.3207 38.2983 16.3905 12.2436 37.8316 16.0009 13.4766 37.4537 15.77 
14.8514 37.2874 15.9606 16.1734 37.2541 16.4387 17.4206 37.2077 16.791 
18.6251 37.1898 16.9198 19.7193 37.3175 17.1229 20.6305 37.5593 17.5747 
10.5474 39.582 16.5943 10.4149 40.5136 16.3779 10.2541 41.529 16.0368 
10.1002 42.5576 15.5795 10.1146 43.4285 14.9469 10.4379 44.1249 14.1615 
10.9422 44.8459 13.405 11.3286 45.6833 12.8225 11.4812 46.4886 12.3803 
10.4344 37.5878 16.7632 10.2721 36.3747 16.8936 10.1914 35.1662 17.1131 
10.1448 33.983 17.4468 10.1147 32.851 17.8468 10.1763 31.9088 18.0888 
10.4568 31.2854 17.8223 11.0042 30.9683 16.9551 11.7257 30.8717 15.8187 
9.99846 38.3457 16.7804 9.24623 37.8763 16.6508 8.3302 37.4963 16.3192 
7.40733 37.4113 15.9302 6.74689 37.5373 15.5255 6.35375 37.5589 14.9629 
6.05258 37.3503 14.0932 5.84764 37.0908 12.9971 5.86951 36.9626 11.9484 
21.1267 45.7051 14.7634 21.2826 45.1656 15.2593 21.4447 44.5528 15.7588 
21.6182 43.8641 16.2154 21.7656 43.0745 16.6037 21.8393 42.0884 16.8776 
21.8056 40.9036 17.0777 21.67 39.7065 17.3437 21.4977 38.6707 17.7235 
20.1359 46.3557 14.1386 19.1688 46.5137 13.8936 18.12 46.5648 13.4952 
17.1324 46.4395 12.8833 16.2072 46.253 12.2173 15.2107 46.2225 11.8008 
14.1393 46.4359 11.78 13.1343 46.7702 11.9791 12.2736 47.0286 12.0936 
21.9541 46.5859 14.4726 23.0491 47.0261 14.6868 24.2309 47.4154 14.9468 
25.4065 47.6635 15.1819 26.4574 47.7701 15.3532 27.3821 47.7233 15.3926 
28.2164 47.4534 15.1963 28.8654 46.9776 14.7567 29.1789 46.4464 14.2045 
21.329 47.0001 14.132 21.7212 47.9355 13.9959 22.1461 48.8677 13.7497 
22.5264 49.652 13.2525 22.7313 50.3907 12.7397 22.7297 51.2675 12.4647 
22.5863 52.1646 12.1737 22.3587 52.8005 11.4932 22.099 53.0964 10.503 
15.2075 35.3285 8.08582 15.963 36.2955 8.1532 16.7505 37.2229 8.16785 
17.646 38.1231 8.0703 18.5602 39.0838 7.90804 19.3693 40.1655 7.82046 
20.1203 41.349 7.87116 20.9091 42.5411 7.99316 21.6987 43.6326 8.11466 
15.1566 34.2421 8.27963 15.9444 34.157 8.64964 16.8442 34.0811 9.13134 
17.9146 33.9906 9.66776 19.0695 33.9593 10.1588 20.1848 34.0456 10.5646 
21.2 34.2159 10.9739 22.0233 34.4308 11.4761 22.5545 34.7114 12.0459 
14.1474 35.298 7.89881 13.8897 36.366 7.78444 13.6529 37.4452 7.59693 
13.4654 38.4056 7.24348 13.3249 39.3048 6.71853 13.2329 40.2936 6.19048 
13.2193 41.4089 5.91425 13.2991 42.5618 5.95557 13.4464 43.6672 6.11595 
13.9848 33.4665 8.16517 13.5703 32.6894 8.41646 13.2376 32.0613 8.75058 
13.0019 31.4607 9.17591 12.8051 30.9866 9.8809 12.6206 30.8838 10.9478 
12.476 31.0637 12.1061 12.3974 31.1685 13.1007 12.3974 31.0657 13.9733 
13.2653 34.073 7.93086 11.9195 33.8635 7.91029 10.5614 33.8393 8.01798 
9.44032 34.0202 8.33007 8.62413 34.4148 8.87863 7.97764 34.9571 9.53662 
7.38346 35.4851 10.0932 6.85333 35.9223 10.476 6.43291 36.3747 10.7903 
22.6121 43.6442 8.38788 22.7787 42.6591 8.62089 22.7984 41.7792 9.08053 
22.6284 40.9823 9.77221 22.4157 40.0258 10.4713 22.4046 38.8374 10.9803 
22.6174 37.6801 11.3488 22.8274 36.7426 11.7207 22.8795 35.924 12.1473 
21.7051 44.86 8.01494 20.9146 45.0487 7.77382 20.0713 45.1147 7.40212 
19.2056 45.1002 6.84253 18.3632 45.0421 6.20235 17.5653 44.9602 5.71717 
16.7136 44.8954 5.55055 15.7071 44.8588 5.66665 14.6192 44.8024 5.91496 
23.1258 44.9174 8.54811 23.7682 45.3035 9.07457 24.3422 45.7447 9.75019 
24.9832 46.1851 10.4192 25.8425 46.4984 11.0194 26.9167 46.5913 11.5994 
27.9849 46.4992 12.1502 28.7621 46.3369 12.6405 29.1176 46.1743 13.1327 
22.635 45.6367 8.1821 22.8618 46.7193 8.07091 23.0875 47.8548 7.95796 
23.3933 49.0395 7.88784 23.7454 50.1837 7.8612 23.8581 51.2134 7.90786 
23.5106 52.0987 8.09913 22.8738 52.7645 8.4691 22.281 53.1194 8.97992 
21.788 37.3541 18.5986 22.3267 36.754 18.8255 22.838 36.1112 18.5519 
23.1391 35.6411 17.8036 23.2328 35.3667 16.8421 23.2425 35.0937 15.8663 
23.1947 34.798 14.9204 23.0719 34.6843 14.0387 22.9308 34.8295 13.2674 
22.0521 38.5928 18.2476 22.7194 39.644 18.028 23.701 41.0049 17.6634 
25.312 42.3451 17.6102 27.1699 43.1423 17.8241 28.3717 43.3949 17.602 
28.6377 43.6746 16.6031 28.5739 44.335 15.3191 28.741 45.2049 14.3152 
20.8107 36.7959 18.0559 20.1885 35.6394 17.8719 19.5747 34.3844 17.7087 
18.9762 33.2647 17.519 18.2905 32.4444 17.0983 17.3695 31.8429 16.506 
16.1549 31.3446 16.0081 14.7868 30.9924 15.6418 13.5124 30.8614 15.2614 
23.0126 36.1782 12.8885 23.253 37.4897 13.2221 23.8405 38.86 13.5165 
24.8076 40.1213 13.6227 25.7541 41.2798 13.5066 26.4088 42.423 13.3564 
27.007 43.4962 13.3527 27.7685 44.4025 13.4561 28.5453 45.1969 13.564 
22.614 33.929 12.7689 22.4298 32.7187 12.9211 22.3452 31.6506 12.9555 
22.0375 31.0126 12.9661 20.9836 30.8812 13.2056 19.1795 30.9737 13.6581 
17.1831 31.0041 14.0071 15.4017 30.9606 14.1591 13.8543 30.9278 14.3631 
11.2186 47.3123 11.4227 11.0473 47.3785 10.6221 11.0143 47.39 9.58461 
11.0461 47.4333 8.43398 11.18 47.419 7.38952 11.5404 47.1624 6.68283 
12.0962 46.6265 6.37914 12.6689 45.948 6.31642 13.165 45.2789 6.28048 
12.12 47.5452 11.5782 13.0433 47.8863 10.9413 14.4587 48.2519 10.1883 
16.1293 48.7769 9.69154 17.6225 49.4482 9.66091 18.7958 50.194 9.82922 
19.7531 51.0437 9.84348 20.538 51.97 9.71007 21.2005 52.7474 9.59846 
10.7541 46.6348 11.8749 9.87866 45.8782 11.6798 9.06802 44.8399 11.5771 
8.37761 43.6759 11.6024 7.58546 42.6509 11.5686 6.65022 41.8289 11.3919 
5.98488 40.9168 11.2227 5.84761 39.6707 11.1659 5.99768 38.2448 11.1655 
14.4135 45.7853 5.91428 15.3119 46.9186 5.55351 16.255 48.0775 5.25937 
17.1647 49.151 5.18515 18.0759 50.0164 5.46858 19.0458 50.7559 6.18379 
19.9575 51.5391 7.13868 20.6758 52.3126 8.01755 21.268 52.8772 8.76651 
12.5929 43.8795 6.41068 11.6031 42.9879 6.59759 10.6682 42.176 6.83719 
9.70278 41.4571 7.29836 8.66882 40.6805 8.00615 7.74241 39.8239 8.7721 
7.12384 39.0429 9.42942 6.75299 38.3725 9.99158 6.43821 37.6968 10.5496 
29.623 46.9891 13.5615 29.8531 48.0265 13.5166 29.5053 49.0909 13.4115 
28.5615 50.1791 13.1408 27.3916 51.1779 12.7232 26.3135 51.9405 12.2 
25.2478 52.4951 11.5553 24.0497 52.9359 10.8188 22.8511 53.1989 10.1126 
11.0913 30.9545 14.92 9.68898 30.9614 14.9949 8.40926 30.986 14.8905 
7.46062 31.1912 14.5437 6.85185 31.7164 13.9965 6.37327 32.5339 13.3284 
5.98394 33.5219 12.6405 5.84687 34.6138 12.0387 5.96092 35.7848 11.5582 
12.3006 39.0885 16.0809 13.4545 38.7075 15.8638 13.5416 39.923 15.8513 
14.7084 38.4617 15.9929 14.7359 39.778 16.0439 14.7737 40.921 15.8439 
15.8452 38.3894 16.4763 15.7605 39.7211 16.5483 15.7891 41.0132 16.4371 
15.7418 42.0584 16.0406 16.9617 38.3694 16.9136 16.6798 39.6963 17.0271 
16.6294 41.0002 16.9509 16.6184 42.1317 16.623 16.5554 43.0783 16.1562 
18.2778 38.3199 17.0275 17.9169 39.6332 17.1456 17.6959 40.9026 17.0551 
17.6052 41.9814 16.7266 17.5531 42.9414 16.3398 17.5534 43.823 15.9407 
19.6511 38.3248 17.0534 19.4825 39.5542 17.0454 19.2485 40.8145 16.9044 
19.0231 41.8725 16.5447 18.8538 42.7609 16.151 18.7798 43.6234 15.846 
18.807 44.4222 15.4894 20.7508 38.4574 17.301 20.8361 39.5631 17.0866 
20.8022 40.8019 16.8797 20.6376 41.9322 16.565 20.4109 42.8375 16.1702 
20.2165 43.6288 15.819 20.1118 44.3789 15.481 20.0673 45.0407 15.0562 
11.0836 37.1165 16.4445 10.9705 35.876 16.5566 12.0666 36.648 16.002 
10.9723 34.6714 16.7627 12.0305 35.5006 16.0973 13.4549 36.3766 15.7891 
11.0377 33.5317 17.0272 12.1048 34.4189 16.2112 13.5608 35.4015 15.8813 
15.0789 36.3229 16.0294 11.1693 32.5397 17.2829 12.263 33.4076 16.2781 
13.7228 34.4466 15.87 15.3724 35.4194 16.0969 16.6381 36.2791 16.475 
11.4742 31.8016 17.3302 12.5958 32.5564 16.3563 13.9888 33.5048 15.8029 
15.6311 34.4674 16.0495 17.0425 35.3225 16.5174 17.9441 36.1935 16.7734 
12.0359 31.3036 16.9232 13.2096 31.8891 16.3675 14.5307 32.6613 15.8936 
15.9918 33.4991 16.0771 17.3382 34.3337 16.6033 18.3021 35.2329 16.9041 
19.0069 36.2531 17.0084 12.7722 30.9915 16.1223 14.0141 31.3544 16.121 
15.3377 31.9284 16.0496 16.6142 32.6012 16.3107 17.7252 33.3444 16.8396 
18.5859 34.2567 17.1993 19.2692 35.3607 17.3268 19.9388 36.5063 17.4468 
15.12 30.8513 14.9314 16.8952 30.9139 14.8763 16.6025 30.959 15.5802 
18.8095 31.0223 14.7733 18.429 31.0253 15.7115 17.9749 31.2664 16.3274 
20.6905 31.0486 14.4068 20.1418 31.1622 15.6208 19.5541 31.2951 16.5893 
18.9351 31.7185 17.0917 22.0814 31.0556 14.0125 21.5941 31.2925 15.2613 
20.8774 31.4754 16.4482 20.1911 31.77 17.3071 19.5486 32.4043 17.6447 
22.6803 31.3954 13.8343 22.5283 31.5627 14.9446 21.9744 31.8468 16.1001 
21.3313 32.1272 17.1046 20.7143 32.6528 17.766 20.1024 33.4919 17.9394 
22.7734 32.2739 13.7256 22.8919 32.2472 14.7175 22.6973 32.5295 15.7828 
22.3332 32.847 16.7894 21.9022 33.2623 17.6436 21.3472 33.9826 18.1679 
20.7193 34.8712 18.2074 22.8146 33.5141 13.5138 22.9827 33.3647 14.406 
23.0261 33.5614 15.3992 22.9531 33.8888 16.4015 22.8046 34.208 17.3662 
22.4868 34.6988 18.1851 21.9362 35.4434 18.6054 21.3132 36.2105 18.4999 
22.4831 38.1411 18.5918 22.9537 37.5896 18.5493 23.1809 39.2336 18.0842 
23.2782 37.1158 17.9903 23.5357 38.7805 17.7546 24.2643 40.6537 17.479 
23.4132 36.849 17.0938 23.6817 38.4465 17.0736 24.4908 40.2452 17.0032 
25.887 41.986 17.316 23.4873 36.6469 16.1346 23.8019 38.2321 16.2669 
24.4966 39.8895 16.3358 25.8417 41.5364 16.6823 27.4194 42.7748 17.3187 
23.5069 36.363 15.2165 23.9663 37.9823 15.4748 24.6155 39.5676 15.6393 
25.6056 41.0968 15.8444 26.9394 42.3698 16.2977 28.133 43.1737 16.717 
[...]
POINT_DATA 1002
FIELD FieldData 4
_paraPhi 1 1002 double
6.2831853072 3.1415926536 6.2831853072 3.1415926536 4.7123889804 4.7123889804 1.5707963268 1.5707963268 3.6951670125 
5.7296109483 2.5880182947 0.5535743589 6.2831853072 6.2831853072 6.2831853072 6.2831853072 3.1415926536 3.1415926536 
3.1415926536 3.1415926536 3.1415926536 6.1053039672 5.898798347 5.6768734901 5.4599499503 5.2659633393 5.1032165617 
4.9713148346 4.8656852733 4.7809517865 0.17788134 0.38438696014 0.60631181711 0.82323535693 1.0172219679 1.1799687454 
1.3118704726 1.4175000338 1.5022335207 6.1892828907 6.1070320098 6.035312792 5.9728339911 5.9183214791 5.8706119594 
5.8286879411 5.7916808611 5.7588591896 0.093902416448 0.17615329733 0.2478725152 0.31035131605 0.36486382811 0.41257334776 
0.45449736604 0.4915044461 0.52432611754 3.3194739936 3.5259796137 3.7479044707 3.9648280105 4.1588146215 4.321561399 
4.4534631262 4.5590926874 4.6438261743 2.9637113136 2.7572056934 2.5352808365 2.3183572967 2.1243706857 1.9616239082 
1.829722181 1.7240926197 1.6393591329 3.23549507 3.3177459509 3.3894651688 3.4519439696 3.5064564817 3.5541660013 
3.5960900196 3.6330970997 3.6659187711 3.0476902371 2.9654393563 2.8937201384 2.8312413375 2.7767288255 2.7290193058 
2.6870952876 2.6500882075 2.617266536 6.2831853072 6.2831853072 6.2831853072 6.2831853072 3.1415926536 3.1415926536 
3.1415926536 3.1415926536 3.1415926536 6.1053039672 5.898798347 5.6768734901 5.4599499503 5.2659633393 5.1032165617 
4.9713148346 4.8656852733 4.7809517865 0.17788134 0.38438696014 0.60631181711 0.82323535693 1.0172219679 1.1799687454 
1.3118704726 1.4175000338 1.5022335207 6.1892828907 6.1070320098 6.035312792 5.9728339911 5.9183214791 5.8706119594 
5.8286879411 5.7916808611 5.7588591896 0.093902416448 0.17615329733 0.2478725152 0.31035131605 0.36486382811 0.41257334776 
0.45449736604 0.4915044461 0.52432611754 3.3194739936 3.5259796137 3.7479044707 3.9648280105 4.1588146215 4.321561399 
4.4534631262 4.5590926874 4.6438261743 2.9637113136 2.7572056934 2.5352808365 2.3183572967 2.1243706857 1.9616239082 
1.829722181 1.7240926197 1.6393591329 3.23549507 3.3177459509 3.3894651688 3.4519439696 3.5064564817 3.5541660013 
3.5960900196 3.6330970997 3.6659187711 3.0476902371 2.9654393563 2.8937201384 2.8312413375 2.7767288255 2.7290193058 
2.6870952876 2.6500882075 2.617266536 4.7123889804 4.7123889804 4.7123889804 4.7123889804 4.7123889804 4.7123889804 
4.7123889804 4.7123889804 4.7123889804 4.6087898617 4.4991390697 4.3857031936 4.2712800401 4.1588146215 4.0509635631 
3.94975894 3.8564636551 3.7716124825 4.8159880991 4.9256388911 5.0390747672 5.1534979207 5.2659633393 5.3738143976 
5.4750190208 5.5683143056 5.6531654782 4.6087898617 4.4991390697 4.3857031936 4.2712800401 4.1588146215 4.0509635631 
3.94975894 3.8564636551 3.7716124825 4.8159880991 4.9256388911 5.0390747672 5.1534979207 5.2659633393 5.3738143976 
5.4750190208 5.5683143056 5.6531654782 1.5707963268 1.5707963268 1.5707963268 1.5707963268 1.5707963268 1.5707963268 
1.5707963268 1.5707963268 1.5707963268 1.6743954455 1.7840462375 1.8974821136 2.0119052671 2.1243706857 2.232221744 
2.3334263672 2.426721652 2.5115728246 1.4671972081 1.3575464161 1.24411054 1.1296873865 1.0172219679 0.90937090954 
0.80816628637 0.71487100155 0.63001982895 1.6743954455 1.7840462375 1.8974821136 2.0119052671 2.1243706857 2.232221744 
2.3334263672 2.426721652 2.5115728246 1.4671972081 1.3575464161 1.24411054 1.1296873865 1.0172219679 0.90937090954 
0.80816628637 0.71487100155 0.63001982895 3.6007720849 3.4966939854 3.3839471039 3.2645756454 3.1415926536 3.0186096618 
2.8992382033 2.7864913217 2.6824132222 5.8240058758 5.9280839753 6.0408308569 6.1602023154 6.2831853072 0.12298299178 
0.2423544503 0.35510133185 0.45917943135 6.0560271438 5.7885595667 5.9702140275 5.5125918794 5.6029703303 5.7885595667 
5.2659633393 5.2659633393 5.2659633393 5.2659633393 5.0674903122 5.0120975802 4.9155579264 4.7123889804 4.1588146215 
4.9155579264 4.8353719722 4.7123889804 4.5092200343 4.1588146215 3.6362183941 4.8004512023 4.7123889804 4.5894059886 
4.4126803806 4.1588146215 3.8218076305 3.4545639333 4.7123889804 4.6243267584 4.5092200343 4.3572876485 4.1588146215 
3.9121860814 3.6362183941 3.368750817 6.0174235957 5.9434319871 5.8263323547 5.8809213739 5.7674481418 5.6279784266 
5.8278025282 5.718968232 5.5891129425 5.4372443565 5.7823484065 5.678536687 5.5575666702 5.4192596322 5.2659633393 
5.743164462 5.6444075337 5.5314983644 5.4046708639 5.2659633393 5.1195510325 5.7091357773 5.6152775188 5.5096229709 
5.3926039573 5.2659633393 5.1329233157 4.9978930058 5.6793730533 5.5901633916 5.4910209005 5.3824597928 5.2659633393 
5.1440684722 5.0201624502 4.8979782167 5.5683143056 5.4750190208 5.4750190208 5.3738143976 5.3738143976 5.3738143976 
5.2659633393 5.2659633393 5.2659633393 5.2659633393 5.1534979207 5.1534979207 5.1534979207 5.1534979207 5.1534979207 
5.0390747672 5.0390747672 5.0390747672 5.0390747672 5.0390747672 5.0390747672 4.9256388911 4.9256388911 4.9256388911 
4.9256388911 4.9256388911 4.9256388911 4.9256388911 4.8159880991 4.8159880991 4.8159880991 4.8159880991 4.8159880991 
4.8159880991 4.8159880991 4.8159880991 4.6087898617 4.6087898617 4.4991390697 4.6087898617 4.4991390697 4.3857031936 
4.6087898617 4.4991390697 4.3857031936 4.2712800401 4.6087898617 4.4991390697 4.3857031936 4.2712800401 4.1588146215 
4.6087898617 4.4991390697 4.3857031936 4.2712800401 4.1588146215 4.0509635631 4.6087898617 4.4991390697 4.3857031936 
4.2712800401 4.1588146215 4.0509635631 3.94975894 4.6087898617 4.4991390697 4.3857031936 4.2712800401 4.1588146215 
4.0509635631 3.94975894 3.8564636551 4.526799744 4.4046155105 4.426884955 4.2807094886 4.2918546451 4.3052269283 
4.1588146215 4.1588146215 4.1588146215 4.1588146215 4.042318168 4.0321740035 4.0201070968 4.0055183285 3.9875336042 
3.9337570603 3.9151549899 3.8932795963 3.8672112905 3.8356650183 3.7967995342 3.8346145692 3.809500442 3.7803704271 
3.7462412737 3.7058097288 3.657329819 3.5984456061 3.7454049075 3.7156421835 3.6816134988 3.6424295543 3.5969754326 
3.5438565869 3.4813459737 3.4073543651 3.5642842451 3.4524645613 3.5233842518 3.3320300872 3.403123212 3.4773852225 
3.20576226 3.2746326772 3.348015857 3.4255060145 3.0774230472 3.1415926536 3.2112816139 3.2864685043 3.3668817272 
2.95115522 3.00855263 3.0719036933 3.1415926536 3.2178377658 3.3005964304 2.8307207459 2.8800620952 2.9351694502 
2.9967168029 3.0653475414 3.1415926536 3.225752376 2.718901062 2.7598010554 2.8058000847 2.8576792927 2.91630358 
2.9825888767 3.0574329311 3.1415926536 3.5642842451 3.5233842518 3.4524645613 3.4773852225 3.403123212 3.3320300872 
3.4255060145 3.348015857 3.2746326772 3.20576226 3.3668817272 3.2864685043 3.2112816139 3.1415926536 3.0774230472 
3.3005964304 3.2178377658 3.1415926536 3.0719036933 3.00855263 2.95115522 3.225752376 3.1415926536 3.0653475414 
2.9967168029 2.9351694502 2.8800620952 2.8307207459 3.1415926536 3.0574329311 2.9825888767 2.91630358 2.8576792927 
2.8058000847 2.7598010554 2.718901062 4.526799744 4.426884955 4.4046155105 4.3052269283 4.2918546451 4.2807094886 
4.1588146215 4.1588146215 4.1588146215 4.1588146215 3.9875336042 4.0055183285 4.0201070968 4.0321740035 4.042318168 
3.7967995342 3.8356650183 3.8672112905 3.8932795963 3.9151549899 3.9337570603 3.5984456061 3.657329819 3.7058097288 
3.7462412737 3.7803704271 3.809500442 3.8346145692 3.4073543651 3.4813459737 3.5438565869 3.5969754326 3.6424295543 
3.6816134988 3.7156421835 3.7454049075 4.7123889804 4.8004512023 4.6243267584 4.9155579264 4.7123889804 4.5092200343 
5.0674903122 4.8353719722 4.5894059886 4.3572876485 5.2659633393 5.0120975802 4.7123889804 4.4126803806 4.1588146215 
5.5125918794 5.2659633393 4.9155579264 4.5092200343 4.1588146215 3.9121860814 5.7885595667 5.6029703303 5.2659633393 
4.7123889804 4.1588146215 3.8218076305 3.6362183941 6.0560271438 5.9702140275 5.7885595667 5.2659633393 4.1588146215 
3.6362183941 3.4545639333 3.368750817 0.22715816343 0.49462574053 0.3129712797 0.77059342779 0.68021497688 0.49462574053 
1.0172219679 1.0172219679 1.0172219679 1.0172219679 1.2156949949 1.271087727 1.3676273807 1.5707963268 2.1243706857 
1.3676273807 1.447813335 1.5707963268 1.7739652728 2.1243706857 2.6469669131 1.4827341049 1.5707963268 1.6937793186 
1.8705049266 2.1243706857 2.4613776767 2.8286213739 1.5707963268 1.6588585487 1.7739652728 1.9258976586 2.1243706857 
2.3709992258 2.6469669131 2.9144344902 1.7563855631 1.8785697967 1.8563003522 2.0024758186 1.9913306621 1.9779583789 
2.1243706857 2.1243706857 2.1243706857 2.1243706857 2.2408671392 2.2510113037 2.2630782103 2.2776669786 2.295651703 
2.3494282469 2.3680303173 2.3899057108 2.4159740166 2.4475202889 2.486385773 2.448570738 2.4736848652 2.5028148801 
2.5369440334 2.5773755784 2.6258554882 2.6847397011 2.5377803997 2.5675431237 2.6015718084 2.6407557529 2.6862098746 
2.7393287203 2.8018393335 2.8758309421 1.6743954455 1.6743954455 1.7840462375 1.6743954455 1.7840462375 1.8974821136 
1.6743954455 1.7840462375 1.8974821136 2.0119052671 1.6743954455 1.7840462375 1.8974821136 2.0119052671 2.1243706857 
1.6743954455 1.7840462375 1.8974821136 2.0119052671 2.1243706857 2.232221744 1.6743954455 1.7840462375 1.8974821136 
2.0119052671 2.1243706857 2.232221744 2.3334263672 1.6743954455 1.7840462375 1.8974821136 2.0119052671 2.1243706857 
2.232221744 2.3334263672 2.426721652 1.4671972081 1.3575464161 1.4671972081 1.24411054 1.3575464161 1.4671972081 
1.1296873865 1.24411054 1.3575464161 1.4671972081 1.0172219679 1.1296873865 1.24411054 1.3575464161 1.4671972081 
0.90937090954 1.0172219679 1.1296873865 1.24411054 1.3575464161 1.4671972081 0.80816628637 0.90937090954 1.0172219679 
1.1296873865 1.24411054 1.3575464161 1.4671972081 0.71487100155 0.80816628637 0.90937090954 1.0172219679 1.1296873865 
1.24411054 1.3575464161 1.4671972081 0.60381225391 0.57404952988 0.69302191562 0.54002084522 0.66790778838 0.79216440667 
0.50083690068 0.63877777351 0.77356233629 0.90072551443 0.45538277901 0.60464862014 0.75168694275 0.89058134991 1.0172219679 
0.40226393329 0.56421707518 0.72561863695 0.87851444325 1.0172219679 1.139116835 0.33975332011 0.51573716537 0.69407236469 
0.86392567495 1.0172219679 1.1502619915 1.2630228569 0.26576171152 0.45685295248 0.6552068806 0.84594095064 1.0172219679 
1.1636342747 1.2852923014 1.3852070904 0.22715816343 0.3129712797 0.49462574053 0.49462574053 0.68021497688 0.77059342779 
1.0172219679 1.0172219679 1.0172219679 1.0172219679 2.1243706857 1.5707963268 1.3676273807 1.271087727 1.2156949949 
2.6469669131 2.1243706857 1.7739652728 1.5707963268 1.447813335 1.3676273807 2.8286213739 2.4613776767 2.1243706857 
1.8705049266 1.6937793186 1.5707963268 1.4827341049 2.9144344902 2.6469669131 2.3709992258 2.1243706857 1.9258976586 
1.7739652728 1.6588585487 1.5707963268 1.7563855631 1.8563003522 1.8785697967 1.9779583789 1.9913306621 2.0024758186 
2.1243706857 2.1243706857 2.1243706857 2.1243706857 2.295651703 2.2776669786 2.2630782103 2.2510113037 2.2408671392 
2.486385773 2.4475202889 2.4159740166 2.3899057108 2.3680303173 2.3494282469 2.6847397011 2.6258554882 2.5773755784 
2.5369440334 2.5028148801 2.4736848652 2.448570738 2.8758309421 2.8018393335 2.7393287203 2.6862098746 2.6407557529 
2.6015718084 2.5675431237 2.5377803997 5.8604937156 5.901393709 5.9723133995 5.9473927383 6.0216547488 6.0927478736 
5.9992719463 6.0767621038 6.1501452836 6.2190157008 6.0578962336 6.1383094565 6.2134963469 0 0.064169606361 
6.1241815303 6.206940195 6.2831853072 0.069688960264 0.13304002361 0.19043743361 6.1990255847 0 0.07624511221 
0.14487585072 0.20642320337 0.26153055843 0.3108719077 0 0.084159722458 0.15900377685 0.22528907359 0.28391336087 
0.3357925689 0.38179159818 0.42269159155 5.8604937156 5.9723133995 5.901393709 6.0927478736 6.0216547488 5.9473927383 
6.2190157008 6.1501452836 6.0767621038 5.9992719463 0.064169606361 0 6.2134963469 6.1383094565 6.0578962336 
0.19043743361 0.13304002361 0.069688960264 6.2831853072 6.206940195 6.1241815303 0.3108719077 0.26153055843 0.20642320337 
0.14487585072 0.07624511221 6.2831853072 6.1990255847 0.42269159155 0.38179159818 0.3357925689 0.28391336087 0.22528907359 
0.15900377685 0.084159722458 0 5.6793730533 5.7091357773 5.5901633916 5.743164462 5.6152775188 5.4910209005 
5.7823484065 5.6444075337 5.5096229709 5.3824597928 5.8278025282 5.678536687 5.5314983644 5.3926039573 5.2659633393 
5.8809213739 5.718968232 5.5575666702 5.4046708639 5.2659633393 5.1440684722 5.9434319871 5.7674481418 5.5891129425 
5.4192596322 5.2659633393 5.1329233157 5.0201624502 6.0174235957 5.8263323547 5.6279784266 5.4372443565 5.2659633393 
5.1195510325 4.9978930058 4.8979782167 1.3852070904 1.2852923014 1.2630228569 1.1636342747 1.1502619915 1.139116835 
1.0172219679 1.0172219679 1.0172219679 1.0172219679 0.84594095064 0.86392567495 0.87851444325 0.89058134991 0.90072551443 
0.6552068806 0.69407236469 0.72561863695 0.75168694275 0.77356233629 0.79216440667 0.45685295248 0.51573716537 0.56421707518 
0.60464862014 0.63877777351 0.66790778838 0.69302191562 0.26576171152 0.33975332011 0.40226393329 0.45538277901 0.50083690068 
0.54002084522 0.57404952988 0.60381225391 
_paraPhiHalf 1 1002 double
0 3.1415926536 0 3.1415926536 1.5707963268 1.5707963268 1.5707963268 1.5707963268 2.5880182947 
0.5535743589 2.5880182947 0.5535743589 0 0 0 0 3.1415926536 3.1415926536 
3.1415926536 3.1415926536 3.1415926536 0.17788134 0.38438696014 0.60631181711 0.82323535693 1.0172219679 1.1799687454 
1.3118704726 1.4175000338 1.5022335207 0.17788134 0.38438696014 0.60631181711 0.82323535693 1.0172219679 1.1799687454 
1.3118704726 1.4175000338 1.5022335207 0.093902416448 0.17615329733 0.2478725152 0.31035131605 0.36486382811 0.41257334776 
0.45449736604 0.4915044461 0.52432611754 0.093902416448 0.17615329733 0.2478725152 0.31035131605 0.36486382811 0.41257334776 
0.45449736604 0.4915044461 0.52432611754 2.9637113136 2.7572056934 2.5352808365 2.3183572967 2.1243706857 1.9616239082 
1.829722181 1.7240926197 1.6393591329 2.9637113136 2.7572056934 2.5352808365 2.3183572967 2.1243706857 1.9616239082 
1.829722181 1.7240926197 1.6393591329 3.0476902371 2.9654393563 2.8937201384 2.8312413375 2.7767288255 2.7290193058 
2.6870952876 2.6500882075 2.617266536 3.0476902371 2.9654393563 2.8937201384 2.8312413375 2.7767288255 2.7290193058 
2.6870952876 2.6500882075 2.617266536 0 0 0 0 3.1415926536 3.1415926536 
3.1415926536 3.1415926536 3.1415926536 0.17788134 0.38438696014 0.60631181711 0.82323535693 1.0172219679 1.1799687454 
1.3118704726 1.4175000338 1.5022335207 0.17788134 0.38438696014 0.60631181711 0.82323535693 1.0172219679 1.1799687454 
1.3118704726 1.4175000338 1.5022335207 0.093902416448 0.17615329733 0.2478725152 0.31035131605 0.36486382811 0.41257334776 
0.45449736604 0.4915044461 0.52432611754 0.093902416448 0.17615329733 0.2478725152 0.31035131605 0.36486382811 0.41257334776 
0.45449736604 0.4915044461 0.52432611754 2.9637113136 2.7572056934 2.5352808365 2.3183572967 2.1243706857 1.9616239082 
1.829722181 1.7240926197 1.6393591329 2.9637113136 2.7572056934 2.5352808365 2.3183572967 2.1243706857 1.9616239082 
1.829722181 1.7240926197 1.6393591329 3.0476902371 2.9654393563 2.8937201384 2.8312413375 2.7767288255 2.7290193058 
2.6870952876 2.6500882075 2.617266536 3.0476902371 2.9654393563 2.8937201384 2.8312413375 2.7767288255 2.7290193058 
2.6870952876 2.6500882075 2.617266536 1.5707963268 1.5707963268 1.5707963268 1.5707963268 1.5707963268 1.5707963268 
1.5707963268 1.5707963268 1.5707963268 1.6743954455 1.7840462375 1.8974821136 2.0119052671 2.1243706857 2.232221744 
2.3334263672 2.426721652 2.5115728246 1.4671972081 1.3575464161 1.24411054 1.1296873865 1.0172219679 0.90937090954 
0.80816628637 0.71487100155 0.63001982895 1.6743954455 1.7840462375 1.8974821136 2.0119052671 2.1243706857 2.232221744 
2.3334263672 2.426721652 2.5115728246 1.4671972081 1.3575464161 1.24411054 1.1296873865 1.0172219679 0.90937090954 
0.80816628637 0.71487100155 0.63001982895 1.5707963268 1.5707963268 1.5707963268 1.5707963268 1.5707963268 1.5707963268 
1.5707963268 1.5707963268 1.5707963268 1.6743954455 1.7840462375 1.8974821136 2.0119052671 2.1243706857 2.232221744 
2.3334263672 2.426721652 2.5115728246 1.4671972081 1.3575464161 1.24411054 1.1296873865 1.0172219679 0.90937090954 
0.80816628637 0.71487100155 0.63001982895 1.6743954455 1.7840462375 1.8974821136 2.0119052671 2.1243706857 2.232221744 
2.3334263672 2.426721652 2.5115728246 1.4671972081 1.3575464161 1.24411054 1.1296873865 1.0172219679 0.90937090954 
0.80816628637 0.71487100155 0.63001982895 2.6824132222 2.7864913217 2.8992382033 3.0186096618 3.1415926536 3.0186096618 
2.8992382033 2.7864913217 2.6824132222 0.45917943135 0.35510133185 0.2423544503 0.12298299178 0 0.12298299178 
0.2423544503 0.35510133185 0.45917943135 0.22715816343 0.49462574053 0.3129712797 0.77059342779 0.68021497688 0.49462574053 
1.0172219679 1.0172219679 1.0172219679 1.0172219679 1.2156949949 1.271087727 1.3676273807 1.5707963268 2.1243706857 
1.3676273807 1.447813335 1.5707963268 1.7739652728 2.1243706857 2.6469669131 1.4827341049 1.5707963268 1.6937793186 
1.8705049266 2.1243706857 2.4613776767 2.8286213739 1.5707963268 1.6588585487 1.7739652728 1.9258976586 2.1243706857 
2.3709992258 2.6469669131 2.9144344902 0.26576171152 0.33975332011 0.45685295248 0.40226393329 0.51573716537 0.6552068806 
0.45538277901 0.56421707518 0.69407236469 0.84594095064 0.50083690068 0.60464862014 0.72561863695 0.86392567495 1.0172219679 
0.54002084522 0.63877777351 0.75168694275 0.87851444325 1.0172219679 1.1636342747 0.57404952988 0.66790778838 0.77356233629 
0.89058134991 1.0172219679 1.1502619915 1.2852923014 0.60381225391 0.69302191562 0.79216440667 0.90072551443 1.0172219679 
1.139116835 1.2630228569 1.3852070904 0.71487100155 0.80816628637 0.80816628637 0.90937090954 0.90937090954 0.90937090954 
1.0172219679 1.0172219679 1.0172219679 1.0172219679 1.1296873865 1.1296873865 1.1296873865 1.1296873865 1.1296873865 
1.24411054 1.24411054 1.24411054 1.24411054 1.24411054 1.24411054 1.3575464161 1.3575464161 1.3575464161 
1.3575464161 1.3575464161 1.3575464161 1.3575464161 1.4671972081 1.4671972081 1.4671972081 1.4671972081 1.4671972081 
1.4671972081 1.4671972081 1.4671972081 1.6743954455 1.6743954455 1.7840462375 1.6743954455 1.7840462375 1.8974821136 
1.6743954455 1.7840462375 1.8974821136 2.0119052671 1.6743954455 1.7840462375 1.8974821136 2.0119052671 2.1243706857 
1.6743954455 1.7840462375 1.8974821136 2.0119052671 2.1243706857 2.232221744 1.6743954455 1.7840462375 1.8974821136 
2.0119052671 2.1243706857 2.232221744 2.3334263672 1.6743954455 1.7840462375 1.8974821136 2.0119052671 2.1243706857 
2.232221744 2.3334263672 2.426721652 1.7563855631 1.8785697967 1.8563003522 2.0024758186 1.9913306621 1.9779583789 
2.1243706857 2.1243706857 2.1243706857 2.1243706857 2.2408671392 2.2510113037 2.2630782103 2.2776669786 2.295651703 
2.3494282469 2.3680303173 2.3899057108 2.4159740166 2.4475202889 2.486385773 2.448570738 2.4736848652 2.5028148801 
2.5369440334 2.5773755784 2.6258554882 2.6847397011 2.5377803997 2.5675431237 2.6015718084 2.6407557529 2.6862098746 
2.7393287203 2.8018393335 2.8758309421 2.718901062 2.8307207459 2.7598010554 2.95115522 2.8800620952 2.8058000847 
3.0774230472 3.00855263 2.9351694502 2.8576792927 3.0774230472 3.1415926536 3.0719036933 2.9967168029 2.91630358 
2.95115522 3.00855263 3.0719036933 3.1415926536 3.0653475414 2.9825888767 2.8307207459 2.8800620952 2.9351694502 
2.9967168029 3.0653475414 3.1415926536 3.0574329311 2.718901062 2.7598010554 2.8058000847 2.8576792927 2.91630358 
2.9825888767 3.0574329311 3.1415926536 2.718901062 2.7598010554 2.8307207459 2.8058000847 2.8800620952 2.95115522 
2.8576792927 2.9351694502 3.00855263 3.0774230472 2.91630358 2.9967168029 3.0719036933 3.1415926536 3.0774230472 
2.9825888767 3.0653475414 3.1415926536 3.0719036933 3.00855263 2.95115522 3.0574329311 3.1415926536 3.0653475414 