# vtk DataFile Version 5.1
vtk output
ASCII
DATASET POLYDATA
POINTS 1002 float
-5.21785 -0.112386 -4.03789 4.57703 -0.294954 -3.60267 -5.56977 0.0866723 5.25749 
5.58332 -0.201038 2.4785 0.424128 7.67574 -3.52091 -0.0146114 7.08653 2.26732 
0.761912 -8.00959 -3.599 0.831163 -7.89848 2.36132 10.2887 5.64378 0.399152 
-8.91329 5.02853 0.495281 10.1191 -5.64344 0.392648 -11.0479 -4.66937 1.2746 
-4.23386 -0.155439 -4.26228 -3.15502 -0.232388 -4.53352 -2.0607 -0.321947 -4.83302 
-0.983299 -0.36867 -5.02033 0.134879 -0.337776 -4.95749 1.27891 -0.282124 -4.73622 
2.30408 -0.286949 -4.54223 3.14398 -0.345135 -4.35311 3.87787 -0.367023 -4.03763 
-4.95828 0.627652 -4.06307 -4.5845 1.38944 -4.14623 -4.10051 2.1778 -4.24068 
-3.56591 3.04279 -4.33996 -3.02077 3.98576 -4.47974 -2.41388 4.89402 -4.5768 
-1.69153 5.66488 -4.45284 -0.911653 6.33622 -4.11088 -0.187344 7.00136 -3.75343 
-4.82626 -0.871271 -4.22554 -4.3758 -1.65388 -4.44688 -3.89426 -2.46848 -4.51903 
-3.39289 -3.34183 -4.35153 -2.80082 -4.23895 -4.20254 -2.03066 -5.11612 -4.35565 
-1.15796 -5.9895 -4.59679 -0.37279 -6.82691 -4.51439 0.246121 -7.51644 -4.09027 
-6.03628 0.385323 -3.82722 -6.85582 0.895059 -3.60483 -7.55175 1.36855 -3.28399 
-8.03633 1.85145 -2.79496 -8.38486 2.436 -2.19835 -8.73483 3.08616 -1.62681 
-9.05115 3.67257 -1.11619 -9.18473 4.16539 -0.60478 -9.106 4.61677 -0.0589468 
-5.93816 -0.581632 -3.9124 -6.72611 -1.10324 -3.77742 -7.61777 -1.60865 -3.64136 
-8.57167 -2.0504 -3.4893 -9.46367 -2.42914 -3.19139 -10.1657 -2.76953 -2.57107 
-10.6121 -3.1188 -1.62484 -10.8411 -3.54873 -0.550274 -10.9644 -4.08789 0.446898 
4.46577 0.530843 -3.64235 4.24404 1.44426 -3.71458 3.94805 2.37221 -3.90335 
3.64772 3.28105 -4.06398 3.30243 4.209 -3.95611 2.80959 5.14189 -3.67655 
2.18708 5.95999 -3.55394 1.54691 6.60479 -3.62845 0.956233 7.15123 -3.6639 
4.22834 -1.12862 -3.84879 4.00851 -1.89574 -4.09659 3.97453 -2.60298 -4.26129 
3.86584 -3.4063 -4.36688 3.38127 -4.38584 -4.47181 2.66215 -5.35315 -4.45864 
2.07 -6.12316 -4.20927 1.65098 -6.76908 -3.88168 1.23209 -7.41083 -3.68604 
5.25735 0.368529 -3.21061 5.94787 1.11303 -2.88729 6.60546 1.82045 -2.59388 
7.28921 2.46447 -2.23524 8.02509 3.16098 -1.77617 8.75348 3.97859 -1.29929 
9.4442 4.77218 -0.902647 10.0374 5.32782 -0.558862 10.359 5.58571 -0.144621 
5.05466 -0.69051 -3.19786 5.54443 -1.09748 -2.67102 6.02818 -1.58136 -2.14296 
6.52487 -2.18707 -1.69954 7.10574 -2.8439 -1.33225 7.81768 -3.42021 -1.03424 
8.60054 -3.9067 -0.815177 9.31871 -4.42316 -0.58448 9.84753 -5.02886 -0.194597 
-4.70143 0.0828569 5.03566 -3.67514 0.070888 4.46564 -2.50431 0.0335261 3.73347 
-1.2382 0.0146879 3.32997 0.0782471 0.101691 3.56125 1.36449 0.254149 3.98227 
2.52024 0.286178 3.86256 3.55996 0.123729 3.18575 4.57926 -0.092683 2.58141 
-5.3553 0.66327 5.10998 -4.98971 1.36168 4.78346 -4.33295 2.21335 4.59327 
-3.51946 3.13283 4.6486 -2.84876 4.00834 4.62872 -2.3665 4.82646 4.26402 
-1.86565 5.58726 3.70723 -1.25594 6.22129 3.18114 -0.615774 6.6986 2.70867 
-5.26363 -0.48092 5.08926 -4.92476 -1.12644 4.6846 -4.52434 -1.90024 4.14967 
-4.0115 -2.76403 3.61453 -3.31086 -3.59656 3.05822 -2.34061 -4.39009 2.39158 
-1.18453 -5.27772 1.78943 -0.154844 -6.27057 1.60484 0.500859 -7.19234 1.89737 
-6.24626 0.472017 5.21326 -6.91982 0.944562 4.95423 -7.57023 1.45342 4.59615 
-8.17629 1.92568 4.26597 -8.70611 2.38038 3.88761 -9.09297 2.93315 3.28261 
-9.26816 3.61417 2.48464 -9.24008 4.28021 1.70529 -9.09437 4.76595 1.05515 
-6.26743 -0.291933 5.11609 -7.1709 -0.809415 4.6716 -8.19445 -1.47349 4.18232 
-9.12778 -2.19647 3.93014 -9.98079 -2.90413 3.90215 -10.916 -3.60665 3.82311 
-11.7362 -4.25546 3.47157 -12.0112 -4.68196 2.83983 -11.6758 -4.78964 2.06049 
5.21879 0.497126 2.44259 4.80144 1.29946 2.53345 4.28604 2.20145 2.75099 
3.62358 3.12492 3.03319 2.90246 3.98093 3.21564 2.28851 4.73236 3.11977 
1.77771 5.38216 2.79782 1.2255 5.96465 2.49822 0.595329 6.52867 2.34769 
5.30466 -0.861507 2.45141 4.99632 -1.5837 2.35534 4.62529 -2.40617 2.19067 
4.13271 -3.30274 2.00086 3.53313 -4.14703 1.81386 2.92385 -4.88703 1.67347 
2.36398 -5.64986 1.68946 1.83687 -6.50871 1.90516 1.32413 -7.31948 2.18977 
6.3599 0.259898 2.6788 7.07363 0.871279 3.00796 7.62987 1.54047 3.23157 
8.12558 2.18309 3.20318 8.72394 2.79669 3.07052 9.37565 3.39754 2.9653 
9.89745 3.97677 2.6934 10.2197 4.54752 2.06114 10.354 5.1201 1.205 
6.39901 -0.626669 2.80562 7.12664 -1.0858 3.30703 7.66852 -1.64009 3.55906 
8.15297 -2.30936 3.38016 8.82339 -3.10087 3.07302 9.67879 -4.02521 2.8695 
10.4154 -4.94151 2.53044 10.7441 -5.55981 1.85148 10.6037 -5.74468 1.03995 
0.432291 8.47929 -3.24622 0.362878 9.38047 -2.90822 0.200026 10.1721 -2.4404 
0.0296022 10.5535 -1.71533 -0.000821168 10.3758 -0.752735 0.110778 9.78217 0.188219 
0.186158 9.04146 0.905323 0.128178 8.32609 1.44445 0.027254 7.67825 1.89967 
1.34413 8.00758 -3.49185 2.40418 8.27741 -3.36447 3.60199 8.45032 -3.00302 
4.81167 8.52399 -2.46561 5.89117 8.47537 -1.99021 6.87633 8.24304 -1.65769 
7.88187 7.79353 -1.29604 8.86116 7.16082 -0.786578 9.67542 6.41803 -0.190355 
-0.459538 7.76104 -3.34401 -1.43299 7.75274 -3.08636 -2.54883 7.61572 -2.81027 
-3.82114 7.40172 -2.55192 -5.11644 7.16461 -2.26702 -6.23279 6.87535 -1.83304 
-7.10053 6.51235 -1.1909 -7.78955 6.09998 -0.478091 -8.37965 5.61947 0.102311 
0.931122 7.20176 1.96286 1.88443 7.50078 1.84568 2.83552 7.8534 1.94632 
3.81571 8.01155 2.13457 4.83869 7.8881 2.1837 5.9313 7.58232 1.95765 
7.14422 7.16324 1.52038 8.41016 6.65819 1.05047 9.51682 6.13523 0.674383 
-0.972214 7.45105 2.4516 -1.93666 7.77993 2.54757 -2.85705 7.813 2.42265 
-3.8144 7.49366 2.11056 -4.90532 7.13398 1.78452 -6.03382 6.9977 1.57075 
-6.9943 6.89593 1.42115 -7.73391 6.50784 1.19937 -8.35143 5.81742 0.862437 
0.802034 -8.59643 -3.24047 0.922792 -9.17144 -2.71638 1.0956 -9.71695 -1.89216 
1.20544 -10.1466 -0.841654 1.14713 -10.283 0.21308 0.935705 -10.0383 1.1705 
0.708403 -9.55679 1.99141 0.612716 -9.03021 2.50755 0.68224 -8.49462 2.59339 
1.57327 -8.02485 -3.20068 2.44943 -7.96819 -2.8296 3.41892 -7.96793 -2.47444 
4.47758 -8.06832 -2.07016 5.51346 -8.07421 -1.56245 6.39893 -7.73743 -0.957157 
7.20609 -7.105 -0.36932 8.12761 -6.46156 0.037216 9.16957 -5.98616 0.240934 
-0.0818338 -8.21676 -3.74843 -0.98687 -8.21431 -3.75109 -1.8974 -7.99453 -3.55135 
-2.99873 -7.58245 -3.11168 -4.5456 -6.96248 -2.39219 -6.345 -6.2104 -1.46766 
-7.88107 -5.56332 -0.56253 -9.01598 -5.16433 0.168571 -10.0219 -4.91815 0.756679 
1.37253 -8.10218 2.63173 2.10887 -8.09009 2.68383 3.22436 -7.96189 2.70591 
4.59105 -7.82811 2.8989 5.88295 -7.74261 3.10522 6.95664 -7.69068 2.96859 
7.91161 -7.53849 2.43 8.81831 -7.11622 1.71431 9.59518 -6.42712 1.00666 
0.089544 -7.81357 2.01827 -0.960776 -7.44879 1.42297 -2.30151 -7.0551 0.932283 
-3.77051 -6.957 0.958332 -5.29203 -7.14933 1.4282 -6.8829 -7.24083 1.86335 
-8.39635 -6.9178 1.99765 -9.59172 -6.24036 1.89911 -10.4276 -5.44042 1.65281 
10.9455 4.81656 0.567682 11.4792 3.87214 0.623948 11.7011 2.83029 0.588177 
11.4086 1.63918 0.600286 10.7884 0.165306 0.700748 10.4414 -1.51686 0.695615 
10.6248 -3.03167 0.47455 10.8869 -4.13505 0.240563 10.7248 -4.94279 0.218174 
-9.60424 4.07089 0.495675 -10.3485 3.01772 0.604235 -11.056 1.98105 0.824274 
-11.7123 0.990613 0.963159 -12.4224 -0.02992 0.904104 -13.1143 -1.11214 0.829606 
-13.3859 -2.17617 0.928716 -12.9651 -3.14041 1.12451 -12.0565 -3.9742 1.25665 
-3.86417 0.576448 -4.3 -3.38766 1.36131 -4.37551 -2.7007 0.501197 -4.60154 
-2.86849 2.22522 -4.41488 -2.17779 1.34767 -4.63801 -1.58279 0.470596 -4.87966 
-2.3716 3.17056 -4.4287 -1.65955 2.30861 -4.57429 -1.04854 1.42373 -4.79083 
-0.495856 0.533355 -4.90992 -1.84176 4.11857 -4.46042 -1.14238 3.28772 -4.47702 
-0.471704 2.43751 -4.62073 0.0921518 1.56045 -4.66262 0.655707 0.632846 -4.64188 
-1.17595 4.97322 -4.40802 -0.525667 4.185 -4.36894 0.172987 3.35407 -4.48429 
0.783476 2.51703 -4.52207 1.30527 1.62615 -4.37464 1.81448 0.654788 -4.33811 
-0.408045 5.73225 -4.17491 0.204364 5.01503 -4.1479 0.885275 4.1899 -4.2764 
1.51328 3.33186 -4.46542 2.02067 2.48009 -4.39221 2.45184 1.56621 -4.1682 
2.83302 0.582352 -4.15808 0.327304 6.45358 -3.87612 0.925355 5.8296 -3.8483 
1.58283 5.06658 -3.90735 2.20239 4.17913 -4.17906 2.69174 3.27932 -4.36909 
3.07736 2.39994 -4.22893 3.4189 1.47326 -4.00125 3.69423 0.514277 -3.9639 
-5.77665 1.1832 -3.89754 -6.52394 1.70062 -3.6795 -5.3728 1.97679 -4.01258 
-7.06427 2.18699 -3.30254 -6.01721 2.52221 -3.80545 -4.81721 2.81397 -4.15718 
-7.42812 2.76105 -2.77204 -6.44183 3.10758 -3.43039 -5.36039 3.46944 -4.00842 
-4.18278 3.77567 -4.35694 -7.80612 3.45153 -2.21959 -6.81943 3.81079 -2.92383 
-5.78254 4.20444 -3.65689 -4.67074 4.56236 -4.24467 -3.53053 4.79438 -4.55128 
-8.23345 4.10759 -1.70698 -7.30397 4.51211 -2.38956 -6.28362 4.9379 -3.11706 
-5.16358 5.33098 -3.80184 -3.98283 5.58591 -4.3092 -2.81704 5.67684 -4.52098 
-8.51131 4.6484 -1.16124 -7.72825 5.08248 -1.82645 -6.81039 5.523 -2.51245 
-5.71412 5.93722 -3.13608 -4.46506 6.23064 -3.66195 -3.19461 6.36544 -4.02594 
-2.00552 6.37855 -4.16543 -8.52735 5.14442 -0.539259 -7.87523 5.59028 -1.17811 
-7.10009 6.0098 -1.8775 -6.11602 6.40172 -2.47131 -4.89045 6.70918 -2.91179 
-3.55408 6.91447 -3.2544 -2.29426 7.02465 -3.52019 -1.18027 7.04289 -3.68966 
-7.76972 6.43156 0.378635 -7.05703 7.10999 0.568594 -7.08371 6.92984 -0.324539 
-6.16992 7.49991 0.695813 -6.21068 7.64748 -0.187499 -6.24145 7.35511 -1.06491 
-5.08102 7.71507 0.90213 -5.171 8.14861 0.0603203 -5.18025 8.13077 -0.799128 
-5.17498 7.69182 -1.60555 -3.92318 8.01005 1.24713 -4.03317 8.52109 0.462756 
-4.04239 8.76441 -0.34446 -3.96443 8.5238 -1.20127 -3.8968 7.96492 -1.93761 
-2.85771 8.32148 1.62074 -2.90715 8.8238 0.869283 -2.93734 9.23357 0.120931 
-2.83893 9.29889 -0.750186 -2.6846 8.90727 -1.58229 -2.59474 8.261 -2.22429 
-1.8836 8.34823 1.8749 -1.84424 8.89916 1.15932 -1.87143 9.44416 0.433828 
-1.85583 9.83384 -0.426605 -1.71266 9.80761 -1.33767 -1.54391 9.29716 -2.04345 
[...]
POINT_DATA 1002
FIELD FieldData 4
_paraPhi 1 1002 double
6.2831853072 3.1415926536 6.2831853072 3.1415926536 4.7123889804 4.7123889804 1.5707963268 1.5707963268 3.6951670125 
5.7296109483 2.5880182947 0.5535743589 6.2831853072 6.2831853072 6.2831853072 6.2831853072 3.1415926536 3.1415926536 
3.1415926536 3.1415926536 3.1415926536 6.1053039672 5.898798347 5.6768734901 5.4599499503 5.2659633393 5.1032165617 
4.9713148346 4.8656852733 4.7809517865 0.17788134 0.38438696014 0.60631181711 0.82323535693 1.0172219679 1.1799687454 
1.3118704726 1.4175000338 1.5022335207 6.1892828907 6.1070320098 6.035312792 5.9728339911 5.9183214791 5.8706119594 
5.8286879411 5.7916808611 5.7588591896 0.093902416448 0.17615329733 0.2478725152 0.31035131605 0.36486382811 0.41257334776 
0.45449736604 0.4915044461 0.52432611754 3.3194739936 3.5259796137 3.7479044707 3.9648280105 4.1588146215 4.321561399 
4.4534631262 4.5590926874 4.6438261743 2.9637113136 2.7572056934 2.5352808365 2.3183572967 2.1243706857 1.9616239082 
1.829722181 1.7240926197 1.6393591329 3.23549507 3.3177459509 3.3894651688 3.4519439696 3.5064564817 3.5541660013 
3.5960900196 3.6330970997 3.6659187711 3.0476902371 2.9654393563 2.8937201384 2.8312413375 2.7767288255 2.7290193058 
2.6870952876 2.6500882075 2.617266536 6.2831853072 6.2831853072 6.2831853072 6.2831853072 3.1415926536 3.1415926536 
3.1415926536 3.1415926536 3.1415926536 6.1053039672 5.898798347 5.6768734901 5.4599499503 5.2659633393 5.1032165617 
4.9713148346 4.8656852733 4.7809517865 0.17788134 0.38438696014 0.60631181711 0.82323535693 1.0172219679 1.1799687454 
1.3118704726 1.4175000338 1.5022335207 6.1892828907 6.1070320098 6.035312792 5.9728339911 5.9183214791 5.8706119594 
5.8286879411 5.7916808611 5.7588591896 0.093902416448 0.17615329733 0.2478725152 0.31035131605 0.36486382811 0.41257334776 
0.45449736604 0.4915044461 0.52432611754 3.3194739936 3.5259796137 3.7479044707 3.9648280105 4.1588146215 4.321561399 
4.4534631262 4.5590926874 4.6438261743 2.9637113136 2.7572056934 2.5352808365 2.3183572967 2.1243706857 1.9616239082 
1.829722181 1.7240926197 1.6393591329 3.23549507 3.3177459509 3.3894651688 3.4519439696 3.5064564817 3.5541660013 
3.5960900196 3.6330970997 3.6659187711 3.0476902371 2.9654393563 2.8937201384 2.8312413375 2.7767288255 2.7290193058 
2.6870952876 2.6500882075 2.617266536 4.7123889804 4.7123889804 4.7123889804 4.7123889804 4.7123889804 4.7123889804 
4.7123889804 4.7123889804 4.7123889804 4.6087898617 4.4991390697 4.3857031936 4.2712800401 4.1588146215 4.0509635631 
3.94975894 3.8564636551 3.7716124825 4.8159880991 4.9256388911 5.0390747672 5.1534979207 5.2659633393 5.3738143976 
5.4750190208 5.5683143056 5.6531654782 4.6087898617 4.4991390697 4.3857031936 4.2712800401 4.1588146215 4.0509635631 
3.94975894 3.8564636551 3.7716124825 4.8159880991 4.9256388911 5.0390747672 5.1534979207 5.2659633393 5.3738143976 
5.4750190208 5.5683143056 5.6531654782 1.5707963268 1.5707963268 1.5707963268 1.5707963268 1.5707963268 1.5707963268 
1.5707963268 1.5707963268 1.5707963268 1.6743954455 1.7840462375 1.8974821136 2.0119052671 2.1243706857 2.232221744 
2.3334263672 2.426721652 2.5115728246 1.4671972081 1.3575464161 1.24411054 1.1296873865 1.0172219679 0.90937090954 
0.80816628637 0.71487100155 0.63001982895 1.6743954455 1.7840462375 1.8974821136 2.0119052671 2.1243706857 2.232221744 
2.3334263672 2.426721652 2.5115728246 1.4671972081 1.3575464161 1.24411054 1.1296873865 1.0172219679 0.90937090954 
0.80816628637 0.71487100155 0.63001982895 3.6007720849 3.4966939854 3.3839471039 3.2645756454 3.1415926536 3.0186096618 
2.8992382033 2.7864913217 2.6824132222 5.8240058758 5.9280839753 6.0408308569 6.1602023154 6.2831853072 0.12298299178 
0.2423544503 0.35510133185 0.45917943135 6.0560271438 5.7885595667 5.9702140275 5.5125918794 5.6029703303 5.7885595667 
5.2659633393 5.2659633393 5.2659633393 5.2659633393 5.0674903122 5.0120975802 4.9155579264 4.7123889804 4.1588146215 
4.9155579264 4.8353719722 4.7123889804 4.5092200343 4.1588146215 3.6362183941 4.8004512023 4.7123889804 4.5894059886 
4.4126803806 4.1588146215 3.8218076305 3.4545639333 4.7123889804 4.6243267584 4.5092200343 4.3572876485 4.1588146215 
3.9121860814 3.6362183941 3.368750817 6.0174235957 5.9434319871 5.8263323547 5.8809213739 5.7674481418 5.6279784266 
5.8278025282 5.718968232 5.5891129425 5.4372443565 5.7823484065 5.678536687 5.5575666702 5.4192596322 5.2659633393 
5.743164462 5.6444075337 5.5314983644 5.4046708639 5.2659633393 5.1195510325 5.7091357773 5.6152775188 5.5096229709 
5.3926039573 5.2659633393 5.1329233157 4.9978930058 5.6793730533 5.5901633916 5.4910209005 5.3824597928 5.2659633393 
5.1440684722 5.0201624502 4.8979782167 5.5683143056 5.4750190208 5.4750190208 5.3738143976 5.3738143976 5.3738143976 
5.2659633393 5.2659633393 5.2659633393 5.2659633393 5.1534979207 5.1534979207 5.1534979207 5.1534979207 5.1534979207 
5.0390747672 5.0390747672 5.0390747672 5.0390747672 5.0390747672 5.0390747672 4.9256388911 4.9256388911 4.9256388911 
4.9256388911 4.9256388911 4.9256388911 4.9256388911 4.8159880991 4.8159880991 4.8159880991 4.8159880991 4.8159880991 
4.8159880991 4.8159880991 4.8159880991 4.6087898617 4.6087898617 4.4991390697 4.6087898617 4.4991390697 4.3857031936 
4.6087898617 4.4991390697 4.3857031936 4.2712800401 4.6087898617 4.4991390697 4.3857031936 4.2712800401 4.1588146215 
4.6087898617 4.4991390697 4.3857031936 4.2712800401 4.1588146215 4.0509635631 4.6087898617 4.4991390697 4.3857031936 
4.2712800401 4.1588146215 4.0509635631 3.94975894 4.6087898617 4.4991390697 4.3857031936 4.2712800401 4.1588146215 
4.0509635631 3.94975894 3.8564636551 4.526799744 4.4046155105 4.426884955 4.2807094886 4.2918546451 4.3052269283 
4.1588146215 4.1588146215 4.1588146215 4.1588146215 4.042318168 4.0321740035 4.0201070968 4.0055183285 3.9875336042 
3.9337570603 3.9151549899 3.8932795963 3.8672112905 3.8356650183 3.7967995342 3.8346145692 3.809500442 3.7803704271 
3.7462412737 3.7058097288 3.657329819 3.5984456061 3.7454049075 3.7156421835 3.6816134988 3.6424295543 3.5969754326 
3.5438565869 3.4813459737 3.4073543651 3.5642842451 3.4524645613 3.5233842518 3.3320300872 3.403123212 3.4773852225 
3.20576226 3.2746326772 3.348015857 3.4255060145 3.0774230472 3.1415926536 3.2112816139 3.2864685043 3.3668817272 
2.95115522 3.00855263 3.0719036933 3.1415926536 3.2178377658 3.3005964304 2.8307207459 2.8800620952 2.9351694502 
2.9967168029 3.0653475414 3.1415926536 3.225752376 2.718901062 2.7598010554 2.8058000847 2.8576792927 2.91630358 
2.9825888767 3.0574329311 3.1415926536 3.5642842451 3.5233842518 3.4524645613 3.4773852225 3.403123212 3.3320300872 
3.4255060145 3.348015857 3.2746326772 3.20576226 3.3668817272 3.2864685043 3.2112816139 3.1415926536 3.0774230472 
3.3005964304 3.2178377658 3.1415926536 3.0719036933 3.00855263 2.95115522 3.225752376 3.1415926536 3.0653475414 
2.9967168029 2.9351694502 2.8800620952 2.8307207459 3.1415926536 3.0574329311 2.9825888767 2.91630358 2.8576792927 
2.8058000847 2.7598010554 2.718901062 4.526799744 4.426884955 4.4046155105 4.3052269283 4.2918546451 4.2807094886 
4.1588146215 4.1588146215 4.1588146215 4.1588146215 3.9875336042 4.0055183285 4.0201070968 4.0321740035 4.042318168 
3.7967995342 3.8356650183 3.8672112905 3.8932795963 3.9151549899 3.9337570603 3.5984456061 3.657329819 3.7058097288 
3.7462412737 3.7803704271 3.809500442 3.8346145692 3.4073543651 3.4813459737 3.5438565869 3.5969754326 3.6424295543 
3.6816134988 3.7156421835 3.7454049075 4.7123889804 4.8004512023 4.6243267584 4.9155579264 4.7123889804 4.5092200343 
5.0674903122 4.8353719722 4.5894059886 4.3572876485 5.2659633393 5.0120975802 4.7123889804 4.4126803806 4.1588146215 
5.5125918794 5.2659633393 4.9155579264 4.5092200343 4.1588146215 3.9121860814 5.7885595667 5.6029703303 5.2659633393 
4.7123889804 4.1588146215 3.8218076305 3.6362183941 6.0560271438 5.9702140275 5.7885595667 5.2659633393 4.1588146215 
3.6362183941 3.4545639333 3.368750817 0.22715816343 0.49462574053 0.3129712797 0.77059342779 0.68021497688 0.49462574053 
1.0172219679 1.0172219679 1.0172219679 1.0172219679 1.2156949949 1.271087727 1.3676273807 1.5707963268 2.1243706857 
1.3676273807 1.447813335 1.5707963268 1.7739652728 2.1243706857 2.6469669131 1.4827341049 1.5707963268 1.6937793186 
1.8705049266 2.1243706857 2.4613776767 2.8286213739 1.5707963268 1.6588585487 1.7739652728 1.9258976586 2.1243706857 
2.3709992258 2.6469669131 2.9144344902 1.7563855631 1.8785697967 1.8563003522 2.0024758186 1.9913306621 1.9779583789 
2.1243706857 2.1243706857 2.1243706857 2.1243706857 2.2408671392 2.2510113037 2.2630782103 2.2776669786 2.295651703 
2.3494282469 2.3680303173 2.3899057108 2.4159740166 2.4475202889 2.486385773 2.448570738 2.4736848652 2.5028148801 
2.5369440334 2.5773755784 2.6258554882 2.6847397011 2.5377803997 2.5675431237 2.6015718084 2.6407557529 2.6862098746 
2.7393287203 2.8018393335 2.8758309421 1.6743954455 1.6743954455 1.7840462375 1.6743954455 1.7840462375 1.8974821136 
1.6743954455 1.7840462375 1.8974821136 2.0119052671 1.6743954455 1.7840462375 1.8974821136 2.0119052671 2.1243706857 
1.6743954455 1.7840462375 1.8974821136 2.0119052671 2.1243706857 2.232221744 1.6743954455 1.7840462375 1.8974821136 
2.0119052671 2.1243706857 2.232221744 2.3334263672 1.6743954455 1.7840462375 1.8974821136 2.0119052671 2.1243706857 
2.232221744 2.3334263672 2.426721652 1.4671972081 1.3575464161 1.4671972081 1.24411054 1.3575464161 1.4671972081 
1.1296873865 1.24411054 1.3575464161 1.4671972081 1.0172219679 1.1296873865 1.24411054 1.3575464161 1.4671972081 
0.90937090954 1.0172219679 1.1296873865 1.24411054 1.3575464161 1.4671972081 0.80816628637 0.90937090954 1.0172219679 
1.1296873865 1.24411054 1.3575464161 1.4671972081 0.71487100155 0.80816628637 0.90937090954 1.0172219679 1.1296873865 
1.24411054 1.3575464161 1.4671972081 0.60381225391 0.57404952988 0.69302191562 0.54002084522 0.66790778838 0.79216440667 
0.50083690068 0.63877777351 0.77356233629 0.90072551443 0.45538277901 0.60464862014 0.75168694275 0.89058134991 1.0172219679 
0.40226393329 0.56421707518 0.72561863695 0.87851444325 1.0172219679 1.139116835 0.33975332011 0.51573716537 0.69407236469 
0.86392567495 1.0172219679 1.1502619915 1.2630228569 0.26576171152 0.45685295248 0.6552068806 0.84594095064 1.0172219679 
1.1636342747 1.2852923014 1.3852070904 0.22715816343 0.3129712797 0.49462574053 0.49462574053 0.68021497688 0.77059342779 
1.0172219679 1.0172219679 1.0172219679 1.0172219679 2.1243706857 1.5707963268 1.3676273807 1.271087727 1.2156949949 
2.6469669131 2.1243706857 1.7739652728 1.5707963268 1.447813335 1.3676273807 2.8286213739 2.4613776767 2.1243706857 
1.8705049266 1.6937793186 1.5707963268 1.4827341049 2.9144344902 2.6469669131 2.3709992258 2.1243706857 1.9258976586 
1.7739652728 1.6588585487 1.5707963268 1.7563855631 1.8563003522 1.8785697967 1.9779583789 1.9913306621 2.0024758186 
2.1243706857 2.1243706857 2.1243706857 2.1243706857 2.295651703 2.2776669786 2.2630782103 2.2510113037 2.2408671392 
2.486385773 2.4475202889 2.4159740166 2.3899057108 2.3680303173 2.3494282469 2.6847397011 2.6258554882 2.5773755784 
2.5369440334 2.5028148801 2.4736848652 2.448570738 2.8758309421 2.8018393335 2.7393287203 2.6862098746 2.6407557529 
2.6015718084 2.5675431237 2.5377803997 5.8604937156 5.901393709 5.9723133995 5.9473927383 6.0216547488 6.0927478736 
5.9992719463 6.0767621038 6.1501452836 6.2190157008 6.0578962336 6.1383094565 6.2134963469 0 0.064169606361 
6.1241815303 6.206940195 6.2831853072 0.069688960264 0.13304002361 0.19043743361 6.1990255847 0 0.07624511221 
0.14487585072 0.20642320337 0.26153055843 0.3108719077 0 0.084159722458 0.15900377685 0.22528907359 0.28391336087 
0.3357925689 0.38179159818 0.42269159155 5.8604937156 5.9723133995 5.901393709 6.0927478736 6.0216547488 5.9473927383 
6.2190157008 6.1501452836 6.0767621038 5.9992719463 0.064169606361 0 6.2134963469 6.1383094565 6.0578962336 
0.19043743361 0.13304002361 0.069688960264 6.2831853072 6.206940195 6.1241815303 0.3108719077 0.26153055843 0.20642320337 
0.14487585072 0.07624511221 6.2831853072 6.1990255847 0.42269159155 0.38179159818 0.3357925689 0.28391336087 0.22528907359 
0.15900377685 0.084159722458 0 5.6793730533 5.7091357773 5.5901633916 5.743164462 5.6152775188 5.4910209005 
5.7823484065 5.6444075337 5.5096229709 5.3824597928 5.8278025282 5.678536687 5.5314983644 5.3926039573 5.2659633393 
5.8809213739 5.718968232 5.5575666702 5.4046708639 5.2659633393 5.1440684722 5.9434319871 5.7674481418 5.5891129425 
5.4192596322 5.2659633393 5.1329233157 5.0201624502 6.0174235957 5.8263323547 5.6279784266 5.4372443565 5.2659633393 
5.1195510325 4.9978930058 4.8979782167 1.3852070904 1.2852923014 1.2630228569 1.1636342747 1.1502619915 1.139116835 
1.0172219679 1.0172219679 1.0172219679 1.0172219679 0.84594095064 0.86392567495 0.87851444325 0.89058134991 0.90072551443 
0.6552068806 0.69407236469 0.72561863695 0.75168694275 0.77356233629 0.79216440667 0.45685295248 0.51573716537 0.56421707518 
0.60464862014 0.63877777351 0.66790778838 0.69302191562 0.26576171152 0.33975332011 0.40226393329 0.45538277901 0.50083690068 
0.54002084522 0.57404952988 0.60381225391 
_paraPhiHalf 1 1002 double
0 3.1415926536 0 3.1415926536 1.5707963268 1.5707963268 1.5707963268 1.5707963268 2.5880182947 
0.5535743589 2.5880182947 0.5535743589 0 0 0 0 3.1415926536 3.1415926536 
3.1415926536 3.1415926536 3.1415926536 0.17788134 0.38438696014 0.60631181711 0.82323535693 1.0172219679 1.1799687454 
1.3118704726 1.4175000338 1.5022335207 0.17788134 0.38438696014 0.60631181711 0.82323535693 1.0172219679 1.1799687454 
1.3118704726 1.4175000338 1.5022335207 0.093902416448 0.17615329733 0.2478725152 0.31035131605 0.36486382811 0.41257334776 
0.45449736604 0.4915044461 0.52432611754 0.093902416448 0.17615329733 0.2478725152 0.31035131605 0.36486382811 0.41257334776 
0.45449736604 0.4915044461 0.52432611754 2.9637113136 2.7572056934 2.5352808365 2.3183572967 2.1243706857 1.9616239082 
1.829722181 1.7240926197 1.6393591329 2.9637113136 2.7572056934 2.5352808365 2.3183572967 2.1243706857 1.9616239082 
1.829722181 1.7240926197 1.6393591329 3.0476902371 2.9654393563 2.8937201384 2.8312413375 2.7767288255 2.7290193058 
2.6870952876 2.6500882075 2.617266536 3.0476902371 2.9654393563 2.8937201384 2.8312413375 2.7767288255 2.7290193058 
2.6870952876 2.6500882075 2.617266536 0 0 0 0 3.1415926536 3.1415926536 
3.1415926536 3.1415926536 3.1415926536 0.17788134 0.38438696014 0.60631181711 0.82323535693 1.0172219679 1.1799687454 
1.3118704726 1.4175000338 1.5022335207 0.17788134 0.38438696014 0.60631181711 0.82323535693 1.0172219679 1.1799687454 
1.3118704726 1.4175000338 1.5022335207 0.093902416448 0.17615329733 0.2478725152 0.31035131605 0.36486382811 0.41257334776 
0.45449736604 0.4915044461 0.52432611754 0.093902416448 0.17615329733 0.2478725152 0.31035131605 0.36486382811 0.41257334776 
0.45449736604 0.4915044461 0.52432611754 2.9637113136 2.7572056934 2.5352808365 2.3183572967 2.1243706857 1.9616239082 
1.829722181 1.7240926197 1.6393591329 2.9637113136 2.7572056934 2.5352808365 2.3183572967 2.1243706857 1.9616239082 
1.829722181 1.7240926197 1.6393591329 3.0476902371 2.9654393563 2.8937201384 2.8312413375 2.7767288255 2.7290193058 
2.6870952876 2.6500882075 2.617266536 3.0476902371 2.9654393563 2.8937201384 2.8312413375 2.7767288255 2.7290193058 
2.6870952876 2.6500882075 2.617266536 1.5707963268 1.5707963268 1.5707963268 1.5707963268 1.5707963268 1.5707963268 
1.5707963268 1.5707963268 1.5707963268 1.6743954455 1.7840462375 1.8974821136 2.0119052671 2.1243706857 2.232221744 
2.3334263672 2.426721652 2.5115728246 1.4671972081 1.3575464161 1.24411054 1.1296873865 1.0172219679 0.90937090954 
0.80816628637 0.71487100155 0.63001982895 1.6743954455 1.7840462375 1.8974821136 2.0119052671 2.1243706857 2.232221744 
2.3334263672 2.426721652 2.5115728246 1.4671972081 1.3575464161 1.24411054 1.1296873865 1.0172219679 0.90937090954 
0.80816628637 0.71487100155 0.63001982895 1.5707963268 1.5707963268 1.5707963268 1.5707963268 1.5707963268 1.5707963268 
1.5707963268 1.5707963268 1.5707963268 1.6743954455 1.7840462375 1.8974821136 2.0119052671 2.1243706857 2.232221744 
2.3334263672 2.426721652 2.5115728246 1.4671972081 1.3575464161 1.24411054 1.1296873865 1.0172219679 0.90937090954 
0.80816628637 0.71487100155 0.63001982895 1.6743954455 1.7840462375 1.8974821136 2.0119052671 2.1243706857 2.232221744 
2.3334263672 2.426721652 2.5115728246 1.4671972081 1.3575464161 1.24411054 1.1296873865 1.0172219679 0.90937090954 
0.80816628637 0.71487100155 0.63001982895 2.6824132222 2.7864913217 2.8992382033 3.0186096618 3.1415926536 3.0186096618 
2.8992382033 2.7864913217 2.6824132222 0.45917943135 0.35510133185 0.2423544503 0.12298299178 0 0.12298299178 
0.2423544503 0.35510133185 0.45917943135 0.22715816343 0.49462574053 0.3129712797 0.77059342779 0.68021497688 0.49462574053 
1.0172219679 1.0172219679 1.0172219679 1.0172219679 1.2156949949 1.271087727 1.3676273807 1.5707963268 2.1243706857 
1.3676273807 1.447813335 1.5707963268 1.7739652728 2.1243706857 2.6469669131 1.4827341049 1.5707963268 1.6937793186 
1.8705049266 2.1243706857 2.4613776767 2.8286213739 1.5707963268 1.6588585487 1.7739652728 1.9258976586 2.1243706857 
2.3709992258 2.6469669131 2.9144344902 0.26576171152 0.33975332011 0.45685295248 0.40226393329 0.51573716537 0.6552068806 
0.45538277901 0.56421707518 0.69407236469 0.84594095064 0.50083690068 0.60464862014 0.72561863695 0.86392567495 1.0172219679 
0.54002084522 0.63877777351 0.75168694275 0.87851444325 1.0172219679 1.1636342747 0.57404952988 0.66790778838 0.77356233629 
0.89058134991 1.0172219679 1.1502619915 1.2852923014 0.60381225391 0.69302191562 0.79216440667 0.90072551443 1.0172219679 
1.139116835 1.2630228569 1.3852070904 0.71487100155 0.80816628637 0.80816628637 0.90937090954 0.90937090954 0.90937090954 
1.0172219679 1.0172219679 1.0172219679 1.0172219679 1.1296873865 1.1296873865 1.1296873865 1.1296873865 1.1296873865 
1.24411054 1.24411054 1.24411054 1.24411054 1.24411054 1.24411054 1.3575464161 1.3575464161 1.3575464161 
1.3575464161 1.3575464161 1.3575464161 1.3575464161 1.4671972081 1.4671972081 1.4671972081 1.4671972081 1.4671972081 
1.4671972081 1.4671972081 1.4671972081 1.6743954455 1.6743954455 1.7840462375 1.6743954455 1.7840462375 1.8974821136 
1.6743954455 1.7840462375 1.8974821136 2.0119052671 1.6743954455 1.7840462375 1.8974821136 2.0119052671 2.1243706857 
1.6743954455 1.7840462375 1.8974821136 2.0119052671 2.1243706857 2.232221744 1.6743954455 1.7840462375 1.8974821136 
2.0119052671 2.1243706857 2.232221744 2.3334263672 1.6743954455 1.7840462375 1.8974821136 2.0119052671 2.1243706857 
2.232221744 2.3334263672 2.426721652 1.7563855631 1.8785697967 1.8563003522 2.0024758186 1.9913306621 1.9779583789 
2.1243706857 2.1243706857 2.1243706857 2.1243706857 2.2408671392 2.2510113037 2.2630782103 2.2776669786 2.295651703 
2.3494282469 2.3680303173 2.3899057108 2.4159740166 2.4475202889 2.486385773 2.448570738 2.4736848652 2.5028148801 
2.5369440334 2.5773755784 2.6258554882 2.6847397011 2.5377803997 2.5675431237 2.6015718084 2.6407557529 2.6862098746 
2.7393287203 2.8018393335 2.8758309421 2.718901062 2.8307207459 2.7598010554 2.95115522 2.8800620952 2.8058000847 
3.0774230472 3.00855263 2.9351694502 2.8576792927 3.0774230472 3.1415926536 3.0719036933 2.9967168029 2.91630358 
2.95115522 3.00855263 3.0719036933 3.1415926536 3.0653475414 2.9825888767 2.8307207459 2.8800620952 2.9351694502 
2.9967168029 3.0653475414 3.1415926536 3.0574329311 2.718901062 2.7598010554 2.8058000847 2.8576792927 2.91630358 
2.9825888767 3.0574329311 3.1415926536 2.718901062 2.7598010554 2.8307207459 2.8058000847 2.8800620952 2.95115522 
2.8576792927 2.9351694502 3.00855263 3.0774230472 2.91630358 2.9967168029 3.0719036933 3.1415926536 3.0774230472 
2.9825888767 3.0653475414 3.1415926536 3.0719036933 3.00855263 2.95115522 3.0574329311 3.1415926536 3.0653475414 