# vtk DataFile Version 5.1
vtk output
ASCII
DATASET POLYDATA
POINTS 1002 float
-5.54835 -0.32386 -3.19809 5.14635 -0.0827526 -4.36811 -4.93385 -0.126274 3.73937 
5.27009 0.569185 4.7733 -0.043497 5.30025 -2.84477 -0.427168 4.75903 2.22717 
-0.318188 -4.92122 -2.17355 -1.21183 -6.34469 3.60676 8.28157 3.4256 -0.132166 
-9.01508 4.35752 0.0688629 10.5613 -4.40393 -1.81618 -9.18423 -3.85719 -0.615777 
-4.7208 -0.246534 -3.38315 -3.73128 -0.137345 -3.57795 -2.5714 -0.0304488 -3.61831 
-1.24946 0.0751059 -3.49508 0.154677 0.217105 -3.3982 1.46588 0.335654 -3.50338 
2.54933 0.300338 -3.79604 3.44675 0.125531 -4.12286 4.29149 -0.0339406 -4.33328 
-5.14726 0.228213 -3.45539 -4.61158 0.850689 -3.60278 -4.01706 1.55579 -3.54264 
-3.46364 2.28296 -3.40571 -2.94548 2.9511 -3.43472 -2.3543 3.60755 -3.64038 
-1.66792 4.29716 -3.77321 -1.00382 4.87 -3.64706 -0.462728 5.1806 -3.29374 
-5.34001 -0.80806 -2.99124 -4.94412 -1.25867 -2.8092 -4.3407 -1.66094 -2.81334 
-3.61469 -2.07123 -3.0364 -2.92587 -2.57358 -3.25051 -2.3715 -3.16631 -3.20374 
-1.9066 -3.75485 -2.93845 -1.42909 -4.25721 -2.66185 -0.892226 -4.64608 -2.43488 
-6.08917 -0.0116598 -3.22573 -6.62159 0.386681 -3.24932 -7.14655 0.794144 -3.29679 
-7.6411 1.10169 -3.31227 -8.10063 1.34901 -3.0705 -8.54523 1.77272 -2.43357 
-8.93189 2.50452 -1.61023 -9.15576 3.34715 -0.906142 -9.16859 4.0012 -0.38409 
-6.21505 -0.716641 -3.06751 -6.90523 -1.21909 -3.30204 -7.69526 -1.8556 -3.8841 
-8.60182 -2.54016 -4.35498 -9.42247 -3.12983 -4.22191 -9.85836 -3.57074 -3.52324 
-9.86557 -3.88325 -2.65288 -9.67028 -4.04361 -1.84968 -9.44517 -4.01853 -1.16142 
4.94029 0.420433 -4.53784 4.67099 0.975328 -4.61433 4.31472 1.6122 -4.51073 
3.82454 2.2919 -4.20732 3.17814 2.89721 -3.73917 2.43027 3.39105 -3.1876 
1.68496 3.86935 -2.74544 1.02004 4.38172 -2.60387 0.452066 4.871 -2.71659 
4.76121 -0.617711 -4.1644 4.33979 -1.1802 -3.91657 3.92076 -1.63633 -3.66351 
3.49937 -1.96064 -3.34887 3.02994 -2.31128 -2.92249 2.46757 -2.79269 -2.47367 
1.8028 -3.31804 -2.16584 1.07034 -3.82094 -2.06996 0.33897 -4.34978 -2.11618 
5.92371 0.239175 -4.32613 6.66326 0.572496 -4.03318 7.22603 0.9153 -3.57205 
7.65478 1.28882 -3.15625 8.12441 1.67703 -2.87887 8.60633 2.0602 -2.57315 
8.84883 2.46895 -2.05896 8.76266 2.89438 -1.38232 8.51762 3.23896 -0.707557 
5.83263 -0.375227 -4.19519 6.59379 -0.706154 -3.97287 7.37129 -1.15154 -3.69075 
8.11284 -1.67566 -3.3292 8.80117 -2.15961 -2.94989 9.4409 -2.62959 -2.68669 
10.017 -3.22248 -2.56942 10.456 -3.87147 -2.46141 10.6533 -4.31483 -2.21887 
-4.22545 -0.203398 3.88884 -3.37939 -0.272065 4.06708 -2.35446 -0.279281 4.30489 
-1.20297 -0.234292 4.59098 -0.0629205 -0.195538 4.78977 0.998457 -0.160807 4.73246 
2.05136 -0.0586167 4.49673 3.1565 0.138419 4.38228 4.26102 0.3735 4.52754 
-4.72224 0.349933 3.78252 -4.40179 0.907597 3.6815 -3.95728 1.60327 3.58548 
-3.42048 2.37973 3.62143 -2.86037 3.07346 3.67346 -2.32604 3.61131 3.53755 
-1.81469 4.04709 3.22451 -1.31645 4.3937 2.87631 -0.848658 4.61986 2.54782 
-4.66882 -0.658676 3.65485 -4.36413 -1.2883 3.57929 -4.04234 -2.00252 3.69909 
-3.69845 -2.72719 3.99472 -3.30459 -3.41158 4.17544 -2.87308 -4.06271 4.09951 
-2.45863 -4.68739 3.967 -2.07252 -5.28295 3.92175 -1.66781 -5.84665 3.84661 
-5.51622 0.240993 3.64869 -6.14931 0.667425 3.46904 -6.78622 1.15662 3.1905 
-7.34088 1.65621 2.87339 -7.78231 2.10775 2.53346 -8.185 2.54527 2.0786 
-8.59941 3.05148 1.47746 -8.94317 3.60569 0.867149 -9.09421 4.07625 0.393661 
-5.45694 -0.411429 3.50751 -6.01626 -0.781089 3.1709 -6.62048 -1.18294 2.82059 
-7.2377 -1.55625 2.49644 -7.81573 -1.91745 2.09078 -8.33711 -2.29872 1.52794 
-8.78904 -2.67273 0.922021 -9.10569 -3.03526 0.392393 -9.22865 -3.43145 -0.0959075 
5.02613 0.979159 4.4435 4.69471 1.36272 4.0501 4.33735 1.83562 3.92081 
3.95261 2.45334 4.13038 3.4119 3.03023 4.27918 2.63105 3.35401 3.97175 
1.73395 3.53155 3.34206 0.904765 3.82336 2.78168 0.197353 4.27892 2.44167 
4.83664 -0.0275902 4.81985 4.30607 -0.694794 4.808 3.64548 -1.35502 4.77747 
2.85671 -2.058 4.7391 2.03351 -2.89283 4.6426 1.27678 -3.72684 4.45141 
0.572649 -4.38071 4.21313 -0.121627 -4.96216 4.00015 -0.747904 -5.64388 3.81716 
6.12551 0.979966 4.83161 6.99623 1.31457 4.71394 7.77267 1.55467 4.28491 
8.34856 1.76163 3.62153 8.69748 2.00098 2.91544 8.8605 2.25477 2.23783 
8.86256 2.494 1.57743 8.71907 2.76179 0.965295 8.49635 3.09057 0.410406 
5.95558 0.335522 4.86157 6.6151 -0.031689 4.43667 7.29464 -0.499906 3.50372 
8.02912 -0.991508 2.43928 8.75509 -1.46444 1.60908 9.39821 -1.97049 0.954578 
9.96985 -2.59207 0.216187 10.4401 -3.3087 -0.617744 10.6682 -3.96708 -1.34218 
-0.158114 5.61684 -2.49167 -0.356139 6.03561 -1.91916 -0.525927 6.58179 -1.20311 
-0.592687 7.00296 -0.510146 -0.651047 6.9298 0.0134324 -0.789425 6.37943 0.395377 
-0.884309 5.77024 0.805118 -0.797049 5.36564 1.31869 -0.594618 5.07812 1.83398 
0.717244 5.19567 -2.37927 1.65738 5.30525 -2.0722 2.63773 5.51522 -1.89576 
3.51587 5.48068 -1.6516 4.36857 5.15212 -1.33442 5.33254 4.89109 -1.16463 
6.30918 4.80575 -1.12221 7.1149 4.58136 -0.938582 7.74013 4.05909 -0.548395 
-0.732883 5.70238 -3.12931 -1.46028 6.09213 -3.07013 -2.37323 6.27235 -2.5237 
-3.52365 6.1813 -1.78735 -4.73613 5.98336 -1.24158 -5.8096 5.82554 -0.842565 
-6.74607 5.642 -0.409216 -7.62145 5.31892 -0.0539297 -8.40559 4.86534 0.0748025 
0.465911 4.69875 2.10948 1.61293 4.94098 2.16962 2.86146 5.47166 2.31063 
3.93664 5.93931 2.29607 4.74804 5.94369 1.96231 5.48395 5.48324 1.40315 
6.28061 4.88227 0.856521 7.05524 4.3572 0.451997 7.71587 3.89423 0.150711 
-1.256 5.17762 2.28574 -2.09826 5.59716 2.35212 -3.02318 5.93725 2.27268 
-4.05186 6.2394 2.10623 -5.13735 6.47991 2.06848 -6.1875 6.45136 2.10034 
-7.09934 6.05449 1.86418 -7.8384 5.47137 1.27777 -8.45966 4.89833 0.606676 
-0.316047 -5.44559 -1.90625 -0.294342 -6.00001 -1.44824 -0.277728 -6.46937 -0.832005 
-0.279964 -6.76224 -0.141817 -0.317962 -6.97669 0.518739 -0.42502 -7.26778 1.13755 
-0.619932 -7.52092 1.80114 -0.867271 -7.45244 2.516 -1.08705 -6.99572 3.15405 
0.713399 -4.74062 -1.81374 1.86723 -4.56688 -1.4085 3.05788 -4.59049 -1.1264 
4.20297 -4.8632 -1.13904 5.26431 -5.19016 -1.33773 6.30418 -5.34004 -1.46676 
7.43883 -5.27072 -1.52341 8.64973 -5.06294 -1.65052 9.74658 -4.7712 -1.80278 
-1.27416 -5.32172 -2.3688 -2.17067 -5.50394 -2.43136 -3.02223 -5.34755 -2.29259 
-3.97114 -5.0127 -2.06593 -5.08625 -4.81614 -1.9364 -6.21428 -4.84883 -1.90782 
-7.17857 -4.88948 -1.79741 -7.97064 -4.71943 -1.49042 -8.64218 -4.33408 -1.05352 
-0.392328 -6.28814 3.33253 0.664182 -5.99151 2.91933 1.91682 -5.53093 2.48473 
3.30116 -5.08126 2.03847 4.7824 -4.75966 1.46651 6.28519 -4.56669 0.750297 
7.66976 -4.4833 0.00182194 8.84833 -4.48889 -0.701628 9.81364 -4.49962 -1.32501 
-1.83305 -6.57133 3.47969 -2.40728 -6.4363 3.13158 -3.07428 -6.00482 2.58988 
-3.91043 -5.56846 2.00307 -4.79431 -5.24875 1.44303 -5.63373 -4.86837 0.848731 
-6.5361 -4.39683 0.2616 -7.5404 -4.05744 -0.165741 -8.4751 -3.9292 -0.416062 
8.98935 2.75706 -0.141799 9.81856 2.13052 -0.328603 10.7277 1.51132 -0.653705 
11.5642 0.767598 -0.923566 12.1423 -0.182845 -1.04813 12.3738 -1.28337 -1.18995 
12.2805 -2.38255 -1.48118 11.9104 -3.3092 -1.7921 11.3124 -3.96964 -1.92039 
-9.65244 3.66801 -0.178941 -10.2223 2.87745 -0.311228 -10.6015 1.91876 -0.362306 
-10.7249 0.809333 -0.451909 -10.6613 -0.276816 -0.613917 -10.5453 -1.20479 -0.712198 
-10.4173 -2.02453 -0.650581 -10.1893 -2.78404 -0.537172 -9.77372 -3.41273 -0.522204 
-4.22493 0.341959 -3.65992 -3.60165 1.02904 -3.73235 -3.13837 0.485262 -3.72117 
-2.9529 1.78516 -3.61206 -2.44973 1.1946 -3.6943 -1.87858 0.589657 -3.56861 
-2.36042 2.49763 -3.49917 -1.76698 1.9254 -3.61774 -1.15246 1.2614 -3.55233 
-0.479242 0.67375 -3.38605 -1.80338 3.10934 -3.50168 -1.14475 2.56328 -3.55028 
-0.470324 1.92532 -3.63051 0.232939 1.29746 -3.54169 0.917498 0.7915 -3.44301 
-1.22462 3.69316 -3.48924 -0.581311 3.09206 -3.38797 0.148037 2.50097 -3.58527 
0.874741 1.90954 -3.78859 1.56286 1.36478 -3.81534 2.1362 0.855075 -3.78933 
-0.628799 4.23988 -3.32716 -0.0519546 3.5789 -3.10104 0.692874 2.98948 -3.28841 
1.46718 2.45789 -3.75483 2.16279 1.91626 -4.12322 2.72815 1.35046 -4.25163 
3.14614 0.753067 -4.22263 -0.0591809 4.63288 -3.04078 0.479565 4.01744 -2.81399 
1.18723 3.44018 -2.94513 1.98249 2.94279 -3.45772 2.72388 2.42662 -4.04633 
3.31518 1.82366 -4.43958 3.74464 1.18348 -4.5732 4.05468 0.558643 -4.50413 
-5.66298 0.599769 -3.37747 -6.18581 1.0532 -3.3118 -5.1181 1.26021 -3.43235 
-6.68656 1.50516 -3.30849 -5.63927 1.75216 -3.31264 -4.55089 1.98665 -3.33907 
-7.12139 1.87725 -3.18353 -6.09811 2.27647 -3.22616 -5.07417 2.50104 -3.22388 
-4.02699 2.71031 -3.29059 -7.51164 2.27334 -2.65941 -6.45646 2.79422 -2.88374 
-5.47208 3.08782 -3.03323 -4.49432 3.226 -3.20549 -3.43606 3.41467 -3.47843 
-7.89412 2.89081 -1.8209 -6.791 3.38067 -2.16067 -5.77026 3.7132 -2.50433 
-4.79466 3.83334 -2.84889 -3.74343 3.97802 -3.33543 -2.65935 4.20114 -3.76521 
-8.21454 3.69151 -1.03095 -7.14549 4.09039 -1.34406 -6.0991 4.38204 -1.75604 
-5.0721 4.49246 -2.16152 -3.95961 4.61322 -2.7357 -2.82105 4.84714 -3.45811 
-1.82757 4.98786 -3.84707 -8.38945 4.40916 -0.435661 -7.44638 4.79375 -0.663413 
-6.45989 5.06142 -1.0605 -5.44154 5.17829 -1.45292 -4.29462 5.29166 -1.91776 
-3.07125 5.50126 -2.65747 -1.99827 5.6364 -3.38576 -1.16846 5.50985 -3.60263 
-7.83356 5.51597 0.634911 -7.176 6.15131 1.27402 -7.04196 6.01045 0.415826 
-6.36048 6.6927 1.72486 -6.33461 6.65499 0.892068 -6.14532 6.34488 -0.0832105 
-5.37673 6.92672 1.80082 -5.44423 7.14709 1.14974 -5.36694 7.05558 0.200244 
-5.12949 6.62158 -0.625681 -4.32738 6.75977 1.71279 -4.44798 7.25734 1.15539 
-4.43285 7.57811 0.344868 -4.28934 7.45948 -0.4674 -3.9594 6.89786 -1.12278 
-3.3221 6.36468 1.72953 -3.48687 6.92734 1.13191 -3.48651 7.59461 0.43676 
-3.38919 7.94861 -0.300143 -3.15982 7.66782 -0.993634 -2.76672 6.97917 -1.71813 
-2.39272 5.91986 1.79918 -2.60403 6.36292 1.17434 -2.61956 7.08689 0.561638 
[...]
POINT_DATA 1002
FIELD FieldData 4
_paraPhi 1 1002 double
6.2831853072 3.1415926536 6.2831853072 3.1415926536 4.7123889804 4.7123889804 1.5707963268 1.5707963268 3.6951670125 
5.7296109483 2.5880182947 0.5535743589 6.2831853072 6.2831853072 6.2831853072 6.2831853072 3.1415926536 3.1415926536 
3.1415926536 3.1415926536 3.1415926536 6.1053039672 5.898798347 5.6768734901 5.4599499503 5.2659633393 5.1032165617 
4.9713148346 4.8656852733 4.7809517865 0.17788134 0.38438696014 0.60631181711 0.82323535693 1.0172219679 1.1799687454 
1.3118704726 1.4175000338 1.5022335207 6.1892828907 6.1070320098 6.035312792 5.9728339911 5.9183214791 5.8706119594 
5.8286879411 5.7916808611 5.7588591896 0.093902416448 0.17615329733 0.2478725152 0.31035131605 0.36486382811 0.41257334776 
0.45449736604 0.4915044461 0.52432611754 3.3194739936 3.5259796137 3.7479044707 3.9648280105 4.1588146215 4.321561399 
4.4534631262 4.5590926874 4.6438261743 2.9637113136 2.7572056934 2.5352808365 2.3183572967 2.1243706857 1.9616239082 
1.829722181 1.7240926197 1.6393591329 3.23549507 3.3177459509 3.3894651688 3.4519439696 3.5064564817 3.5541660013 
3.5960900196 3.6330970997 3.6659187711 3.0476902371 2.9654393563 2.8937201384 2.8312413375 2.7767288255 2.7290193058 
2.6870952876 2.6500882075 2.617266536 6.2831853072 6.2831853072 6.2831853072 6.2831853072 3.1415926536 3.1415926536 
3.1415926536 3.1415926536 3.1415926536 6.1053039672 5.898798347 5.6768734901 5.4599499503 5.2659633393 5.1032165617 
4.9713148346 4.8656852733 4.7809517865 0.17788134 0.38438696014 0.60631181711 0.82323535693 1.0172219679 1.1799687454 
1.3118704726 1.4175000338 1.5022335207 6.1892828907 6.1070320098 6.035312792 5.9728339911 5.9183214791 5.8706119594 
5.8286879411 5.7916808611 5.7588591896 0.093902416448 0.17615329733 0.2478725152 0.31035131605 0.36486382811 0.41257334776 
0.45449736604 0.4915044461 0.52432611754 3.3194739936 3.5259796137 3.7479044707 3.9648280105 4.1588146215 4.321561399 
4.4534631262 4.5590926874 4.6438261743 2.9637113136 2.7572056934 2.5352808365 2.3183572967 2.1243706857 1.9616239082 
1.829722181 1.7240926197 1.6393591329 3.23549507 3.3177459509 3.3894651688 3.4519439696 3.5064564817 3.5541660013 
3.5960900196 3.6330970997 3.6659187711 3.0476902371 2.9654393563 2.8937201384 2.8312413375 2.7767288255 2.7290193058 
2.6870952876 2.6500882075 2.617266536 4.7123889804 4.7123889804 4.7123889804 4.7123889804 4.7123889804 4.7123889804 
4.7123889804 4.7123889804 4.7123889804 4.6087898617 4.4991390697 4.3857031936 4.2712800401 4.1588146215 4.0509635631 
3.94975894 3.8564636551 3.7716124825 4.8159880991 4.9256388911 5.0390747672 5.1534979207 5.2659633393 5.3738143976 
5.4750190208 5.5683143056 5.6531654782 4.6087898617 4.4991390697 4.3857031936 4.2712800401 4.1588146215 4.0509635631 
3.94975894 3.8564636551 3.7716124825 4.8159880991 4.9256388911 5.0390747672 5.1534979207 5.2659633393 5.3738143976 
5.4750190208 5.5683143056 5.6531654782 1.5707963268 1.5707963268 1.5707963268 1.5707963268 1.5707963268 1.5707963268 
1.5707963268 1.5707963268 1.5707963268 1.6743954455 1.7840462375 1.8974821136 2.0119052671 2.1243706857 2.232221744 
2.3334263672 2.426721652 2.5115728246 1.4671972081 1.3575464161 1.24411054 1.1296873865 1.0172219679 0.90937090954 
0.80816628637 0.71487100155 0.63001982895 1.6743954455 1.7840462375 1.8974821136 2.0119052671 2.1243706857 2.232221744 
2.3334263672 2.426721652 2.5115728246 1.4671972081 1.3575464161 1.24411054 1.1296873865 1.0172219679 0.90937090954 
0.80816628637 0.71487100155 0.63001982895 3.6007720849 3.4966939854 3.3839471039 3.2645756454 3.1415926536 3.0186096618 
2.8992382033 2.7864913217 2.6824132222 5.8240058758 5.9280839753 6.0408308569 6.1602023154 6.2831853072 0.12298299178 
0.2423544503 0.35510133185 0.45917943135 6.0560271438 5.7885595667 5.9702140275 5.5125918794 5.6029703303 5.7885595667 
5.2659633393 5.2659633393 5.2659633393 5.2659633393 5.0674903122 5.0120975802 4.9155579264 4.7123889804 4.1588146215 
4.9155579264 4.8353719722 4.7123889804 4.5092200343 4.1588146215 3.6362183941 4.8004512023 4.7123889804 4.5894059886 
4.4126803806 4.1588146215 3.8218076305 3.4545639333 4.7123889804 4.6243267584 4.5092200343 4.3572876485 4.1588146215 
3.9121860814 3.6362183941 3.368750817 6.0174235957 5.9434319871 5.8263323547 5.8809213739 5.7674481418 5.6279784266 
5.8278025282 5.718968232 5.5891129425 5.4372443565 5.7823484065 5.678536687 5.5575666702 5.4192596322 5.2659633393 
5.743164462 5.6444075337 5.5314983644 5.4046708639 5.2659633393 5.1195510325 5.7091357773 5.6152775188 5.5096229709 
5.3926039573 5.2659633393 5.1329233157 4.9978930058 5.6793730533 5.5901633916 5.4910209005 5.3824597928 5.2659633393 
5.1440684722 5.0201624502 4.8979782167 5.5683143056 5.4750190208 5.4750190208 5.3738143976 5.3738143976 5.3738143976 
5.2659633393 5.2659633393 5.2659633393 5.2659633393 5.1534979207 5.1534979207 5.1534979207 5.1534979207 5.1534979207 
5.0390747672 5.0390747672 5.0390747672 5.0390747672 5.0390747672 5.0390747672 4.9256388911 4.9256388911 4.9256388911 
4.9256388911 4.9256388911 4.9256388911 4.9256388911 4.8159880991 4.8159880991 4.8159880991 4.8159880991 4.8159880991 
4.8159880991 4.8159880991 4.8159880991 4.6087898617 4.6087898617 4.4991390697 4.6087898617 4.4991390697 4.3857031936 
4.6087898617 4.4991390697 4.3857031936 4.2712800401 4.6087898617 4.4991390697 4.3857031936 4.2712800401 4.1588146215 
4.6087898617 4.4991390697 4.3857031936 4.2712800401 4.1588146215 4.0509635631 4.6087898617 4.4991390697 4.3857031936 
4.2712800401 4.1588146215 4.0509635631 3.94975894 4.6087898617 4.4991390697 4.3857031936 4.2712800401 4.1588146215 
4.0509635631 3.94975894 3.8564636551 4.526799744 4.4046155105 4.426884955 4.2807094886 4.2918546451 4.3052269283 
4.1588146215 4.1588146215 4.1588146215 4.1588146215 4.042318168 4.0321740035 4.0201070968 4.0055183285 3.9875336042 
3.9337570603 3.9151549899 3.8932795963 3.8672112905 3.8356650183 3.7967995342 3.8346145692 3.809500442 3.7803704271 
3.7462412737 3.7058097288 3.657329819 3.5984456061 3.7454049075 3.7156421835 3.6816134988 3.6424295543 3.5969754326 
3.5438565869 3.4813459737 3.4073543651 3.5642842451 3.4524645613 3.5233842518 3.3320300872 3.403123212 3.4773852225 
3.20576226 3.2746326772 3.348015857 3.4255060145 3.0774230472 3.1415926536 3.2112816139 3.2864685043 3.3668817272 
2.95115522 3.00855263 3.0719036933 3.1415926536 3.2178377658 3.3005964304 2.8307207459 2.8800620952 2.9351694502 
2.9967168029 3.0653475414 3.1415926536 3.225752376 2.718901062 2.7598010554 2.8058000847 2.8576792927 2.91630358 
2.9825888767 3.0574329311 3.1415926536 3.5642842451 3.5233842518 3.4524645613 3.4773852225 3.403123212 3.3320300872 
3.4255060145 3.348015857 3.2746326772 3.20576226 3.3668817272 3.2864685043 3.2112816139 3.1415926536 3.0774230472 
3.3005964304 3.2178377658 3.1415926536 3.0719036933 3.00855263 2.95115522 3.225752376 3.1415926536 3.0653475414 
2.9967168029 2.9351694502 2.8800620952 2.8307207459 3.1415926536 3.0574329311 2.9825888767 2.91630358 2.8576792927 
2.8058000847 2.7598010554 2.718901062 4.526799744 4.426884955 4.4046155105 4.3052269283 4.2918546451 4.2807094886 
4.1588146215 4.1588146215 4.1588146215 4.1588146215 3.9875336042 4.0055183285 4.0201070968 4.0321740035 4.042318168 
3.7967995342 3.8356650183 3.8672112905 3.8932795963 3.9151549899 3.9337570603 3.5984456061 3.657329819 3.7058097288 
3.7462412737 3.7803704271 3.809500442 3.8346145692 3.4073543651 3.4813459737 3.5438565869 3.5969754326 3.6424295543 
3.6816134988 3.7156421835 3.7454049075 4.7123889804 4.8004512023 4.6243267584 4.9155579264 4.7123889804 4.5092200343 
5.0674903122 4.8353719722 4.5894059886 4.3572876485 5.2659633393 5.0120975802 4.7123889804 4.4126803806 4.1588146215 
5.5125918794 5.2659633393 4.9155579264 4.5092200343 4.1588146215 3.9121860814 5.7885595667 5.6029703303 5.2659633393 
4.7123889804 4.1588146215 3.8218076305 3.6362183941 6.0560271438 5.9702140275 5.7885595667 5.2659633393 4.1588146215 
3.6362183941 3.4545639333 3.368750817 0.22715816343 0.49462574053 0.3129712797 0.77059342779 0.68021497688 0.49462574053 
1.0172219679 1.0172219679 1.0172219679 1.0172219679 1.2156949949 1.271087727 1.3676273807 1.5707963268 2.1243706857 
1.3676273807 1.447813335 1.5707963268 1.7739652728 2.1243706857 2.6469669131 1.4827341049 1.5707963268 1.6937793186 
1.8705049266 2.1243706857 2.4613776767 2.8286213739 1.5707963268 1.6588585487 1.7739652728 1.9258976586 2.1243706857 
2.3709992258 2.6469669131 2.9144344902 1.7563855631 1.8785697967 1.8563003522 2.0024758186 1.9913306621 1.9779583789 
2.1243706857 2.1243706857 2.1243706857 2.1243706857 2.2408671392 2.2510113037 2.2630782103 2.2776669786 2.295651703 
2.3494282469 2.3680303173 2.3899057108 2.4159740166 2.4475202889 2.486385773 2.448570738 2.4736848652 2.5028148801 
2.5369440334 2.5773755784 2.6258554882 2.6847397011 2.5377803997 2.5675431237 2.6015718084 2.6407557529 2.6862098746 
2.7393287203 2.8018393335 2.8758309421 1.6743954455 1.6743954455 1.7840462375 1.6743954455 1.7840462375 1.8974821136 
1.6743954455 1.7840462375 1.8974821136 2.0119052671 1.6743954455 1.7840462375 1.8974821136 2.0119052671 2.1243706857 
1.6743954455 1.7840462375 1.8974821136 2.0119052671 2.1243706857 2.232221744 1.6743954455 1.7840462375 1.8974821136 
2.0119052671 2.1243706857 2.232221744 2.3334263672 1.6743954455 1.7840462375 1.8974821136 2.0119052671 2.1243706857 
2.232221744 2.3334263672 2.426721652 1.4671972081 1.3575464161 1.4671972081 1.24411054 1.3575464161 1.4671972081 
1.1296873865 1.24411054 1.3575464161 1.4671972081 1.0172219679 1.1296873865 1.24411054 1.3575464161 1.4671972081 
0.90937090954 1.0172219679 1.1296873865 1.24411054 1.3575464161 1.4671972081 0.80816628637 0.90937090954 1.0172219679 
1.1296873865 1.24411054 1.3575464161 1.4671972081 0.71487100155 0.80816628637 0.90937090954 1.0172219679 1.1296873865 
1.24411054 1.3575464161 1.4671972081 0.60381225391 0.57404952988 0.69302191562 0.54002084522 0.66790778838 0.79216440667 
0.50083690068 0.63877777351 0.77356233629 0.90072551443 0.45538277901 0.60464862014 0.75168694275 0.89058134991 1.0172219679 
0.40226393329 0.56421707518 0.72561863695 0.87851444325 1.0172219679 1.139116835 0.33975332011 0.51573716537 0.69407236469 
0.86392567495 1.0172219679 1.1502619915 1.2630228569 0.26576171152 0.45685295248 0.6552068806 0.84594095064 1.0172219679 
1.1636342747 1.2852923014 1.3852070904 0.22715816343 0.3129712797 0.49462574053 0.49462574053 0.68021497688 0.77059342779 
1.0172219679 1.0172219679 1.0172219679 1.0172219679 2.1243706857 1.5707963268 1.3676273807 1.271087727 1.2156949949 
2.6469669131 2.1243706857 1.7739652728 1.5707963268 1.447813335 1.3676273807 2.8286213739 2.4613776767 2.1243706857 
1.8705049266 1.6937793186 1.5707963268 1.4827341049 2.9144344902 2.6469669131 2.3709992258 2.1243706857 1.9258976586 
1.7739652728 1.6588585487 1.5707963268 1.7563855631 1.8563003522 1.8785697967 1.9779583789 1.9913306621 2.0024758186 
2.1243706857 2.1243706857 2.1243706857 2.1243706857 2.295651703 2.2776669786 2.2630782103 2.2510113037 2.2408671392 
2.486385773 2.4475202889 2.4159740166 2.3899057108 2.3680303173 2.3494282469 2.6847397011 2.6258554882 2.5773755784 
2.5369440334 2.5028148801 2.4736848652 2.448570738 2.8758309421 2.8018393335 2.7393287203 2.6862098746 2.6407557529 
2.6015718084 2.5675431237 2.5377803997 5.8604937156 5.901393709 5.9723133995 5.9473927383 6.0216547488 6.0927478736 
5.9992719463 6.0767621038 6.1501452836 6.2190157008 6.0578962336 6.1383094565 6.2134963469 0 0.064169606361 
6.1241815303 6.206940195 6.2831853072 0.069688960264 0.13304002361 0.19043743361 6.1990255847 0 0.07624511221 
0.14487585072 0.20642320337 0.26153055843 0.3108719077 0 0.084159722458 0.15900377685 0.22528907359 0.28391336087 
0.3357925689 0.38179159818 0.42269159155 5.8604937156 5.9723133995 5.901393709 6.0927478736 6.0216547488 5.9473927383 
6.2190157008 6.1501452836 6.0767621038 5.9992719463 0.064169606361 0 6.2134963469 6.1383094565 6.0578962336 
0.19043743361 0.13304002361 0.069688960264 6.2831853072 6.206940195 6.1241815303 0.3108719077 0.26153055843 0.20642320337 
0.14487585072 0.07624511221 6.2831853072 6.1990255847 0.42269159155 0.38179159818 0.3357925689 0.28391336087 0.22528907359 
0.15900377685 0.084159722458 0 5.6793730533 5.7091357773 5.5901633916 5.743164462 5.6152775188 5.4910209005 
5.7823484065 5.6444075337 5.5096229709 5.3824597928 5.8278025282 5.678536687 5.5314983644 5.3926039573 5.2659633393 
5.8809213739 5.718968232 5.5575666702 5.4046708639 5.2659633393 5.1440684722 5.9434319871 5.7674481418 5.5891129425 
5.4192596322 5.2659633393 5.1329233157 5.0201624502 6.0174235957 5.8263323547 5.6279784266 5.4372443565 5.2659633393 
5.1195510325 4.9978930058 4.8979782167 1.3852070904 1.2852923014 1.2630228569 1.1636342747 1.1502619915 1.139116835 
1.0172219679 1.0172219679 1.0172219679 1.0172219679 0.84594095064 0.86392567495 0.87851444325 0.89058134991 0.90072551443 
0.6552068806 0.69407236469 0.72561863695 0.75168694275 0.77356233629 0.79216440667 0.45685295248 0.51573716537 0.56421707518 
0.60464862014 0.63877777351 0.66790778838 0.69302191562 0.26576171152 0.33975332011 0.40226393329 0.45538277901 0.50083690068 
0.54002084522 0.57404952988 0.60381225391 
_paraPhiHalf 1 1002 double
0 3.1415926536 0 3.1415926536 1.5707963268 1.5707963268 1.5707963268 1.5707963268 2.5880182947 
0.5535743589 2.5880182947 0.5535743589 0 0 0 0 3.1415926536 3.1415926536 
3.1415926536 3.1415926536 3.1415926536 0.17788134 0.38438696014 0.60631181711 0.82323535693 1.0172219679 1.1799687454 
1.3118704726 1.4175000338 1.5022335207 0.17788134 0.38438696014 0.60631181711 0.82323535693 1.0172219679 1.1799687454 
1.3118704726 1.4175000338 1.5022335207 0.093902416448 0.17615329733 0.2478725152 0.31035131605 0.36486382811 0.41257334776 
0.45449736604 0.4915044461 0.52432611754 0.093902416448 0.17615329733 0.2478725152 0.31035131605 0.36486382811 0.41257334776 
0.45449736604 0.4915044461 0.52432611754 2.9637113136 2.7572056934 2.5352808365 2.3183572967 2.1243706857 1.9616239082 
1.829722181 1.7240926197 1.6393591329 2.9637113136 2.7572056934 2.5352808365 2.3183572967 2.1243706857 1.9616239082 
1.829722181 1.7240926197 1.6393591329 3.0476902371 2.9654393563 2.8937201384 2.8312413375 2.7767288255 2.7290193058 
2.6870952876 2.6500882075 2.617266536 3.0476902371 2.9654393563 2.8937201384 2.8312413375 2.7767288255 2.7290193058 
2.6870952876 2.6500882075 2.617266536 0 0 0 0 3.1415926536 3.1415926536 
3.1415926536 3.1415926536 3.1415926536 0.17788134 0.38438696014 0.60631181711 0.82323535693 1.0172219679 1.1799687454 
1.3118704726 1.4175000338 1.5022335207 0.17788134 0.38438696014 0.60631181711 0.82323535693 1.0172219679 1.1799687454 
1.3118704726 1.4175000338 1.5022335207 0.093902416448 0.17615329733 0.2478725152 0.31035131605 0.36486382811 0.41257334776 
0.45449736604 0.4915044461 0.52432611754 0.093902416448 0.17615329733 0.2478725152 0.31035131605 0.36486382811 0.41257334776 
0.45449736604 0.4915044461 0.52432611754 2.9637113136 2.7572056934 2.5352808365 2.3183572967 2.1243706857 1.9616239082 
1.829722181 1.7240926197 1.6393591329 2.9637113136 2.7572056934 2.5352808365 2.3183572967 2.1243706857 1.9616239082 
1.829722181 1.7240926197 1.6393591329 3.0476902371 2.9654393563 2.8937201384 2.8312413375 2.7767288255 2.7290193058 
2.6870952876 2.6500882075 2.617266536 3.0476902371 2.9654393563 2.8937201384 2.8312413375 2.7767288255 2.7290193058 
2.6870952876 2.6500882075 2.617266536 1.5707963268 1.5707963268 1.5707963268 1.5707963268 1.5707963268 1.5707963268 
1.5707963268 1.5707963268 1.5707963268 1.6743954455 1.7840462375 1.8974821136 2.0119052671 2.1243706857 2.232221744 
2.3334263672 2.426721652 2.5115728246 1.4671972081 1.3575464161 1.24411054 1.1296873865 1.0172219679 0.90937090954 
0.80816628637 0.71487100155 0.63001982895 1.6743954455 1.7840462375 1.8974821136 2.0119052671 2.1243706857 2.232221744 
2.3334263672 2.426721652 2.5115728246 1.4671972081 1.3575464161 1.24411054 1.1296873865 1.0172219679 0.90937090954 
0.80816628637 0.71487100155 0.63001982895 1.5707963268 1.5707963268 1.5707963268 1.5707963268 1.5707963268 1.5707963268 
1.5707963268 1.5707963268 1.5707963268 1.6743954455 1.7840462375 1.8974821136 2.0119052671 2.1243706857 2.232221744 
2.3334263672 2.426721652 2.5115728246 1.4671972081 1.3575464161 1.24411054 1.1296873865 1.0172219679 0.90937090954 
0.80816628637 0.71487100155 0.63001982895 1.6743954455 1.7840462375 1.8974821136 2.0119052671 2.1243706857 2.232221744 
2.3334263672 2.426721652 2.5115728246 1.4671972081 1.3575464161 1.24411054 1.1296873865 1.0172219679 0.90937090954 
0.80816628637 0.71487100155 0.63001982895 2.6824132222 2.7864913217 2.8992382033 3.0186096618 3.1415926536 3.0186096618 
2.8992382033 2.7864913217 2.6824132222 0.45917943135 0.35510133185 0.2423544503 0.12298299178 0 0.12298299178 
0.2423544503 0.35510133185 0.45917943135 0.22715816343 0.49462574053 0.3129712797 0.77059342779 0.68021497688 0.49462574053 
1.0172219679 1.0172219679 1.0172219679 1.0172219679 1.2156949949 1.271087727 1.3676273807 1.5707963268 2.1243706857 
1.3676273807 1.447813335 1.5707963268 1.7739652728 2.1243706857 2.6469669131 1.4827341049 1.5707963268 1.6937793186 
1.8705049266 2.1243706857 2.4613776767 2.8286213739 1.5707963268 1.6588585487 1.7739652728 1.9258976586 2.1243706857 
2.3709992258 2.6469669131 2.9144344902 0.26576171152 0.33975332011 0.45685295248 0.40226393329 0.51573716537 0.6552068806 
0.45538277901 0.56421707518 0.69407236469 0.84594095064 0.50083690068 0.60464862014 0.72561863695 0.86392567495 1.0172219679 
0.54002084522 0.63877777351 0.75168694275 0.87851444325 1.0172219679 1.1636342747 0.57404952988 0.66790778838 0.77356233629 
0.89058134991 1.0172219679 1.1502619915 1.2852923014 0.60381225391 0.69302191562 0.79216440667 0.90072551443 1.0172219679 
1.139116835 1.2630228569 1.3852070904 0.71487100155 0.80816628637 0.80816628637 0.90937090954 0.90937090954 0.90937090954 
1.0172219679 1.0172219679 1.0172219679 1.0172219679 1.1296873865 1.1296873865 1.1296873865 1.1296873865 1.1296873865 
1.24411054 1.24411054 1.24411054 1.24411054 1.24411054 1.24411054 1.3575464161 1.3575464161 1.3575464161 
1.3575464161 1.3575464161 1.3575464161 1.3575464161 1.4671972081 1.4671972081 1.4671972081 1.4671972081 1.4671972081 
1.4671972081 1.4671972081 1.4671972081 1.6743954455 1.6743954455 1.7840462375 1.6743954455 1.7840462375 1.8974821136 
1.6743954455 1.7840462375 1.8974821136 2.0119052671 1.6743954455 1.7840462375 1.8974821136 2.0119052671 2.1243706857 
1.6743954455 1.7840462375 1.8974821136 2.0119052671 2.1243706857 2.232221744 1.6743954455 1.7840462375 1.8974821136 
2.0119052671 2.1243706857 2.232221744 2.3334263672 1.6743954455 1.7840462375 1.8974821136 2.0119052671 2.1243706857 
2.232221744 2.3334263672 2.426721652 1.7563855631 1.8785697967 1.8563003522 2.0024758186 1.9913306621 1.9779583789 
2.1243706857 2.1243706857 2.1243706857 2.1243706857 2.2408671392 2.2510113037 2.2630782103 2.2776669786 2.295651703 
2.3494282469 2.3680303173 2.3899057108 2.4159740166 2.4475202889 2.486385773 2.448570738 2.4736848652 2.5028148801 
2.5369440334 2.5773755784 2.6258554882 2.6847397011 2.5377803997 2.5675431237 2.6015718084 2.6407557529 2.6862098746 
2.7393287203 2.8018393335 2.8758309421 2.718901062 2.8307207459 2.7598010554 2.95115522 2.8800620952 2.8058000847 
3.0774230472 3.00855263 2.9351694502 2.8576792927 3.0774230472 3.1415926536 3.0719036933 2.9967168029 2.91630358 
2.95115522 3.00855263 3.0719036933 3.1415926536 3.0653475414 2.9825888767 2.8307207459 2.8800620952 2.9351694502 
2.9967168029 3.0653475414 3.1415926536 3.0574329311 2.718901062 2.7598010554 2.8058000847 2.8576792927 2.91630358 
2.9825888767 3.0574329311 3.1415926536 2.718901062 2.7598010554 2.8307207459 2.8058000847 2.8800620952 2.95115522 
2.8576792927 2.9351694502 3.00855263 3.0774230472 2.91630358 2.9967168029 3.0719036933 3.1415926536 3.0774230472 
2.9825888767 3.0653475414 3.1415926536 3.0719036933 3.00855263 2.95115522 3.0574329311 3.1415926536 3.0653475414 