# vtk DataFile Version 5.1
vtk output
ASCII
DATASET POLYDATA
POINTS 1002 float
15.2788 35.8223 11.1137 21.5803 44.3156 6.94763 14.7158 40.7448 19.139 
22.2005 47.0837 13.5764 13.382 44.712 9.1719 12.8386 48.036 14.9749 
24.3359 36.9054 13.1728 25.0282 39.5164 18.0592 20.0509 53.0227 7.51335 
7.02066 37.4304 16.8102 27.3504 47.169 12.354 16.469 33.1452 18.7405 
15.8466 36.3286 10.6183 16.4748 36.8972 10.0509 17.1246 37.4947 9.42786 
17.805 38.2058 8.83511 18.5797 39.1694 8.36913 19.4238 40.3182 8.00324 
20.1916 41.4196 7.63271 20.7874 42.3976 7.26792 21.2331 43.3486 7.02345 
14.9311 36.474 11.0136 14.5489 37.2598 10.8911 14.1268 38.0614 10.6804 
13.7864 38.8355 10.4089 13.6122 39.7288 10.1735 13.5173 40.8402 9.97838 
13.4174 42.0019 9.75807 13.354 43.0113 9.52392 13.3577 43.8779 9.32782 
16.026 35.5674 10.9774 17.0298 35.3676 10.9322 18.4091 35.1907 10.9395 
19.9095 35.0099 10.9559 21.0462 34.9006 11.0548 21.7627 35.0077 11.3675 
22.4338 35.3697 11.8784 23.1881 35.8811 12.4226 23.844 36.418 12.8637 
14.4622 35.7281 11.5655 13.5138 35.6567 12.1414 12.5188 35.6189 12.8388 
11.573 35.6439 13.5991 10.6222 35.6989 14.293 9.56986 35.7234 14.8229 
8.52124 35.8092 15.2583 7.70033 36.1407 15.7415 7.2116 36.7356 16.2908 
15.2202 35.2108 11.4827 15.2768 34.6697 11.8917 15.4063 34.1839 12.4053 
15.5301 33.7547 13.1542 15.6457 33.5131 14.1767 15.7904 33.5317 15.2626 
15.9338 33.5972 16.1948 16.0526 33.4802 17.0359 16.2115 33.2558 17.9142 
20.9134 44.4175 6.72044 20.1201 44.4728 6.48731 19.1399 44.4555 6.26101 
18.0504 44.4513 6.21565 17.0834 44.5812 6.53982 16.3258 44.7889 7.12497 
15.5925 44.8898 7.67286 14.7645 44.841 8.10797 13.9742 44.756 8.58047 
22.0295 43.6032 7.26103 22.4295 42.9222 7.78331 22.6781 42.2809 8.49736 
22.8577 41.5425 9.21884 23.1843 40.6012 9.82013 23.6543 39.5945 10.4069 
24.0123 38.7463 11.1188 24.1506 38.0836 11.9032 24.2135 37.4895 12.6112 
21.5033 45.4057 6.81882 21.4372 46.5401 6.66754 21.3921 47.5998 6.38547 
21.3738 48.6222 5.99668 21.3743 49.7475 5.66474 21.3116 50.9356 5.5194 
21.0722 51.945 5.61399 20.6784 52.6122 6.00331 20.2952 52.9482 6.6822 
22.1838 44.874 7.14205 22.8784 45.442 7.4066 23.6683 45.9395 7.70698 
24.4383 46.3603 8.07351 25.0587 46.7736 8.58475 25.555 47.2003 9.27367 
26.0328 47.5407 10.0832 26.5037 47.6585 10.9075 26.9344 47.5073 11.6665 
15.3232 41.2431 18.6983 16.0509 41.8402 18.242 16.8933 42.5487 17.6869 
17.7641 43.2188 16.9493 18.6368 43.7266 16.0868 19.5698 44.1822 15.2447 
20.5093 44.7633 14.5196 21.284 45.4896 13.9789 21.8227 46.2843 13.6755 
14.3113 41.4456 19.1645 13.9447 42.1788 19.1347 13.5933 42.8927 18.9066 
13.2989 43.5864 18.3851 13.1886 44.2903 17.6447 13.2653 45.0262 16.8877 
13.3234 45.8036 16.2667 13.2136 46.6055 15.7937 13.0052 47.372 15.3911 
15.5124 40.3887 18.8708 16.3409 40.0561 18.6149 17.2178 39.7068 18.2368 
18.2319 39.3263 17.7 19.467 39.0151 17.2539 20.826 38.8829 17.1478 
22.0797 38.9207 17.3153 23.1432 39.0648 17.5689 24.1085 39.275 17.8305 
13.7977 40.6542 19.625 12.7409 40.4427 20.0488 11.6827 39.9932 20.1367 
10.7346 39.3218 19.8011 9.82734 38.6303 19.335 8.84795 38.1342 19.045 
7.90065 37.8692 18.8222 7.22813 37.7185 18.3678 6.95189 37.5757 17.631 
14.6615 39.9744 19.4183 14.6076 39.0682 19.7216 14.465 38.0665 19.9708 
14.3292 37.0811 20.1132 14.4689 36.1874 20.2294 14.9476 35.3519 20.4028 
15.485 34.5548 20.4933 15.8586 33.8806 20.2471 16.1381 33.4127 19.6031 
21.5096 46.7395 13.0128 20.6615 46.6439 12.8027 19.7763 46.9229 12.9946 
18.9251 47.3567 13.3682 17.9744 47.6176 13.6987 16.8196 47.7245 13.9747 
15.6136 47.8986 14.2666 14.5446 48.118 14.57 13.6332 48.1864 14.8265 
22.5915 46.9332 14.323 22.9501 46.5792 15.0493 23.3202 45.9616 15.5648 
23.8153 45.2235 15.8847 24.3893 44.4801 16.1355 24.7744 43.5845 16.3327 
24.8499 42.4112 16.5113 24.8181 41.1755 16.8493 24.8829 40.1881 17.4184 
22.1786 47.6827 13.1593 22.2269 48.4625 12.829 22.3218 49.4307 12.5197 
22.3394 50.3925 12.0775 22.1925 51.1798 11.4994 21.9033 51.8448 10.9014 
21.4991 52.4425 10.2451 20.9948 52.8715 9.40836 20.4747 53.0509 8.43904 
22.7785 47.843 14.0274 23.4473 48.5096 14.407 24.3598 48.9287 14.5275 
25.4835 49.1759 14.5083 26.4886 49.3024 14.5162 27.0799 49.1039 14.3802 
27.3207 48.5052 13.8952 27.4218 47.831 13.2388 27.4439 47.3936 12.7063 
13.1362 45.2756 9.55263 12.9478 45.9151 10.0159 12.7085 46.5431 10.3946 
12.3158 47.1363 10.6613 11.8562 47.718 11.0965 11.5658 48.2038 11.9676 
11.5843 48.4414 13.1014 11.8716 48.4168 14.0698 12.3203 48.2493 14.665 
13.7083 45.6552 8.5738 14.1448 46.7607 7.96915 14.7886 47.917 7.54133 
15.6001 48.9865 7.28607 16.434 49.9493 7.00212 17.2079 50.8502 6.653 
17.9333 51.6552 6.47314 18.6326 52.2923 6.61659 19.3291 52.7421 7.00636 
12.8823 44.1437 9.90045 12.2519 43.5018 10.543 11.4283 42.7679 11.1078 
10.6231 41.963 11.8194 10.0639 41.1072 12.8009 9.58277 40.207 13.8239 
8.8927 39.3244 14.6384 8.07516 38.5586 15.3089 7.4107 37.9407 16.0206 
13.2673 48.7109 14.3731 13.9087 49.2689 13.5904 14.654 49.8656 12.7818 
15.316 50.6069 12.0463 15.9688 51.303 11.2753 16.8528 51.7212 10.3754 
17.8936 51.9835 9.47529 18.7845 52.3347 8.71287 19.4494 52.7469 8.07152 
12.1524 47.2712 15.2497 11.3695 46.288 15.396 10.4312 45.3431 15.555 
9.43169 44.5346 15.8398 8.60868 43.5903 16.1505 8.0954 42.2888 16.3404 
7.77315 40.844 16.4553 7.4744 39.5533 16.5968 7.19301 38.4443 16.7401 
24.7583 36.8351 13.6496 25.2856 36.7897 14.1976 25.8436 36.7658 14.8927 
26.3002 36.7625 15.775 26.6089 36.9015 16.7916 26.781 37.3752 17.7852 
26.7241 38.1324 18.5098 26.3356 38.8435 18.7524 25.7012 39.2831 18.5243 
24.7154 37.7043 13.0583 25.1926 38.5588 12.8717 25.7616 39.5896 12.6959 
26.3022 40.7972 12.5254 26.6892 42.0458 12.3311 26.974 43.2826 12.2325 
27.2599 44.5149 12.3381 27.4747 45.6166 12.5001 27.4935 46.4721 12.5063 
24.2521 35.9567 13.4581 24.2244 34.8541 13.6789 24.1391 33.8426 14.0278 
23.7872 33.2479 14.6931 23.0299 33.0842 15.5545 21.8723 33.018 16.2961 
20.418 32.8612 16.8413 18.8816 32.7627 17.3759 17.5238 32.8732 18.0247 
25.7794 40.237 17.7755 26.411 41.3281 17.3564 27.1168 42.7872 17.0251 
28.3104 44.2511 16.9386 29.8781 45.1639 16.8543 30.8473 45.372 16.3338 
30.5027 45.3537 15.3261 29.2893 45.6512 14.185 28.1005 46.3421 13.1879 
24.5385 38.8581 18.4678 23.8828 38.1545 18.6965 23.1636 37.1836 18.8274 
22.4744 35.9814 18.9442 21.7622 34.9075 18.9896 20.8878 34.1875 18.9502 
19.8005 33.685 18.952 18.5965 33.2803 19.0056 17.4434 33.0726 18.96 
21.0244 53.1523 7.58728 22.3009 53.0726 7.82178 23.7359 52.9244 8.26476 
24.9862 52.8718 8.83707 25.8614 52.6995 9.36438 26.437 51.9842 9.81249 
26.7685 50.7394 10.3294 26.8945 49.3792 10.991 27.0213 48.1778 11.7048 
6.86579 36.4795 17.3423 6.84598 35.4692 17.9188 6.99745 34.569 18.5322 
7.54063 33.9791 19.1027 8.78344 33.7832 19.4646 10.6452 33.8753 19.5367 
12.5763 33.9855 19.4225 14.1433 33.8651 19.2397 15.3666 33.516 19.007 
15.5616 37.0481 10.4435 15.2013 37.8576 10.2296 16.198 37.6494 9.80551 
14.7756 38.6696 9.93145 15.8309 38.486 9.50659 16.79 38.3196 9.14909 
14.4481 39.5573 9.64052 15.4245 39.3827 9.14793 16.4119 39.2641 8.8096 
17.4169 39.2073 8.57805 14.2876 40.6713 9.45886 15.1276 40.4491 8.86499 
16.0622 40.2933 8.42719 17.0641 40.293 8.23447 18.1923 40.3333 8.12245 
14.1899 41.9122 9.31605 14.9626 41.7076 8.71601 15.8074 41.4553 8.13072 
16.7711 41.3639 7.81371 17.8607 41.4395 7.73653 19.0482 41.4746 7.68269 
14.0961 43.015 9.10259 14.8664 42.9343 8.58029 15.6503 42.7048 7.9565 
16.5272 42.4765 7.44425 17.559 42.4387 7.23685 18.6979 42.5015 7.22337 
19.817 42.4812 7.22501 14.0275 43.9189 8.8336 14.8121 43.9566 8.3656 
15.5929 43.8741 7.82414 16.368 43.6512 7.22095 17.2784 43.4714 6.79016 
18.362 43.4555 6.68296 19.4634 43.4838 6.7622 20.4325 43.4356 6.87235 
14.0172 36.4506 11.535 13.0667 36.4681 12.1743 13.5831 37.3091 11.4371 
12.2329 36.5536 12.9268 12.7415 37.4094 12.0945 13.2204 38.1454 11.2224 
11.4517 36.6783 13.7095 12.0748 37.5804 12.8652 12.5051 38.2883 11.8705 
12.9905 38.949 10.9466 10.486 36.7317 14.3555 11.3005 37.7287 13.6339 
11.8215 38.4941 12.6023 12.2429 39.1349 11.5284 12.8278 39.9096 10.6567 
9.36034 36.7264 14.7941 10.2688 37.7558 14.2213 10.9438 38.6583 13.2887 
11.3804 39.3893 12.1179 11.92 40.1586 11.0838 12.6664 41.0737 10.3437 
8.38512 36.8788 15.1543 9.2621 37.7938 14.6133 10.0413 38.7549 13.8258 
10.5276 39.6341 12.6902 10.9965 40.4699 11.5249 11.7378 41.3513 10.6697 
12.6005 42.2313 10.0765 7.74736 37.3199 15.5668 8.54069 38.0591 14.9488 
9.37415 38.941 14.2539 9.95111 39.8756 13.2638 10.3701 40.7848 12.0976 
11.0097 41.6637 11.1363 11.885 42.4975 10.4938 12.7038 43.2379 9.94409 
7.61766 39.0392 15.901 7.84479 40.3084 15.7293 8.31157 39.7621 15.1362 
8.04327 41.7845 15.5647 8.47522 41.1877 14.9327 9.09704 40.624 14.3984 
8.40203 43.2902 15.3892 8.6567 42.7463 14.7078 9.23786 42.0983 14.1545 
9.76404 41.5243 13.5281 9.11112 44.5199 15.1527 9.13736 44.1952 14.423 
9.51717 43.5758 13.8506 10.042 42.8982 13.2931 10.4119 42.3606 12.575 
10.0272 45.4804 14.9467 9.89092 45.4093 14.1497 10.0487 44.9509 13.4518 
10.4778 44.25 12.9599 10.9551 43.6163 12.4502 11.246 43.1526 11.7827 
10.8781 46.4398 14.8796 10.6071 46.5122 14.0536 10.5995 46.261 13.1323 
10.9038 45.649 12.4766 11.4326 44.9503 12.1136 11.8867 44.3886 11.7222 
12.1076 43.9317 11.1447 11.6097 47.4328 14.8458 11.2142 47.5593 14.1003 
11.0506 47.4741 13.055 11.2024 47.0445 12.0869 11.6649 46.3953 11.5466 
12.2079 45.7605 11.2954 12.5608 45.1966 10.95 12.7235 44.652 10.4203 
13.384 46.3654 8.89901 13.1452 47.1061 9.31343 13.7925 47.5454 8.26437 
12.9217 47.7544 9.70792 13.5939 48.2591 8.71336 14.5136 48.6578 7.88687 
12.619 48.3017 10.1675 13.4636 48.8204 9.26947 14.3883 49.2688 8.44358 
15.4185 49.6459 7.712 12.3148 48.7759 10.9617 13.2698 49.2807 10.0237 
14.2563 49.7776 9.18094 15.2463 50.2202 8.35588 16.2583 50.5644 7.50469 
12.2195 49.087 12.1042 13.1104 49.6344 11.0723 14.0566 50.214 10.1339 
14.981 50.7592 9.21986 15.9807 51.1247 8.25207 17.0107 51.382 7.30078 
[...]
POINT_DATA 1002
FIELD FieldData 4
_paraPhi 1 1002 double
6.2831853072 3.1415926536 6.2831853072 3.1415926536 4.7123889804 4.7123889804 1.5707963268 1.5707963268 3.6951670125 
5.7296109483 2.5880182947 0.5535743589 6.2831853072 6.2831853072 6.2831853072 6.2831853072 3.1415926536 3.1415926536 
3.1415926536 3.1415926536 3.1415926536 6.1053039672 5.898798347 5.6768734901 5.4599499503 5.2659633393 5.1032165617 
4.9713148346 4.8656852733 4.7809517865 0.17788134 0.38438696014 0.60631181711 0.82323535693 1.0172219679 1.1799687454 
1.3118704726 1.4175000338 1.5022335207 6.1892828907 6.1070320098 6.035312792 5.9728339911 5.9183214791 5.8706119594 
5.8286879411 5.7916808611 5.7588591896 0.093902416448 0.17615329733 0.2478725152 0.31035131605 0.36486382811 0.41257334776 
0.45449736604 0.4915044461 0.52432611754 3.3194739936 3.5259796137 3.7479044707 3.9648280105 4.1588146215 4.321561399 
4.4534631262 4.5590926874 4.6438261743 2.9637113136 2.7572056934 2.5352808365 2.3183572967 2.1243706857 1.9616239082 
1.829722181 1.7240926197 1.6393591329 3.23549507 3.3177459509 3.3894651688 3.4519439696 3.5064564817 3.5541660013 
3.5960900196 3.6330970997 3.6659187711 3.0476902371 2.9654393563 2.8937201384 2.8312413375 2.7767288255 2.7290193058 
2.6870952876 2.6500882075 2.617266536 6.2831853072 6.2831853072 6.2831853072 6.2831853072 3.1415926536 3.1415926536 
3.1415926536 3.1415926536 3.1415926536 6.1053039672 5.898798347 5.6768734901 5.4599499503 5.2659633393 5.1032165617 
4.9713148346 4.8656852733 4.7809517865 0.17788134 0.38438696014 0.60631181711 0.82323535693 1.0172219679 1.1799687454 
1.3118704726 1.4175000338 1.5022335207 6.1892828907 6.1070320098 6.035312792 5.9728339911 5.9183214791 5.8706119594 
5.8286879411 5.7916808611 5.7588591896 0.093902416448 0.17615329733 0.2478725152 0.31035131605 0.36486382811 0.41257334776 
0.45449736604 0.4915044461 0.52432611754 3.3194739936 3.5259796137 3.7479044707 3.9648280105 4.1588146215 4.321561399 
4.4534631262 4.5590926874 4.6438261743 2.9637113136 2.7572056934 2.5352808365 2.3183572967 2.1243706857 1.9616239082 
1.829722181 1.7240926197 1.6393591329 3.23549507 3.3177459509 3.3894651688 3.4519439696 3.5064564817 3.5541660013 
3.5960900196 3.6330970997 3.6659187711 3.0476902371 2.9654393563 2.8937201384 2.8312413375 2.7767288255 2.7290193058 
2.6870952876 2.6500882075 2.617266536 4.7123889804 4.7123889804 4.7123889804 4.7123889804 4.7123889804 4.7123889804 
4.7123889804 4.7123889804 4.7123889804 4.6087898617 4.4991390697 4.3857031936 4.2712800401 4.1588146215 4.0509635631 
3.94975894 3.8564636551 3.7716124825 4.8159880991 4.9256388911 5.0390747672 5.1534979207 5.2659633393 5.3738143976 
5.4750190208 5.5683143056 5.6531654782 4.6087898617 4.4991390697 4.3857031936 4.2712800401 4.1588146215 4.0509635631 
3.94975894 3.8564636551 3.7716124825 4.8159880991 4.9256388911 5.0390747672 5.1534979207 5.2659633393 5.3738143976 
5.4750190208 5.5683143056 5.6531654782 1.5707963268 1.5707963268 1.5707963268 1.5707963268 1.5707963268 1.5707963268 
1.5707963268 1.5707963268 1.5707963268 1.6743954455 1.7840462375 1.8974821136 2.0119052671 2.1243706857 2.232221744 
2.3334263672 2.426721652 2.5115728246 1.4671972081 1.3575464161 1.24411054 1.1296873865 1.0172219679 0.90937090954 
0.80816628637 0.71487100155 0.63001982895 1.6743954455 1.7840462375 1.8974821136 2.0119052671 2.1243706857 2.232221744 
2.3334263672 2.426721652 2.5115728246 1.4671972081 1.3575464161 1.24411054 1.1296873865 1.0172219679 0.90937090954 
0.80816628637 0.71487100155 0.63001982895 3.6007720849 3.4966939854 3.3839471039 3.2645756454 3.1415926536 3.0186096618 
2.8992382033 2.7864913217 2.6824132222 5.8240058758 5.9280839753 6.0408308569 6.1602023154 6.2831853072 0.12298299178 
0.2423544503 0.35510133185 0.45917943135 6.0560271438 5.7885595667 5.9702140275 5.5125918794 5.6029703303 5.7885595667 
5.2659633393 5.2659633393 5.2659633393 5.2659633393 5.0674903122 5.0120975802 4.9155579264 4.7123889804 4.1588146215 
4.9155579264 4.8353719722 4.7123889804 4.5092200343 4.1588146215 3.6362183941 4.8004512023 4.7123889804 4.5894059886 
4.4126803806 4.1588146215 3.8218076305 3.4545639333 4.7123889804 4.6243267584 4.5092200343 4.3572876485 4.1588146215 
3.9121860814 3.6362183941 3.368750817 6.0174235957 5.9434319871 5.8263323547 5.8809213739 5.7674481418 5.6279784266 
5.8278025282 5.718968232 5.5891129425 5.4372443565 5.7823484065 5.678536687 5.5575666702 5.4192596322 5.2659633393 
5.743164462 5.6444075337 5.5314983644 5.4046708639 5.2659633393 5.1195510325 5.7091357773 5.6152775188 5.5096229709 
5.3926039573 5.2659633393 5.1329233157 4.9978930058 5.6793730533 5.5901633916 5.4910209005 5.3824597928 5.2659633393 
5.1440684722 5.0201624502 4.8979782167 5.5683143056 5.4750190208 5.4750190208 5.3738143976 5.3738143976 5.3738143976 
5.2659633393 5.2659633393 5.2659633393 5.2659633393 5.1534979207 5.1534979207 5.1534979207 5.1534979207 5.1534979207 
5.0390747672 5.0390747672 5.0390747672 5.0390747672 5.0390747672 5.0390747672 4.9256388911 4.9256388911 4.9256388911 
4.9256388911 4.9256388911 4.9256388911 4.9256388911 4.8159880991 4.8159880991 4.8159880991 4.8159880991 4.8159880991 
4.8159880991 4.8159880991 4.8159880991 4.6087898617 4.6087898617 4.4991390697 4.6087898617 4.4991390697 4.3857031936 
4.6087898617 4.4991390697 4.3857031936 4.2712800401 4.6087898617 4.4991390697 4.3857031936 4.2712800401 4.1588146215 
4.6087898617 4.4991390697 4.3857031936 4.2712800401 4.1588146215 4.0509635631 4.6087898617 4.4991390697 4.3857031936 
4.2712800401 4.1588146215 4.0509635631 3.94975894 4.6087898617 4.4991390697 4.3857031936 4.2712800401 4.1588146215 
4.0509635631 3.94975894 3.8564636551 4.526799744 4.4046155105 4.426884955 4.2807094886 4.2918546451 4.3052269283 
4.1588146215 4.1588146215 4.1588146215 4.1588146215 4.042318168 4.0321740035 4.0201070968 4.0055183285 3.9875336042 
3.9337570603 3.9151549899 3.8932795963 3.8672112905 3.8356650183 3.7967995342 3.8346145692 3.809500442 3.7803704271 
3.7462412737 3.7058097288 3.657329819 3.5984456061 3.7454049075 3.7156421835 3.6816134988 3.6424295543 3.5969754326 
3.5438565869 3.4813459737 3.4073543651 3.5642842451 3.4524645613 3.5233842518 3.3320300872 3.403123212 3.4773852225 
3.20576226 3.2746326772 3.348015857 3.4255060145 3.0774230472 3.1415926536 3.2112816139 3.2864685043 3.3668817272 
2.95115522 3.00855263 3.0719036933 3.1415926536 3.2178377658 3.3005964304 2.8307207459 2.8800620952 2.9351694502 
2.9967168029 3.0653475414 3.1415926536 3.225752376 2.718901062 2.7598010554 2.8058000847 2.8576792927 2.91630358 
2.9825888767 3.0574329311 3.1415926536 3.5642842451 3.5233842518 3.4524645613 3.4773852225 3.403123212 3.3320300872 
3.4255060145 3.348015857 3.2746326772 3.20576226 3.3668817272 3.2864685043 3.2112816139 3.1415926536 3.0774230472 
3.3005964304 3.2178377658 3.1415926536 3.0719036933 3.00855263 2.95115522 3.225752376 3.1415926536 3.0653475414 
2.9967168029 2.9351694502 2.8800620952 2.8307207459 3.1415926536 3.0574329311 2.9825888767 2.91630358 2.8576792927 
2.8058000847 2.7598010554 2.718901062 4.526799744 4.426884955 4.4046155105 4.3052269283 4.2918546451 4.2807094886 
4.1588146215 4.1588146215 4.1588146215 4.1588146215 3.9875336042 4.0055183285 4.0201070968 4.0321740035 4.042318168 
3.7967995342 3.8356650183 3.8672112905 3.8932795963 3.9151549899 3.9337570603 3.5984456061 3.657329819 3.7058097288 
3.7462412737 3.7803704271 3.809500442 3.8346145692 3.4073543651 3.4813459737 3.5438565869 3.5969754326 3.6424295543 
3.6816134988 3.7156421835 3.7454049075 4.7123889804 4.8004512023 4.6243267584 4.9155579264 4.7123889804 4.5092200343 
5.0674903122 4.8353719722 4.5894059886 4.3572876485 5.2659633393 5.0120975802 4.7123889804 4.4126803806 4.1588146215 
5.5125918794 5.2659633393 4.9155579264 4.5092200343 4.1588146215 3.9121860814 5.7885595667 5.6029703303 5.2659633393 
4.7123889804 4.1588146215 3.8218076305 3.6362183941 6.0560271438 5.9702140275 5.7885595667 5.2659633393 4.1588146215 
3.6362183941 3.4545639333 3.368750817 0.22715816343 0.49462574053 0.3129712797 0.77059342779 0.68021497688 0.49462574053 
1.0172219679 1.0172219679 1.0172219679 1.0172219679 1.2156949949 1.271087727 1.3676273807 1.5707963268 2.1243706857 
1.3676273807 1.447813335 1.5707963268 1.7739652728 2.1243706857 2.6469669131 1.4827341049 1.5707963268 1.6937793186 
1.8705049266 2.1243706857 2.4613776767 2.8286213739 1.5707963268 1.6588585487 1.7739652728 1.9258976586 2.1243706857 
2.3709992258 2.6469669131 2.9144344902 1.7563855631 1.8785697967 1.8563003522 2.0024758186 1.9913306621 1.9779583789 
2.1243706857 2.1243706857 2.1243706857 2.1243706857 2.2408671392 2.2510113037 2.2630782103 2.2776669786 2.295651703 
2.3494282469 2.3680303173 2.3899057108 2.4159740166 2.4475202889 2.486385773 2.448570738 2.4736848652 2.5028148801 
2.5369440334 2.5773755784 2.6258554882 2.6847397011 2.5377803997 2.5675431237 2.6015718084 2.6407557529 2.6862098746 
2.7393287203 2.8018393335 2.8758309421 1.6743954455 1.6743954455 1.7840462375 1.6743954455 1.7840462375 1.8974821136 
1.6743954455 1.7840462375 1.8974821136 2.0119052671 1.6743954455 1.7840462375 1.8974821136 2.0119052671 2.1243706857 
1.6743954455 1.7840462375 1.8974821136 2.0119052671 2.1243706857 2.232221744 1.6743954455 1.7840462375 1.8974821136 
2.0119052671 2.1243706857 2.232221744 2.3334263672 1.6743954455 1.7840462375 1.8974821136 2.0119052671 2.1243706857 
2.232221744 2.3334263672 2.426721652 1.4671972081 1.3575464161 1.4671972081 1.24411054 1.3575464161 1.4671972081 
1.1296873865 1.24411054 1.3575464161 1.4671972081 1.0172219679 1.1296873865 1.24411054 1.3575464161 1.4671972081 
0.90937090954 1.0172219679 1.1296873865 1.24411054 1.3575464161 1.4671972081 0.80816628637 0.90937090954 1.0172219679 
1.1296873865 1.24411054 1.3575464161 1.4671972081 0.71487100155 0.80816628637 0.90937090954 1.0172219679 1.1296873865 
1.24411054 1.3575464161 1.4671972081 0.60381225391 0.57404952988 0.69302191562 0.54002084522 0.66790778838 0.79216440667 
0.50083690068 0.63877777351 0.77356233629 0.90072551443 0.45538277901 0.60464862014 0.75168694275 0.89058134991 1.0172219679 
0.40226393329 0.56421707518 0.72561863695 0.87851444325 1.0172219679 1.139116835 0.33975332011 0.51573716537 0.69407236469 
0.86392567495 1.0172219679 1.1502619915 1.2630228569 0.26576171152 0.45685295248 0.6552068806 0.84594095064 1.0172219679 
1.1636342747 1.2852923014 1.3852070904 0.22715816343 0.3129712797 0.49462574053 0.49462574053 0.68021497688 0.77059342779 
1.0172219679 1.0172219679 1.0172219679 1.0172219679 2.1243706857 1.5707963268 1.3676273807 1.271087727 1.2156949949 
2.6469669131 2.1243706857 1.7739652728 1.5707963268 1.447813335 1.3676273807 2.8286213739 2.4613776767 2.1243706857 
1.8705049266 1.6937793186 1.5707963268 1.4827341049 2.9144344902 2.6469669131 2.3709992258 2.1243706857 1.9258976586 
1.7739652728 1.6588585487 1.5707963268 1.7563855631 1.8563003522 1.8785697967 1.9779583789 1.9913306621 2.0024758186 
2.1243706857 2.1243706857 2.1243706857 2.1243706857 2.295651703 2.2776669786 2.2630782103 2.2510113037 2.2408671392 
2.486385773 2.4475202889 2.4159740166 2.3899057108 2.3680303173 2.3494282469 2.6847397011 2.6258554882 2.5773755784 
2.5369440334 2.5028148801 2.4736848652 2.448570738 2.8758309421 2.8018393335 2.7393287203 2.6862098746 2.6407557529 
2.6015718084 2.5675431237 2.5377803997 5.8604937156 5.901393709 5.9723133995 5.9473927383 6.0216547488 6.0927478736 
5.9992719463 6.0767621038 6.1501452836 6.2190157008 6.0578962336 6.1383094565 6.2134963469 0 0.064169606361 
6.1241815303 6.206940195 6.2831853072 0.069688960264 0.13304002361 0.19043743361 6.1990255847 0 0.07624511221 
0.14487585072 0.20642320337 0.26153055843 0.3108719077 0 0.084159722458 0.15900377685 0.22528907359 0.28391336087 
0.3357925689 0.38179159818 0.42269159155 5.8604937156 5.9723133995 5.901393709 6.0927478736 6.0216547488 5.9473927383 
6.2190157008 6.1501452836 6.0767621038 5.9992719463 0.064169606361 0 6.2134963469 6.1383094565 6.0578962336 
0.19043743361 0.13304002361 0.069688960264 6.2831853072 6.206940195 6.1241815303 0.3108719077 0.26153055843 0.20642320337 
0.14487585072 0.07624511221 6.2831853072 6.1990255847 0.42269159155 0.38179159818 0.3357925689 0.28391336087 0.22528907359 
0.15900377685 0.084159722458 0 5.6793730533 5.7091357773 5.5901633916 5.743164462 5.6152775188 5.4910209005 
5.7823484065 5.6444075337 5.5096229709 5.3824597928 5.8278025282 5.678536687 5.5314983644 5.3926039573 5.2659633393 
5.8809213739 5.718968232 5.5575666702 5.4046708639 5.2659633393 5.1440684722 5.9434319871 5.7674481418 5.5891129425 
5.4192596322 5.2659633393 5.1329233157 5.0201624502 6.0174235957 5.8263323547 5.6279784266 5.4372443565 5.2659633393 
5.1195510325 4.9978930058 4.8979782167 1.3852070904 1.2852923014 1.2630228569 1.1636342747 1.1502619915 1.139116835 
1.0172219679 1.0172219679 1.0172219679 1.0172219679 0.84594095064 0.86392567495 0.87851444325 0.89058134991 0.90072551443 
0.6552068806 0.69407236469 0.72561863695 0.75168694275 0.77356233629 0.79216440667 0.45685295248 0.51573716537 0.56421707518 
0.60464862014 0.63877777351 0.66790778838 0.69302191562 0.26576171152 0.33975332011 0.40226393329 0.45538277901 0.50083690068 
0.54002084522 0.57404952988 0.60381225391 
_paraPhiHalf 1 1002 double
0 3.1415926536 0 3.1415926536 1.5707963268 1.5707963268 1.5707963268 1.5707963268 2.5880182947 
0.5535743589 2.5880182947 0.5535743589 0 0 0 0 3.1415926536 3.1415926536 
3.1415926536 3.1415926536 3.1415926536 0.17788134 0.38438696014 0.60631181711 0.82323535693 1.0172219679 1.1799687454 
1.3118704726 1.4175000338 1.5022335207 0.17788134 0.38438696014 0.60631181711 0.82323535693 1.0172219679 1.1799687454 
1.3118704726 1.4175000338 1.5022335207 0.093902416448 0.17615329733 0.2478725152 0.31035131605 0.36486382811 0.41257334776 
0.45449736604 0.4915044461 0.52432611754 0.093902416448 0.17615329733 0.2478725152 0.31035131605 0.36486382811 0.41257334776 
0.45449736604 0.4915044461 0.52432611754 2.9637113136 2.7572056934 2.5352808365 2.3183572967 2.1243706857 1.9616239082 
1.829722181 1.7240926197 1.6393591329 2.9637113136 2.7572056934 2.5352808365 2.3183572967 2.1243706857 1.9616239082 
1.829722181 1.7240926197 1.6393591329 3.0476902371 2.9654393563 2.8937201384 2.8312413375 2.7767288255 2.7290193058 
2.6870952876 2.6500882075 2.617266536 3.0476902371 2.9654393563 2.8937201384 2.8312413375 2.7767288255 2.7290193058 
2.6870952876 2.6500882075 2.617266536 0 0 0 0 3.1415926536 3.1415926536 
3.1415926536 3.1415926536 3.1415926536 0.17788134 0.38438696014 0.60631181711 0.82323535693 1.0172219679 1.1799687454 
1.3118704726 1.4175000338 1.5022335207 0.17788134 0.38438696014 0.60631181711 0.82323535693 1.0172219679 1.1799687454 
1.3118704726 1.4175000338 1.5022335207 0.093902416448 0.17615329733 0.2478725152 0.31035131605 0.36486382811 0.41257334776 
0.45449736604 0.4915044461 0.52432611754 0.093902416448 0.17615329733 0.2478725152 0.31035131605 0.36486382811 0.41257334776 
0.45449736604 0.4915044461 0.52432611754 2.9637113136 2.7572056934 2.5352808365 2.3183572967 2.1243706857 1.9616239082 
1.829722181 1.7240926197 1.6393591329 2.9637113136 2.7572056934 2.5352808365 2.3183572967 2.1243706857 1.9616239082 
1.829722181 1.7240926197 1.6393591329 3.0476902371 2.9654393563 2.8937201384 2.8312413375 2.7767288255 2.7290193058 
2.6870952876 2.6500882075 2.617266536 3.0476902371 2.9654393563 2.8937201384 2.8312413375 2.7767288255 2.7290193058 
2.6870952876 2.6500882075 2.617266536 1.5707963268 1.5707963268 1.5707963268 1.5707963268 1.5707963268 1.5707963268 
1.5707963268 1.5707963268 1.5707963268 1.6743954455 1.7840462375 1.8974821136 2.0119052671 2.1243706857 2.232221744 
2.3334263672 2.426721652 2.5115728246 1.4671972081 1.3575464161 1.24411054 1.1296873865 1.0172219679 0.90937090954 
0.80816628637 0.71487100155 0.63001982895 1.6743954455 1.7840462375 1.8974821136 2.0119052671 2.1243706857 2.232221744 
2.3334263672 2.426721652 2.5115728246 1.4671972081 1.3575464161 1.24411054 1.1296873865 1.0172219679 0.90937090954 
0.80816628637 0.71487100155 0.63001982895 1.5707963268 1.5707963268 1.5707963268 1.5707963268 1.5707963268 1.5707963268 
1.5707963268 1.5707963268 1.5707963268 1.6743954455 1.7840462375 1.8974821136 2.0119052671 2.1243706857 2.232221744 
2.3334263672 2.426721652 2.5115728246 1.4671972081 1.3575464161 1.24411054 1.1296873865 1.0172219679 0.90937090954 
0.80816628637 0.71487100155 0.63001982895 1.6743954455 1.7840462375 1.8974821136 2.0119052671 2.1243706857 2.232221744 
2.3334263672 2.426721652 2.5115728246 1.4671972081 1.3575464161 1.24411054 1.1296873865 1.0172219679 0.90937090954 
0.80816628637 0.71487100155 0.63001982895 2.6824132222 2.7864913217 2.8992382033 3.0186096618 3.1415926536 3.0186096618 
2.8992382033 2.7864913217 2.6824132222 0.45917943135 0.35510133185 0.2423544503 0.12298299178 0 0.12298299178 
0.2423544503 0.35510133185 0.45917943135 0.22715816343 0.49462574053 0.3129712797 0.77059342779 0.68021497688 0.49462574053 
1.0172219679 1.0172219679 1.0172219679 1.0172219679 1.2156949949 1.271087727 1.3676273807 1.5707963268 2.1243706857 
1.3676273807 1.447813335 1.5707963268 1.7739652728 2.1243706857 2.6469669131 1.4827341049 1.5707963268 1.6937793186 
1.8705049266 2.1243706857 2.4613776767 2.8286213739 1.5707963268 1.6588585487 1.7739652728 1.9258976586 2.1243706857 
2.3709992258 2.6469669131 2.9144344902 0.26576171152 0.33975332011 0.45685295248 0.40226393329 0.51573716537 0.6552068806 
0.45538277901 0.56421707518 0.69407236469 0.84594095064 0.50083690068 0.60464862014 0.72561863695 0.86392567495 1.0172219679 
0.54002084522 0.63877777351 0.75168694275 0.87851444325 1.0172219679 1.1636342747 0.57404952988 0.66790778838 0.77356233629 
0.89058134991 1.0172219679 1.1502619915 1.2852923014 0.60381225391 0.69302191562 0.79216440667 0.90072551443 1.0172219679 
1.139116835 1.2630228569 1.3852070904 0.71487100155 0.80816628637 0.80816628637 0.90937090954 0.90937090954 0.90937090954 
1.0172219679 1.0172219679 1.0172219679 1.0172219679 1.1296873865 1.1296873865 1.1296873865 1.1296873865 1.1296873865 
1.24411054 1.24411054 1.24411054 1.24411054 1.24411054 1.24411054 1.3575464161 1.3575464161 1.3575464161 
1.3575464161 1.3575464161 1.3575464161 1.3575464161 1.4671972081 1.4671972081 1.4671972081 1.4671972081 1.4671972081 
1.4671972081 1.4671972081 1.4671972081 1.6743954455 1.6743954455 1.7840462375 1.6743954455 1.7840462375 1.8974821136 
1.6743954455 1.7840462375 1.8974821136 2.0119052671 1.6743954455 1.7840462375 1.8974821136 2.0119052671 2.1243706857 
1.6743954455 1.7840462375 1.8974821136 2.0119052671 2.1243706857 2.232221744 1.6743954455 1.7840462375 1.8974821136 
2.0119052671 2.1243706857 2.232221744 2.3334263672 1.6743954455 1.7840462375 1.8974821136 2.0119052671 2.1243706857 
2.232221744 2.3334263672 2.426721652 1.7563855631 1.8785697967 1.8563003522 2.0024758186 1.9913306621 1.9779583789 
2.1243706857 2.1243706857 2.1243706857 2.1243706857 2.2408671392 2.2510113037 2.2630782103 2.2776669786 2.295651703 
2.3494282469 2.3680303173 2.3899057108 2.4159740166 2.4475202889 2.486385773 2.448570738 2.4736848652 2.5028148801 
2.5369440334 2.5773755784 2.6258554882 2.6847397011 2.5377803997 2.5675431237 2.6015718084 2.6407557529 2.6862098746 
2.7393287203 2.8018393335 2.8758309421 2.718901062 2.8307207459 2.7598010554 2.95115522 2.8800620952 2.8058000847 
3.0774230472 3.00855263 2.9351694502 2.8576792927 3.0774230472 3.1415926536 3.0719036933 2.9967168029 2.91630358 
2.95115522 3.00855263 3.0719036933 3.1415926536 3.0653475414 2.9825888767 2.8307207459 2.8800620952 2.9351694502 
2.9967168029 3.0653475414 3.1415926536 3.0574329311 2.718901062 2.7598010554 2.8058000847 2.8576792927 2.91630358 
2.9825888767 3.0574329311 3.1415926536 2.718901062 2.7598010554 2.8307207459 2.8058000847 2.8800620952 2.95115522 
2.8576792927 2.9351694502 3.00855263 3.0774230472 2.91630358 2.9967168029 3.0719036933 3.1415926536 3.0774230472 
2.9825888767 3.0653475414 3.1415926536 3.0719036933 3.00855263 2.95115522 3.0574329311 3.1415926536 3.0653475414 