# vtk DataFile Version 5.1
vtk output
ASCII
DATASET POLYDATA
POINTS 100 float
26.549 40.8874 11.2531 26.5455 40.898 11.2612 26.5365 40.9252 11.2816 
26.5216 40.9661 11.3129 26.4999 41.0164 11.3528 26.4701 41.0703 11.3984 
26.4307 41.122 11.4467 26.38 41.1654 11.4945 26.3159 41.1955 11.539 
26.2364 41.2084 11.5779 26.1395 41.2016 11.6096 26.0237 41.1744 11.6332 
25.8878 41.1278 11.6489 25.7311 41.064 11.6572 25.554 40.9862 11.6594 
25.3574 40.898 11.6571 25.1432 40.8029 11.6521 24.914 40.704 11.6461 
24.6731 40.6034 11.6404 24.4241 40.5021 11.6362 24.1707 40.4 11.6339 
23.9167 40.2959 11.6339 23.6651 40.1879 11.6358 23.4184 40.0735 11.6392 
23.1782 39.9507 11.6436 22.9453 39.8173 11.6486 22.7192 39.6725 11.6538 
22.4987 39.516 11.6594 22.2819 39.3489 11.6658 22.0665 39.1731 11.6737 
21.85 38.9914 11.6842 21.6299 38.8071 11.6986 21.4042 38.6235 11.7182 
21.1714 38.4438 11.7441 20.9309 38.2704 11.7773 20.6825 38.105 11.8182 
20.4268 37.948 11.8668 20.1651 37.7991 11.9224 19.8987 37.6569 11.984 
19.6292 37.5194 12.05 19.3579 37.384 12.1186 19.0859 37.2486 12.1876 
18.814 37.1108 12.255 18.5422 36.9691 12.3189 18.2702 36.8226 12.3779 
17.9975 36.6713 12.4307 17.7231 36.5159 12.4767 17.4462 36.3577 12.5159 
17.1661 36.1981 12.5486 16.8826 36.0391 12.576 16.5957 35.882 12.5991 
16.306 35.728 12.6196 16.0147 35.5778 12.6393 15.7231 35.4314 12.6599 
15.4328 35.2882 12.6832 15.1455 35.1473 12.7108 14.8623 35.0074 12.7441 
14.5843 34.8672 12.7842 14.3119 34.7258 12.8322 14.0449 34.5824 12.8885 
13.7826 34.4369 12.9534 13.524 34.2897 13.0269 13.2676 34.1419 13.1086 
13.0118 33.9946 13.198 12.7555 33.8496 13.294 12.4975 33.7085 13.3956 
12.2374 33.5727 13.5014 11.9753 33.443 13.61 11.7118 33.3202 13.7197 
11.4478 33.2039 13.8292 11.1849 33.0935 13.937 10.9245 32.9878 14.0419 
10.6677 32.8853 14.143 10.4154 32.7843 14.2398 10.1679 32.6833 14.3319 
9.92482 32.5811 14.4196 9.68495 32.4768 14.5034 9.44655 32.3702 14.584 
9.20742 32.2615 14.6624 8.96512 32.1513 14.7396 8.71734 32.0407 14.8166 
8.46214 31.931 14.8943 8.19824 31.8235 14.9731 7.92528 31.7193 15.0536 
7.64391 31.6193 15.1354 7.35585 31.5242 15.2182 7.06384 31.4342 15.3012 
6.77146 31.3492 15.3834 6.4829 31.269 15.4636 6.20271 31.1934 15.5405 
5.93552 31.1221 15.6129 5.68573 31.055 15.6796 5.45735 30.9924 15.7397 
5.25381 30.9348 15.7924 5.0779 30.883 15.8372 4.93177 30.838 15.8737 
4.81695 30.801 15.9019 4.73449 30.773 15.9216 4.68503 30.755 15.9328 
4.6689 30.7476 15.9357 
LINES 2 100
OFFSETS vtktypeint64
0 100 
CONNECTIVITY vtktypeint64
0 1 2 3 4 5 6 7 8 
9 10 11 12 13 14 15 16 17 
18 19 20 21 22 23 24 25 26 
27 28 29 30 31 32 33 34 35 
36 37 38 39 40 41 42 43 44 
45 46 47 48 49 50 51 52 53 
54 55 56 57 58 59 60 61 62 
63 64 65 66 67 68 69 70 71 
72 73 74 75 76 77 78 79 80 
81 82 83 84 85 86 87 88 89 
90 91 92 93 94 95 96 97 98 
99 
POINT_DATA 100
FIELD FieldData 3
_theta 1 100 double
0 0.031733259127 0.063466518254 0.095199777382 0.12693303651 0.15866629564 0.19039955476 0.22213281389 0.25386607302 
0.28559933214 0.31733259127 0.3490658504 0.38079910953 0.41253236865 0.44426562778 0.47599888691 0.50773214603 0.53946540516 
0.57119866429 0.60293192342 0.63466518254 0.66639844167 0.6981317008 0.72986495992 0.76159821905 0.79333147818 0.82506473731 
0.85679799643 0.88853125556 0.92026451469 0.95199777382 0.98373103294 1.0154642921 1.0471975512 1.0789308103 1.1106640695 
1.1423973286 1.1741305877 1.2058638468 1.237597106 1.2693303651 1.3010636242 1.3327968833 1.3645301425 1.3962634016 
1.4279966607 1.4597299198 1.491463179 1.5231964381 1.5549296972 1.5866629564 1.6183962155 1.6501294746 1.6818627337 
1.7135959929 1.745329252 1.7770625111 1.8087957702 1.8405290294 1.8722622885 1.9039955476 1.9357288068 1.9674620659 
1.999195325 2.0309285841 2.0626618433 2.0943951024 2.1261283615 2.1578616206 2.1895948798 2.2213281389 2.253061398 
2.2847946572 2.3165279163 2.3482611754 2.3799944345 2.4117276937 2.4434609528 2.4751942119 2.506927471 2.5386607302 
2.5703939893 2.6021272484 2.6338605076 2.6655937667 2.6973270258 2.7290602849 2.7607935441 2.7925268032 2.8242600623 
2.8559933214 2.8877265806 2.9194598397 2.9511930988 2.982926358 3.0146596171 3.0463928762 3.0781261353 3.1098593945 
3.1415926536 
_radius 1 100 double
8.1577145062e-14 0.27913417616 0.55579503488 0.82770837163 1.0931375307 1.3509678308 1.6006250712 1.8418512432 2.0744028542 
2.2977699628 2.5110256565 2.7128876651 2.9019967179 3.0773190692 3.2385228795 3.3861940003 3.5218262328 3.6476028662 
3.7660509316 3.879680204 3.990704947 4.10089278 4.2115208977 4.3233827364 4.4367953983 4.5515954648 4.6671476232 
4.7824035832 4.896034418 5.0066297082 5.1129278165 5.2140251164 5.3095131222 5.3995100529 5.484581332 5.5655728087 
5.6434017046 5.718856607 5.7924476918 5.8643270011 5.9342760672 6.0017440169 6.0659170161 6.1258056165 6.1803427573 
6.2284865571 6.2693186947 6.3021254284 6.3264487506 6.342101312 6.3491480733 6.3478655239 6.338692206 6.322181656 
6.2989628921 6.2697074679 6.2350984306 6.1957962342 6.1523993088 6.105401356 6.0551517586 6.001827514 5.9454230192 
5.8857581663 5.8224986605 5.7551794199 5.6832244078 5.6059625056 5.5226448173 5.4324706612 5.3346272074 5.2283438359 
5.1129595857 4.9880009148 4.8532652478 4.7089013366 4.5554710645 4.3939730795 4.2258114139 4.0527039498 3.8765430257 
3.6992362136 3.522560857 3.3480559136 3.1769496616 3.0100907186 2.8478293181 2.6898062467 2.5346610768 2.3797581732 
2.2211012148 2.0535958656 1.8716955321 1.6702952406 1.4456426 1.1960565866 0.92233011146 0.62777599069 0.31793468685 
3.8728858151e-14 
_area 1 100 double
0 0.2371230274 0.93866490479 2.0763640028 3.607182798 5.4793219105 7.6400090458 10.043212698 12.653787925 
15.444140126 18.382522217 21.418898339 24.479342433 27.475703969 30.327216013 32.985047245 35.451180377 37.784788386 
40.088256149 42.464732425 44.972633324 47.631414646 50.448804278 53.417276563 56.500391309 59.636658146 62.757448199 
65.806596264 68.753730201 71.598131355 74.363383503 77.082585795 79.776212522 82.446485574 85.098932278 87.761484817 
90.487011502 93.339954242 96.372307737 99.598980103 102.98013098 106.41604246 109.75904909 112.83912311 115.49433364 
117.5995562 119.0891967 119.96973876 120.31783059 120.26125711 119.94427532 119.48519204 118.9416887 118.30202315 
117.50719448 116.48826736 115.19861034 113.63223747 111.82774414 109.85779113 107.80491819 105.73297239 103.67065163 
101.61234946 99.526811345 97.366428241 95.076727783 92.606177424 89.914512639 86.977453803 83.787419879 80.352162668 
76.694170007 72.851790389 68.875596788 64.803669861 60.640996656 56.400597459 52.131399007 47.906374655 43.799558246 
39.868722547 36.149164549 32.656535568 29.393359208 26.354948263 23.532829577 20.915189867 18.484416981 16.212999606 
14.061329019 11.982408142 9.9359009509 7.9073069746 5.9232688682 4.0556726516 2.4124924113 1.1178913641 0.2867557422 
2.842170943e-14 
