# vtk DataFile Version 5.1
vtk output
ASCII
DATASET POLYDATA
POINTS 1002 float
15.4424 33.4305 8.78894 20.9697 42.7848 7.42237 12.4612 38.0224 17.1224 
20.8381 45.2133 13.6277 13.349 42.4954 5.9692 12.0379 44.5927 12.0074 
24.1275 34.8384 11.9665 24.1196 38.4281 19.0423 19.0342 51.1679 7.76247 
7.47503 34.9646 12.8941 27.8831 45.7629 11.287 15.4141 31.034 15.9868 
16.0689 34.0835 8.48176 16.7247 34.8179 8.13352 17.3815 35.6642 7.87538 
17.9762 36.6831 7.80736 18.5175 37.8249 7.8162 19.108 38.9409 7.70516 
19.7557 39.9658 7.48621 20.3157 40.9438 7.33814 20.6982 41.8968 7.34222 
15.1015 34.1298 8.55372 14.7576 34.9177 8.29828 14.4098 35.7025 8.0067 
14.045 36.5469 7.67904 13.6772 37.5295 7.28633 13.3905 38.5335 6.81739 
13.255 39.4471 6.37485 13.238 40.3781 6.08789 13.2746 41.4272 5.97325 
16.2142 33.2659 8.90596 17.1253 33.2553 9.08737 18.2216 33.2979 9.25051 
19.44 33.2906 9.39551 20.5652 33.3365 9.67507 21.4368 33.5873 10.1823 
22.1321 33.9516 10.7801 22.8071 34.2586 11.2862 23.492 34.5218 11.6642 
14.5508 33.2427 8.9478 13.5322 33.1355 9.20842 12.4723 33.1241 9.6393 
11.5041 33.2337 10.25 10.6489 33.4411 10.9049 9.80129 33.6493 11.4379 
8.95618 33.8134 11.8366 8.25942 34.028 12.1904 7.78835 34.4101 12.5445 
15.2639 32.7064 9.11324 15.0833 32.1438 9.5412 14.9535 31.772 10.1711 
14.9287 31.4236 10.9418 14.9741 31.0405 11.7072 14.9841 30.8413 12.4945 
14.9473 30.9159 13.4317 14.9804 31.0355 14.4543 15.1557 31.0413 15.348 
20.3883 42.75 7.02069 19.6171 42.7626 6.64905 18.747 42.8049 6.28112 
17.987 42.7535 5.86377 17.3238 42.524 5.38545 16.4681 42.2348 4.94804 
15.3772 42.0981 4.75599 14.3979 42.1764 4.94192 13.7591 42.3547 5.417 
21.3662 42.2459 7.75129 21.896 41.5382 8.00055 22.4608 40.6897 8.28185 
22.8089 39.8535 8.81167 22.8705 39.0991 9.62067 22.9306 38.2788 10.4119 
23.2289 37.2869 10.9084 23.6506 36.2705 11.1881 23.972 35.4356 11.5035 
20.9607 43.627 7.17313 20.9983 44.5855 6.85242 20.9107 45.7244 6.70672 
20.6034 46.9596 6.87318 20.3036 48.1076 7.04172 20.2615 49.1189 6.82526 
20.2891 50.0351 6.43879 20.0402 50.7588 6.44297 19.5291 51.136 6.98804 
21.4407 43.3433 7.77982 21.9747 43.8556 8.17724 22.635 44.241 8.49901 
23.4162 44.5492 8.74537 24.3125 44.8975 9.03853 25.3252 45.289 9.39554 
26.3255 45.6123 9.7172 27.1081 45.7929 10.046 27.6043 45.8333 10.5525 
13.306 38.9598 16.9864 14.2222 39.785 16.774 15.1343 40.5364 16.4823 
16.0442 41.3423 16.134 16.9895 42.1319 15.6996 17.9402 42.7014 15.1268 
18.8236 43.1245 14.5093 19.6065 43.6799 14.043 20.2819 44.4328 13.7857 
12.0393 38.771 16.9863 11.72 39.4459 16.7018 11.5396 40.0123 16.2457 
11.3843 40.659 15.6938 11.1586 41.5518 15.1745 10.9805 42.5069 14.6893 
11.032 43.2185 14.1003 11.3146 43.6795 13.3689 11.6893 44.0978 12.6296 
13.4488 37.884 17.095 14.4854 37.7809 16.9998 15.556 37.7243 16.8713 
16.8676 37.6973 16.7388 18.4943 37.7087 16.6433 20.0658 37.809 16.7158 
21.2421 38.0076 17.134 22.1742 38.2278 17.8736 23.1366 38.3786 18.6219 
11.4342 37.4786 17.1485 10.5413 36.8928 17.0817 9.7983 36.3383 16.8953 
9.03665 35.9039 16.616 8.16184 35.6425 16.2671 7.39026 35.5023 15.779 
6.99909 35.3745 15.0935 6.99608 35.2165 14.3032 7.20296 35.0656 13.553 
12.2533 36.9118 17.2302 12.0896 35.8484 17.3557 12.0562 35.0252 17.5748 
12.2625 34.3172 17.9144 12.7552 33.4177 18.2307 13.4128 32.3696 18.2675 
14.0138 31.5639 17.9176 14.4757 31.1843 17.3113 14.9058 31.072 16.6347 
20.1854 45.2001 13.2549 19.3336 45.3138 13.0578 18.323 45.4743 12.9764 
17.2453 45.5556 12.9126 16.1374 45.5627 12.8582 15.0364 45.5567 12.8235 
14.0697 45.4572 12.7337 13.3105 45.1812 12.535 12.6701 44.8368 12.2729 
21.0926 44.8463 14.2262 21.3718 44.4957 14.916 21.7206 44.0377 15.5932 
22.123 43.2838 16.0643 22.5281 42.1881 16.2539 22.9294 40.9853 16.4543 
23.3334 40.0075 17.0565 23.694 39.3649 17.986 23.9578 38.9029 18.76 
20.9605 45.9352 13.1472 21.0111 46.731 12.6205 21.0085 47.6073 12.1244 
21.0435 48.4962 11.6464 21.11 49.2718 11.134 20.9996 49.8687 10.6198 
20.5563 50.3207 10.1205 19.9244 50.6836 9.51604 19.3749 50.9749 8.70643 
21.4868 45.7112 13.8432 22.1575 46.0652 13.9601 22.9454 46.1564 13.7905 
23.9617 46.1447 13.4448 25.2096 46.2897 13.2475 26.4821 46.5586 13.2538 
27.4727 46.6734 13.1293 28.0052 46.5027 12.6324 28.1007 46.1522 11.9142 
13.1692 43.1417 6.32507 12.9272 43.6448 6.70609 12.6307 44.0142 7.1716 
12.3594 44.3735 7.76044 12.1389 44.789 8.4417 11.9185 45.1434 9.19449 
11.7343 45.2623 10.0069 11.7032 45.1206 10.793 11.838 44.8503 11.4605 
13.7314 43.5111 5.71426 14.2843 44.6013 5.55787 15.0236 45.7081 5.47401 
15.7764 46.8467 5.348 16.3226 48.104 5.11856 16.6972 49.4304 4.98739 
17.11 50.525 5.26486 17.6474 51.1173 5.98816 18.2889 51.2495 6.90483 
12.8822 41.9179 6.53067 12.3163 41.2183 7.20257 11.7285 40.3831 8.04084 
11.2279 39.4444 9.00201 10.6903 38.4403 9.82837 9.8846 37.4442 10.3663 
8.9191 36.5909 10.8325 8.14823 35.9522 11.4603 7.70893 35.4502 12.1962 
12.709 45.381 11.6497 13.2943 46.4032 11.3331 13.891 47.3862 10.9282 
14.6369 48.1119 10.3357 15.535 48.6971 9.64673 16.4115 49.3711 9.0485 
17.0904 50.1051 8.62089 17.6177 50.6984 8.31413 18.2215 51.0452 8.0422 
11.0883 44.1948 12.1211 10.0314 43.8768 12.2472 9.22394 43.2603 12.2814 
8.91108 42.0474 12.2279 8.80566 40.483 12.2665 8.43071 39.0884 12.4875 
7.83217 37.998 12.7259 7.42195 36.9909 12.8311 7.35409 35.9521 12.8538 
24.568 34.7902 12.5022 25.0281 34.8107 13.1458 25.4202 34.8821 13.9707 
25.6172 35.0354 14.9867 25.6148 35.3741 16.0347 25.5569 35.9665 16.9505 
25.4805 36.7271 17.7609 25.239 37.4646 18.4902 24.7516 38.0375 18.9715 
24.6195 35.6186 11.9844 25.0267 36.58 12.0852 25.4537 37.5969 12.1141 
25.9478 38.6843 11.9909 26.3004 40.0156 11.8704 26.3549 41.5504 11.8652 
26.3951 42.9632 11.8177 26.772 44.0738 11.6088 27.3904 44.9745 11.3751 
23.7515 34.174 12.4328 23.234 33.5935 13.0163 22.6706 33.0356 13.5018 
22.0668 32.459 13.8936 21.349 31.8793 14.4107 20.467 31.3584 15.0015 
19.3739 31.0111 15.3468 18.0624 30.9141 15.4375 16.6763 30.9795 15.5918 
24.9497 38.7051 18.9215 25.5407 38.9639 18.1058 25.8319 39.426 16.8498 
26.1507 40.2781 15.7485 26.7523 41.4031 15.094 27.3574 42.4903 14.6214 
27.6336 43.4208 13.9929 27.7065 44.282 13.1427 27.8044 45.0937 12.1847 
23.6244 37.7812 18.6872 23.1249 36.8766 17.9914 22.557 35.7897 17.3726 
21.599 34.6562 17.0776 20.1344 33.61 16.9421 18.6595 32.7318 16.7408 
17.6869 32.0271 16.5013 17.0607 31.4916 16.3163 16.3415 31.1586 16.1647 
20.2653 51.1222 8.05683 21.7809 51.1223 8.30476 23.2006 51.0139 8.62993 
24.0026 50.4333 9.23577 24.2338 49.3349 10.0254 24.6952 48.239 10.5597 
25.8553 47.5575 10.6548 27.1587 47.101 10.6361 27.8649 46.5216 10.8449 
7.43958 33.9946 13.3711 7.27311 32.8894 13.9004 7.0637 31.8452 14.4495 
7.25812 31.1528 14.9914 8.17035 30.9286 15.5411 9.55123 30.9651 16.083 
11.015 31.0027 16.4519 12.491 30.9982 16.4782 13.9966 31.0093 16.2382 
15.7504 34.7875 8.12444 15.4305 35.5505 7.76413 16.4318 35.4893 7.68029 
15.0886 36.4042 7.45344 16.1513 36.2841 7.29409 17.0951 36.3794 7.42466 
14.6995 37.4294 7.1364 15.8448 37.3213 7.01615 16.8427 37.3349 7.0635 
17.668 37.5509 7.4067 14.3078 38.4891 6.65822 15.4843 38.4836 6.64394 
16.5752 38.5281 6.72031 17.4094 38.6642 6.99643 18.193 38.8348 7.41653 
14.0118 39.3693 6.05003 15.1166 39.4173 6.00371 16.2666 39.5857 6.16128 
17.1527 39.7998 6.47244 17.9059 39.9517 6.91146 18.7836 39.988 7.29782 
13.8404 40.1862 5.57425 14.7993 40.1228 5.32789 15.9458 40.2911 5.43236 
16.8983 40.6275 5.80138 17.6365 40.9144 6.30543 18.4576 41.0074 6.79431 
19.414 40.9716 7.13313 13.759 41.1922 5.38738 14.5495 40.9957 4.96349 
15.638 41.012 4.90445 16.6723 41.2992 5.22059 17.4359 41.6732 5.73805 
18.1656 41.8861 6.26934 19.057 41.9053 6.705 19.9597 41.877 7.03983 
14.168 34.0239 8.79507 13.1293 33.9068 9.08887 13.7969 34.8524 8.59081 
12.0608 33.8112 9.45377 12.7635 34.6983 8.86394 13.4523 35.6585 8.29046 
11.0399 33.8557 9.9042 11.6898 34.5786 9.14319 12.4799 35.5618 8.56035 
13.1391 36.5705 7.93381 10.0854 34.0615 10.3815 10.6229 34.6635 9.48233 
11.4869 35.588 8.88813 12.3139 36.6431 8.30122 12.8899 37.6459 7.56632 
9.21866 34.312 10.8321 9.66852 34.9076 9.88193 10.5291 35.7898 9.28555 
11.5238 36.8461 8.80776 12.2617 37.854 8.09081 12.7656 38.7305 7.20748 
8.52097 34.5723 11.2806 8.94421 35.18 10.3533 9.76066 36.0285 9.72918 
10.8009 37.0776 9.32963 11.6708 38.107 8.72701 12.2737 39.0046 7.83063 
12.7626 39.7623 6.89618 8.03645 34.9361 11.7453 8.46597 35.5044 10.9026 
9.25348 36.2651 10.2542 10.2558 37.2491 9.8319 11.1163 38.2948 9.29692 
11.7444 39.2579 8.45295 12.2929 40.1077 7.50663 12.8129 40.8302 6.66861 
7.75678 36.4233 12.1471 8.08489 37.4826 12.0885 8.48759 36.9661 11.4791 
8.59589 38.6373 11.9043 9.00789 38.14 11.452 9.47439 37.7078 10.9481 
8.94496 40.054 11.6304 9.39458 39.5453 11.2445 9.92868 39.0486 10.9 
10.3453 38.6653 10.3934 8.99214 41.7356 11.4707 9.46121 41.2372 10.9471 
10.0749 40.657 10.5904 10.5285 40.1253 10.1209 10.8521 39.7243 9.52944 
9.14511 43.2178 11.4852 9.49646 42.9117 10.7662 10.1068 42.3658 10.2106 
10.5875 41.7466 9.65487 10.8862 41.2005 9.01294 11.2484 40.7622 8.45034 
9.81082 44.0711 11.5206 9.93603 44.0732 10.7329 10.3889 43.7595 9.99161 
10.8348 43.2191 9.29261 11.0989 42.654 8.5776 11.3898 42.1624 7.95004 
11.8425 41.7034 7.5205 10.8419 44.4665 11.4923 10.7837 44.6785 10.7522 
11.0005 44.6462 9.95299 11.3307 44.3147 9.16899 11.5727 43.8366 8.41426 
11.7963 43.3878 7.72988 12.1448 42.9753 7.21345 12.5519 42.498 6.85245 
13.6442 44.1345 6.13332 13.5105 44.5597 6.62541 14.2849 45.1213 6.03996 
13.274 44.9107 7.19672 14.2151 45.5069 6.63053 15.0248 46.1539 6.00687 
12.9803 45.3329 7.81723 13.9715 45.9579 7.23821 14.9152 46.6146 6.6475 
15.6508 47.3385 5.93825 12.7065 45.7551 8.50889 13.6171 46.4692 7.83292 
14.6285 47.1634 7.23394 15.4561 47.8631 6.63134 16.0572 48.6653 5.84079 
12.5099 45.969 9.34468 13.3045 46.8032 8.58731 14.263 47.5816 7.85696 
15.2011 48.2705 7.27811 15.8695 49.0441 6.69349 16.4134 49.895 5.94298 
12.4529 45.9022 10.253 13.1447 46.8374 9.58347 13.9696 47.6939 8.78788 
[...]
POINT_DATA 1002
FIELD FieldData 4
_paraPhi 1 1002 double
6.2831853072 3.1415926536 6.2831853072 3.1415926536 4.7123889804 4.7123889804 1.5707963268 1.5707963268 3.6951670125 
5.7296109483 2.5880182947 0.5535743589 6.2831853072 6.2831853072 6.2831853072 6.2831853072 3.1415926536 3.1415926536 
3.1415926536 3.1415926536 3.1415926536 6.1053039672 5.898798347 5.6768734901 5.4599499503 5.2659633393 5.1032165617 
4.9713148346 4.8656852733 4.7809517865 0.17788134 0.38438696014 0.60631181711 0.82323535693 1.0172219679 1.1799687454 
1.3118704726 1.4175000338 1.5022335207 6.1892828907 6.1070320098 6.035312792 5.9728339911 5.9183214791 5.8706119594 
5.8286879411 5.7916808611 5.7588591896 0.093902416448 0.17615329733 0.2478725152 0.31035131605 0.36486382811 0.41257334776 
0.45449736604 0.4915044461 0.52432611754 3.3194739936 3.5259796137 3.7479044707 3.9648280105 4.1588146215 4.321561399 
4.4534631262 4.5590926874 4.6438261743 2.9637113136 2.7572056934 2.5352808365 2.3183572967 2.1243706857 1.9616239082 
1.829722181 1.7240926197 1.6393591329 3.23549507 3.3177459509 3.3894651688 3.4519439696 3.5064564817 3.5541660013 
3.5960900196 3.6330970997 3.6659187711 3.0476902371 2.9654393563 2.8937201384 2.8312413375 2.7767288255 2.7290193058 
2.6870952876 2.6500882075 2.617266536 6.2831853072 6.2831853072 6.2831853072 6.2831853072 3.1415926536 3.1415926536 
3.1415926536 3.1415926536 3.1415926536 6.1053039672 5.898798347 5.6768734901 5.4599499503 5.2659633393 5.1032165617 
4.9713148346 4.8656852733 4.7809517865 0.17788134 0.38438696014 0.60631181711 0.82323535693 1.0172219679 1.1799687454 
1.3118704726 1.4175000338 1.5022335207 6.1892828907 6.1070320098 6.035312792 5.9728339911 5.9183214791 5.8706119594 
5.8286879411 5.7916808611 5.7588591896 0.093902416448 0.17615329733 0.2478725152 0.31035131605 0.36486382811 0.41257334776 
0.45449736604 0.4915044461 0.52432611754 3.3194739936 3.5259796137 3.7479044707 3.9648280105 4.1588146215 4.321561399 
4.4534631262 4.5590926874 4.6438261743 2.9637113136 2.7572056934 2.5352808365 2.3183572967 2.1243706857 1.9616239082 
1.829722181 1.7240926197 1.6393591329 3.23549507 3.3177459509 3.3894651688 3.4519439696 3.5064564817 3.5541660013 
3.5960900196 3.6330970997 3.6659187711 3.0476902371 2.9654393563 2.8937201384 2.8312413375 2.7767288255 2.7290193058 
2.6870952876 2.6500882075 2.617266536 4.7123889804 4.7123889804 4.7123889804 4.7123889804 4.7123889804 4.7123889804 
4.7123889804 4.7123889804 4.7123889804 4.6087898617 4.4991390697 4.3857031936 4.2712800401 4.1588146215 4.0509635631 
3.94975894 3.8564636551 3.7716124825 4.8159880991 4.9256388911 5.0390747672 5.1534979207 5.2659633393 5.3738143976 
5.4750190208 5.5683143056 5.6531654782 4.6087898617 4.4991390697 4.3857031936 4.2712800401 4.1588146215 4.0509635631 
3.94975894 3.8564636551 3.7716124825 4.8159880991 4.9256388911 5.0390747672 5.1534979207 5.2659633393 5.3738143976 
5.4750190208 5.5683143056 5.6531654782 1.5707963268 1.5707963268 1.5707963268 1.5707963268 1.5707963268 1.5707963268 
1.5707963268 1.5707963268 1.5707963268 1.6743954455 1.7840462375 1.8974821136 2.0119052671 2.1243706857 2.232221744 
2.3334263672 2.426721652 2.5115728246 1.4671972081 1.3575464161 1.24411054 1.1296873865 1.0172219679 0.90937090954 
0.80816628637 0.71487100155 0.63001982895 1.6743954455 1.7840462375 1.8974821136 2.0119052671 2.1243706857 2.232221744 
2.3334263672 2.426721652 2.5115728246 1.4671972081 1.3575464161 1.24411054 1.1296873865 1.0172219679 0.90937090954 
0.80816628637 0.71487100155 0.63001982895 3.6007720849 3.4966939854 3.3839471039 3.2645756454 3.1415926536 3.0186096618 
2.8992382033 2.7864913217 2.6824132222 5.8240058758 5.9280839753 6.0408308569 6.1602023154 6.2831853072 0.12298299178 
0.2423544503 0.35510133185 0.45917943135 6.0560271438 5.7885595667 5.9702140275 5.5125918794 5.6029703303 5.7885595667 
5.2659633393 5.2659633393 5.2659633393 5.2659633393 5.0674903122 5.0120975802 4.9155579264 4.7123889804 4.1588146215 
4.9155579264 4.8353719722 4.7123889804 4.5092200343 4.1588146215 3.6362183941 4.8004512023 4.7123889804 4.5894059886 
4.4126803806 4.1588146215 3.8218076305 3.4545639333 4.7123889804 4.6243267584 4.5092200343 4.3572876485 4.1588146215 
3.9121860814 3.6362183941 3.368750817 6.0174235957 5.9434319871 5.8263323547 5.8809213739 5.7674481418 5.6279784266 
5.8278025282 5.718968232 5.5891129425 5.4372443565 5.7823484065 5.678536687 5.5575666702 5.4192596322 5.2659633393 
5.743164462 5.6444075337 5.5314983644 5.4046708639 5.2659633393 5.1195510325 5.7091357773 5.6152775188 5.5096229709 
5.3926039573 5.2659633393 5.1329233157 4.9978930058 5.6793730533 5.5901633916 5.4910209005 5.3824597928 5.2659633393 
5.1440684722 5.0201624502 4.8979782167 5.5683143056 5.4750190208 5.4750190208 5.3738143976 5.3738143976 5.3738143976 
5.2659633393 5.2659633393 5.2659633393 5.2659633393 5.1534979207 5.1534979207 5.1534979207 5.1534979207 5.1534979207 
5.0390747672 5.0390747672 5.0390747672 5.0390747672 5.0390747672 5.0390747672 4.9256388911 4.9256388911 4.9256388911 
4.9256388911 4.9256388911 4.9256388911 4.9256388911 4.8159880991 4.8159880991 4.8159880991 4.8159880991 4.8159880991 
4.8159880991 4.8159880991 4.8159880991 4.6087898617 4.6087898617 4.4991390697 4.6087898617 4.4991390697 4.3857031936 
4.6087898617 4.4991390697 4.3857031936 4.2712800401 4.6087898617 4.4991390697 4.3857031936 4.2712800401 4.1588146215 
4.6087898617 4.4991390697 4.3857031936 4.2712800401 4.1588146215 4.0509635631 4.6087898617 4.4991390697 4.3857031936 
4.2712800401 4.1588146215 4.0509635631 3.94975894 4.6087898617 4.4991390697 4.3857031936 4.2712800401 4.1588146215 
4.0509635631 3.94975894 3.8564636551 4.526799744 4.4046155105 4.426884955 4.2807094886 4.2918546451 4.3052269283 
4.1588146215 4.1588146215 4.1588146215 4.1588146215 4.042318168 4.0321740035 4.0201070968 4.0055183285 3.9875336042 
3.9337570603 3.9151549899 3.8932795963 3.8672112905 3.8356650183 3.7967995342 3.8346145692 3.809500442 3.7803704271 
3.7462412737 3.7058097288 3.657329819 3.5984456061 3.7454049075 3.7156421835 3.6816134988 3.6424295543 3.5969754326 
3.5438565869 3.4813459737 3.4073543651 3.5642842451 3.4524645613 3.5233842518 3.3320300872 3.403123212 3.4773852225 
3.20576226 3.2746326772 3.348015857 3.4255060145 3.0774230472 3.1415926536 3.2112816139 3.2864685043 3.3668817272 
2.95115522 3.00855263 3.0719036933 3.1415926536 3.2178377658 3.3005964304 2.8307207459 2.8800620952 2.9351694502 
2.9967168029 3.0653475414 3.1415926536 3.225752376 2.718901062 2.7598010554 2.8058000847 2.8576792927 2.91630358 
2.9825888767 3.0574329311 3.1415926536 3.5642842451 3.5233842518 3.4524645613 3.4773852225 3.403123212 3.3320300872 
3.4255060145 3.348015857 3.2746326772 3.20576226 3.3668817272 3.2864685043 3.2112816139 3.1415926536 3.0774230472 
3.3005964304 3.2178377658 3.1415926536 3.0719036933 3.00855263 2.95115522 3.225752376 3.1415926536 3.0653475414 
2.9967168029 2.9351694502 2.8800620952 2.8307207459 3.1415926536 3.0574329311 2.9825888767 2.91630358 2.8576792927 
2.8058000847 2.7598010554 2.718901062 4.526799744 4.426884955 4.4046155105 4.3052269283 4.2918546451 4.2807094886 
4.1588146215 4.1588146215 4.1588146215 4.1588146215 3.9875336042 4.0055183285 4.0201070968 4.0321740035 4.042318168 
3.7967995342 3.8356650183 3.8672112905 3.8932795963 3.9151549899 3.9337570603 3.5984456061 3.657329819 3.7058097288 
3.7462412737 3.7803704271 3.809500442 3.8346145692 3.4073543651 3.4813459737 3.5438565869 3.5969754326 3.6424295543 
3.6816134988 3.7156421835 3.7454049075 4.7123889804 4.8004512023 4.6243267584 4.9155579264 4.7123889804 4.5092200343 
5.0674903122 4.8353719722 4.5894059886 4.3572876485 5.2659633393 5.0120975802 4.7123889804 4.4126803806 4.1588146215 
5.5125918794 5.2659633393 4.9155579264 4.5092200343 4.1588146215 3.9121860814 5.7885595667 5.6029703303 5.2659633393 
4.7123889804 4.1588146215 3.8218076305 3.6362183941 6.0560271438 5.9702140275 5.7885595667 5.2659633393 4.1588146215 
3.6362183941 3.4545639333 3.368750817 0.22715816343 0.49462574053 0.3129712797 0.77059342779 0.68021497688 0.49462574053 
1.0172219679 1.0172219679 1.0172219679 1.0172219679 1.2156949949 1.271087727 1.3676273807 1.5707963268 2.1243706857 
1.3676273807 1.447813335 1.5707963268 1.7739652728 2.1243706857 2.6469669131 1.4827341049 1.5707963268 1.6937793186 
1.8705049266 2.1243706857 2.4613776767 2.8286213739 1.5707963268 1.6588585487 1.7739652728 1.9258976586 2.1243706857 
2.3709992258 2.6469669131 2.9144344902 1.7563855631 1.8785697967 1.8563003522 2.0024758186 1.9913306621 1.9779583789 
2.1243706857 2.1243706857 2.1243706857 2.1243706857 2.2408671392 2.2510113037 2.2630782103 2.2776669786 2.295651703 
2.3494282469 2.3680303173 2.3899057108 2.4159740166 2.4475202889 2.486385773 2.448570738 2.4736848652 2.5028148801 
2.5369440334 2.5773755784 2.6258554882 2.6847397011 2.5377803997 2.5675431237 2.6015718084 2.6407557529 2.6862098746 
2.7393287203 2.8018393335 2.8758309421 1.6743954455 1.6743954455 1.7840462375 1.6743954455 1.7840462375 1.8974821136 
1.6743954455 1.7840462375 1.8974821136 2.0119052671 1.6743954455 1.7840462375 1.8974821136 2.0119052671 2.1243706857 
1.6743954455 1.7840462375 1.8974821136 2.0119052671 2.1243706857 2.232221744 1.6743954455 1.7840462375 1.8974821136 
2.0119052671 2.1243706857 2.232221744 2.3334263672 1.6743954455 1.7840462375 1.8974821136 2.0119052671 2.1243706857 
2.232221744 2.3334263672 2.426721652 1.4671972081 1.3575464161 1.4671972081 1.24411054 1.3575464161 1.4671972081 
1.1296873865 1.24411054 1.3575464161 1.4671972081 1.0172219679 1.1296873865 1.24411054 1.3575464161 1.4671972081 
0.90937090954 1.0172219679 1.1296873865 1.24411054 1.3575464161 1.4671972081 0.80816628637 0.90937090954 1.0172219679 
1.1296873865 1.24411054 1.3575464161 1.4671972081 0.71487100155 0.80816628637 0.90937090954 1.0172219679 1.1296873865 
1.24411054 1.3575464161 1.4671972081 0.60381225391 0.57404952988 0.69302191562 0.54002084522 0.66790778838 0.79216440667 
0.50083690068 0.63877777351 0.77356233629 0.90072551443 0.45538277901 0.60464862014 0.75168694275 0.89058134991 1.0172219679 
0.40226393329 0.56421707518 0.72561863695 0.87851444325 1.0172219679 1.139116835 0.33975332011 0.51573716537 0.69407236469 
0.86392567495 1.0172219679 1.1502619915 1.2630228569 0.26576171152 0.45685295248 0.6552068806 0.84594095064 1.0172219679 
1.1636342747 1.2852923014 1.3852070904 0.22715816343 0.3129712797 0.49462574053 0.49462574053 0.68021497688 0.77059342779 
1.0172219679 1.0172219679 1.0172219679 1.0172219679 2.1243706857 1.5707963268 1.3676273807 1.271087727 1.2156949949 
2.6469669131 2.1243706857 1.7739652728 1.5707963268 1.447813335 1.3676273807 2.8286213739 2.4613776767 2.1243706857 
1.8705049266 1.6937793186 1.5707963268 1.4827341049 2.9144344902 2.6469669131 2.3709992258 2.1243706857 1.9258976586 
1.7739652728 1.6588585487 1.5707963268 1.7563855631 1.8563003522 1.8785697967 1.9779583789 1.9913306621 2.0024758186 
2.1243706857 2.1243706857 2.1243706857 2.1243706857 2.295651703 2.2776669786 2.2630782103 2.2510113037 2.2408671392 
2.486385773 2.4475202889 2.4159740166 2.3899057108 2.3680303173 2.3494282469 2.6847397011 2.6258554882 2.5773755784 
2.5369440334 2.5028148801 2.4736848652 2.448570738 2.8758309421 2.8018393335 2.7393287203 2.6862098746 2.6407557529 
2.6015718084 2.5675431237 2.5377803997 5.8604937156 5.901393709 5.9723133995 5.9473927383 6.0216547488 6.0927478736 
5.9992719463 6.0767621038 6.1501452836 6.2190157008 6.0578962336 6.1383094565 6.2134963469 0 0.064169606361 
6.1241815303 6.206940195 6.2831853072 0.069688960264 0.13304002361 0.19043743361 6.1990255847 0 0.07624511221 
0.14487585072 0.20642320337 0.26153055843 0.3108719077 0 0.084159722458 0.15900377685 0.22528907359 0.28391336087 
0.3357925689 0.38179159818 0.42269159155 5.8604937156 5.9723133995 5.901393709 6.0927478736 6.0216547488 5.9473927383 
6.2190157008 6.1501452836 6.0767621038 5.9992719463 0.064169606361 0 6.2134963469 6.1383094565 6.0578962336 
0.19043743361 0.13304002361 0.069688960264 6.2831853072 6.206940195 6.1241815303 0.3108719077 0.26153055843 0.20642320337 
0.14487585072 0.07624511221 6.2831853072 6.1990255847 0.42269159155 0.38179159818 0.3357925689 0.28391336087 0.22528907359 
0.15900377685 0.084159722458 0 5.6793730533 5.7091357773 5.5901633916 5.743164462 5.6152775188 5.4910209005 
5.7823484065 5.6444075337 5.5096229709 5.3824597928 5.8278025282 5.678536687 5.5314983644 5.3926039573 5.2659633393 
5.8809213739 5.718968232 5.5575666702 5.4046708639 5.2659633393 5.1440684722 5.9434319871 5.7674481418 5.5891129425 
5.4192596322 5.2659633393 5.1329233157 5.0201624502 6.0174235957 5.8263323547 5.6279784266 5.4372443565 5.2659633393 
5.1195510325 4.9978930058 4.8979782167 1.3852070904 1.2852923014 1.2630228569 1.1636342747 1.1502619915 1.139116835 
1.0172219679 1.0172219679 1.0172219679 1.0172219679 0.84594095064 0.86392567495 0.87851444325 0.89058134991 0.90072551443 
0.6552068806 0.69407236469 0.72561863695 0.75168694275 0.77356233629 0.79216440667 0.45685295248 0.51573716537 0.56421707518 
0.60464862014 0.63877777351 0.66790778838 0.69302191562 0.26576171152 0.33975332011 0.40226393329 0.45538277901 0.50083690068 
0.54002084522 0.57404952988 0.60381225391 
_paraPhiHalf 1 1002 double
0 3.1415926536 0 3.1415926536 1.5707963268 1.5707963268 1.5707963268 1.5707963268 2.5880182947 
0.5535743589 2.5880182947 0.5535743589 0 0 0 0 3.1415926536 3.1415926536 
3.1415926536 3.1415926536 3.1415926536 0.17788134 0.38438696014 0.60631181711 0.82323535693 1.0172219679 1.1799687454 
1.3118704726 1.4175000338 1.5022335207 0.17788134 0.38438696014 0.60631181711 0.82323535693 1.0172219679 1.1799687454 
1.3118704726 1.4175000338 1.5022335207 0.093902416448 0.17615329733 0.2478725152 0.31035131605 0.36486382811 0.41257334776 
0.45449736604 0.4915044461 0.52432611754 0.093902416448 0.17615329733 0.2478725152 0.31035131605 0.36486382811 0.41257334776 
0.45449736604 0.4915044461 0.52432611754 2.9637113136 2.7572056934 2.5352808365 2.3183572967 2.1243706857 1.9616239082 
1.829722181 1.7240926197 1.6393591329 2.9637113136 2.7572056934 2.5352808365 2.3183572967 2.1243706857 1.9616239082 
1.829722181 1.7240926197 1.6393591329 3.0476902371 2.9654393563 2.8937201384 2.8312413375 2.7767288255 2.7290193058 
2.6870952876 2.6500882075 2.617266536 3.0476902371 2.9654393563 2.8937201384 2.8312413375 2.7767288255 2.7290193058 
2.6870952876 2.6500882075 2.617266536 0 0 0 0 3.1415926536 3.1415926536 
3.1415926536 3.1415926536 3.1415926536 0.17788134 0.38438696014 0.60631181711 0.82323535693 1.0172219679 1.1799687454 
1.3118704726 1.4175000338 1.5022335207 0.17788134 0.38438696014 0.60631181711 0.82323535693 1.0172219679 1.1799687454 
1.3118704726 1.4175000338 1.5022335207 0.093902416448 0.17615329733 0.2478725152 0.31035131605 0.36486382811 0.41257334776 
0.45449736604 0.4915044461 0.52432611754 0.093902416448 0.17615329733 0.2478725152 0.31035131605 0.36486382811 0.41257334776 
0.45449736604 0.4915044461 0.52432611754 2.9637113136 2.7572056934 2.5352808365 2.3183572967 2.1243706857 1.9616239082 
1.829722181 1.7240926197 1.6393591329 2.9637113136 2.7572056934 2.5352808365 2.3183572967 2.1243706857 1.9616239082 
1.829722181 1.7240926197 1.6393591329 3.0476902371 2.9654393563 2.8937201384 2.8312413375 2.7767288255 2.7290193058 
2.6870952876 2.6500882075 2.617266536 3.0476902371 2.9654393563 2.8937201384 2.8312413375 2.7767288255 2.7290193058 
2.6870952876 2.6500882075 2.617266536 1.5707963268 1.5707963268 1.5707963268 1.5707963268 1.5707963268 1.5707963268 
1.5707963268 1.5707963268 1.5707963268 1.6743954455 1.7840462375 1.8974821136 2.0119052671 2.1243706857 2.232221744 
2.3334263672 2.426721652 2.5115728246 1.4671972081 1.3575464161 1.24411054 1.1296873865 1.0172219679 0.90937090954 
0.80816628637 0.71487100155 0.63001982895 1.6743954455 1.7840462375 1.8974821136 2.0119052671 2.1243706857 2.232221744 
2.3334263672 2.426721652 2.5115728246 1.4671972081 1.3575464161 1.24411054 1.1296873865 1.0172219679 0.90937090954 
0.80816628637 0.71487100155 0.63001982895 1.5707963268 1.5707963268 1.5707963268 1.5707963268 1.5707963268 1.5707963268 
1.5707963268 1.5707963268 1.5707963268 1.6743954455 1.7840462375 1.8974821136 2.0119052671 2.1243706857 2.232221744 
2.3334263672 2.426721652 2.5115728246 1.4671972081 1.3575464161 1.24411054 1.1296873865 1.0172219679 0.90937090954 
0.80816628637 0.71487100155 0.63001982895 1.6743954455 1.7840462375 1.8974821136 2.0119052671 2.1243706857 2.232221744 
2.3334263672 2.426721652 2.5115728246 1.4671972081 1.3575464161 1.24411054 1.1296873865 1.0172219679 0.90937090954 
0.80816628637 0.71487100155 0.63001982895 2.6824132222 2.7864913217 2.8992382033 3.0186096618 3.1415926536 3.0186096618 
2.8992382033 2.7864913217 2.6824132222 0.45917943135 0.35510133185 0.2423544503 0.12298299178 0 0.12298299178 
0.2423544503 0.35510133185 0.45917943135 0.22715816343 0.49462574053 0.3129712797 0.77059342779 0.68021497688 0.49462574053 
1.0172219679 1.0172219679 1.0172219679 1.0172219679 1.2156949949 1.271087727 1.3676273807 1.5707963268 2.1243706857 
1.3676273807 1.447813335 1.5707963268 1.7739652728 2.1243706857 2.6469669131 1.4827341049 1.5707963268 1.6937793186 
1.8705049266 2.1243706857 2.4613776767 2.8286213739 1.5707963268 1.6588585487 1.7739652728 1.9258976586 2.1243706857 
2.3709992258 2.6469669131 2.9144344902 0.26576171152 0.33975332011 0.45685295248 0.40226393329 0.51573716537 0.6552068806 
0.45538277901 0.56421707518 0.69407236469 0.84594095064 0.50083690068 0.60464862014 0.72561863695 0.86392567495 1.0172219679 
0.54002084522 0.63877777351 0.75168694275 0.87851444325 1.0172219679 1.1636342747 0.57404952988 0.66790778838 0.77356233629 
0.89058134991 1.0172219679 1.1502619915 1.2852923014 0.60381225391 0.69302191562 0.79216440667 0.90072551443 1.0172219679 
1.139116835 1.2630228569 1.3852070904 0.71487100155 0.80816628637 0.80816628637 0.90937090954 0.90937090954 0.90937090954 
1.0172219679 1.0172219679 1.0172219679 1.0172219679 1.1296873865 1.1296873865 1.1296873865 1.1296873865 1.1296873865 
1.24411054 1.24411054 1.24411054 1.24411054 1.24411054 1.24411054 1.3575464161 1.3575464161 1.3575464161 
1.3575464161 1.3575464161 1.3575464161 1.3575464161 1.4671972081 1.4671972081 1.4671972081 1.4671972081 1.4671972081 
1.4671972081 1.4671972081 1.4671972081 1.6743954455 1.6743954455 1.7840462375 1.6743954455 1.7840462375 1.8974821136 
1.6743954455 1.7840462375 1.8974821136 2.0119052671 1.6743954455 1.7840462375 1.8974821136 2.0119052671 2.1243706857 
1.6743954455 1.7840462375 1.8974821136 2.0119052671 2.1243706857 2.232221744 1.6743954455 1.7840462375 1.8974821136 
2.0119052671 2.1243706857 2.232221744 2.3334263672 1.6743954455 1.7840462375 1.8974821136 2.0119052671 2.1243706857 
2.232221744 2.3334263672 2.426721652 1.7563855631 1.8785697967 1.8563003522 2.0024758186 1.9913306621 1.9779583789 
2.1243706857 2.1243706857 2.1243706857 2.1243706857 2.2408671392 2.2510113037 2.2630782103 2.2776669786 2.295651703 
2.3494282469 2.3680303173 2.3899057108 2.4159740166 2.4475202889 2.486385773 2.448570738 2.4736848652 2.5028148801 
2.5369440334 2.5773755784 2.6258554882 2.6847397011 2.5377803997 2.5675431237 2.6015718084 2.6407557529 2.6862098746 
2.7393287203 2.8018393335 2.8758309421 2.718901062 2.8307207459 2.7598010554 2.95115522 2.8800620952 2.8058000847 
3.0774230472 3.00855263 2.9351694502 2.8576792927 3.0774230472 3.1415926536 3.0719036933 2.9967168029 2.91630358 
2.95115522 3.00855263 3.0719036933 3.1415926536 3.0653475414 2.9825888767 2.8307207459 2.8800620952 2.9351694502 
2.9967168029 3.0653475414 3.1415926536 3.0574329311 2.718901062 2.7598010554 2.8058000847 2.8576792927 2.91630358 
2.9825888767 3.0574329311 3.1415926536 2.718901062 2.7598010554 2.8307207459 2.8058000847 2.8800620952 2.95115522 
2.8576792927 2.9351694502 3.00855263 3.0774230472 2.91630358 2.9967168029 3.0719036933 3.1415926536 3.0774230472 
2.9825888767 3.0653475414 3.1415926536 3.0719036933 3.00855263 2.95115522 3.0574329311 3.1415926536 3.0653475414 