# vtk DataFile Version 5.1
vtk output
ASCII
DATASET POLYDATA
POINTS 1002 float
20.4193 42.6976 14.9965 11.141 38.0407 19.5101 21.6661 40.0692 10.4522 
13.2827 31.6707 12.1593 11.9882 44.0124 13.1841 14.6301 40.4709 9.29561 
20.6909 37.3564 21.2518 21.6375 33.6519 16.1531 5.90712 34.8405 13.9303 
21.2562 48.1356 8.16633 12.1545 29.8655 20.7144 28.2271 41.5115 14.9899 
19.7698 42.3284 15.2866 18.9117 42.1048 15.8212 17.8581 41.8976 16.5185 
16.7918 41.5954 17.219 15.8199 41.2739 17.9159 14.7726 40.9977 18.6868 
13.5516 40.5976 19.3811 12.4138 39.9017 19.7266 11.6243 38.9837 19.6975 
19.7731 42.9518 14.6609 19.0736 43.325 14.4592 18.3492 43.7148 14.3943 
17.5079 44.0595 14.3845 16.4198 44.369 14.3094 15.1702 44.606 14.1344 
14.0394 44.6758 13.9328 13.1846 44.556 13.7426 12.5381 44.3121 13.5085 
20.652 42.2315 15.5244 20.8019 41.7446 16.0662 20.8428 41.2548 16.6492 
20.872 40.7905 17.4036 20.9768 40.3272 18.2775 21.0764 39.7748 18.9874 
21.0587 39.1143 19.487 20.951 38.4564 20.0354 20.8259 37.8842 20.6993 
20.6327 43.3205 14.5819 20.9104 44.0701 14.1817 21.2718 44.8903 13.7384 
21.6399 45.6985 13.203 21.8871 46.4589 12.6584 21.9221 47.1485 12.1766 
21.7551 47.689 11.5795 21.5096 48.0159 10.6277 21.3279 48.1481 9.38433 
21.1638 42.993 15.2191 21.9748 43.4562 15.5554 22.9079 43.8043 15.8016 
23.9905 43.8258 15.8533 25.1858 43.6829 15.8759 26.3703 43.6216 16.0286 
27.3495 43.5091 16.1398 27.9705 43.0642 15.9526 28.228 42.3111 15.494 
10.9943 38.6085 19.1219 10.8633 39.1862 18.6346 10.8338 39.729 17.9924 
10.9426 40.2938 17.2266 11.0676 40.9657 16.4544 11.0893 41.6974 15.7719 
11.1083 42.369 15.1765 11.2937 42.9562 14.5882 11.6331 43.5019 13.9273 
11.6293 38.0479 19.9764 12.3579 37.958 20.3153 13.2802 37.6671 20.3636 
14.2767 37.2157 20.1215 15.3416 36.8413 19.8669 16.5431 36.7496 19.8866 
17.7913 36.8989 20.1704 18.9072 37.1104 20.5479 19.8513 37.2691 20.9242 
10.6778 37.4572 19.0845 10.1182 36.9264 18.7157 9.32202 36.5303 18.3941 
8.44012 36.2367 17.9264 7.74376 35.9625 17.2375 7.19977 35.7136 16.5581 
6.61708 35.5311 16.0329 6.07995 35.3586 15.4743 5.82552 35.1199 14.7305 
10.9425 37.1249 19.6648 10.675 36.1953 19.9376 10.4864 35.2343 20.2395 
10.5353 34.1698 20.423 10.6777 33.0341 20.5413 10.6347 31.9898 20.7994 
10.523 31.1444 21.1711 10.7383 30.5004 21.3655 11.3727 30.0676 21.191 
21.1948 39.2941 10.417 20.7117 38.4352 10.4569 20.1419 37.5086 10.653 
19.3067 36.5776 10.9995 18.1495 35.7348 11.3933 16.8913 34.9809 11.7531 
15.7812 34.2 12.0596 14.8529 33.3295 12.2656 14.0315 32.4481 12.2977 
21.2278 40.1477 9.90716 20.8175 40.1893 9.32347 20.3137 40.2154 8.80986 
19.5497 40.2576 8.44109 18.5357 40.3188 8.21235 17.4902 40.3646 8.11402 
16.5961 40.3862 8.18882 15.8694 40.4157 8.46398 15.24 40.4566 8.87543 
21.8824 39.4687 10.9306 22.1581 38.7569 11.4199 22.3893 37.9412 11.9291 
22.4761 37.0699 12.4784 22.4709 36.2168 13.0887 22.4914 35.4625 13.7477 
22.4937 34.8655 14.4034 22.3361 34.4107 15.0163 22.0103 34.0231 15.5931 
21.8591 40.9061 10.1561 22.0562 41.8273 9.75829 22.197 42.7881 9.25679 
22.2682 43.7252 8.77961 22.3504 44.6485 8.44003 22.4913 45.6235 8.14137 
22.5584 46.6034 7.779 22.3566 47.4088 7.52971 21.8666 47.912 7.65393 
22.2827 40.4576 10.7904 22.9358 40.8196 11.1167 23.583 41.1295 11.4397 
24.3484 41.3614 11.7851 25.3568 41.4818 12.1467 26.4219 41.4821 12.5022 
27.2224 41.4132 12.8836 27.7055 41.359 13.3916 28.0173 41.3862 14.1066 
12.9157 32.375 12.0643 12.5968 33.1339 11.9096 12.3649 33.8728 11.5567 
12.2928 34.7127 11.1816 12.4524 35.815 11.0557 12.8182 37.0481 11.0354 
13.2904 38.1038 10.7639 13.7908 38.9159 10.2355 14.2587 39.6629 9.70241 
14.1459 31.5065 12.4867 15.0424 31.475 12.9544 15.9329 31.6002 13.4734 
16.8577 31.7546 13.9136 17.8361 31.8121 14.2628 18.7532 31.8956 14.6317 
19.4989 32.2316 15.0626 20.1509 32.7844 15.4773 20.8588 33.3044 15.8275 
12.2892 31.3651 11.8531 11.2622 31.0872 11.588 10.2614 30.9356 11.5629 
9.30181 31.0996 11.9055 8.44673 31.6537 12.4885 7.79801 32.366 13.007 
7.31407 32.9555 13.295 6.8361 33.4544 13.4513 6.32678 34.0668 13.6444 
13.0801 30.8948 12.1653 12.8637 30.3152 12.4121 12.5913 30.0116 13.1032 
12.2573 29.933 14.2175 11.9565 29.9762 15.4575 11.8193 30.0573 16.5585 
11.8638 30.0849 17.5575 11.9883 30.0071 18.615 12.0946 29.8918 19.7228 
11.8648 44.0799 12.3941 11.7892 44.0092 11.5224 11.8685 43.7621 10.8345 
12.1511 43.4166 10.5075 12.5861 43.079 10.3662 13.1037 42.7313 10.1236 
13.6366 42.2684 9.77786 14.0902 41.6705 9.49994 14.41 41.0361 9.3516 
11.2106 43.3703 13.2441 10.3453 42.6632 13.1966 9.51692 41.7945 13.1217 
8.8408 40.7025 13.1537 8.19417 39.6081 13.2869 7.34549 38.7825 13.3821 
6.40232 38.0771 13.412 5.77408 37.1479 13.4947 5.66498 35.9822 13.689 
12.6357 44.7307 12.584 13.2938 45.496 11.9605 14.053 46.2323 11.4594 
15.0177 46.8732 11.0728 16.14 47.3856 10.5958 17.2363 47.7636 9.89059 
18.2188 48.0202 9.10365 19.1808 48.1671 8.50045 20.2121 48.2037 8.20407 
13.6253 39.8835 9.82004 12.2219 39.161 10.0561 10.6052 38.3319 9.99721 
9.14467 37.523 9.99171 8.08063 36.8732 10.3578 7.35026 36.3884 10.9565 
6.78283 35.975 11.5372 6.32283 35.584 12.1754 6.0178 35.2119 13.0079 
15.2302 41.3918 8.65633 15.6798 42.4145 7.94338 16.1276 43.4382 7.25459 
16.7328 44.452 6.70452 17.5172 45.5251 6.28168 18.3766 46.5903 5.91552 
19.1977 47.428 5.77169 19.933 47.9103 6.14389 20.6046 48.099 7.03928 
21.1153 36.9638 21.5581 21.5417 36.3181 21.5014 21.9033 35.4766 21.1239 
22.1634 34.71 20.6855 22.3164 34.2481 20.2558 22.3506 34.0213 19.5936 
22.2692 33.8411 18.62 22.1062 33.6834 17.5999 21.8897 33.6204 16.7735 
19.9665 36.7334 21.3957 19.0654 35.9454 21.2937 18.0449 34.9501 21.07 
17.082 33.8305 21.0843 16.3293 32.7016 21.5245 15.7093 31.6185 22.089 
14.9825 30.6981 22.3352 14.0517 30.116 22.1125 13.052 29.8909 21.5175 
21.6255 37.7869 21.2275 22.6529 38.3136 21.0481 23.7829 38.8658 20.6447 
24.9685 39.3376 20.1044 26.0962 39.7311 19.6065 27.0518 40.1013 19.108 
27.7617 40.434 18.3606 28.1799 40.7316 17.2955 28.3102 41.0747 16.1032 
20.853 32.9995 16.538 20.2705 32.1466 16.9661 19.7699 31.3678 17.349 
18.9681 30.9711 17.6585 17.7626 30.8526 18.047 16.5526 30.6246 18.6875 
15.5908 30.2167 19.4909 14.633 29.8945 20.1773 13.4471 29.8023 20.5763 
22.7244 34.0879 16.1669 23.7877 34.5387 16.1993 24.6116 35.2351 16.2071 
25.2578 36.2254 16.1718 25.9328 37.2872 16.0785 26.6658 38.182 15.8991 
27.3284 38.9027 15.6492 27.8302 39.6265 15.3951 28.1342 40.5016 15.1777 
6.11965 33.9139 14.6027 6.23226 32.9425 15.2001 6.0919 31.997 15.8417 
5.88624 31.1606 16.7018 6.10455 30.5175 17.6688 6.99275 30.1171 18.4419 
8.27551 29.9473 18.9915 9.59335 29.9232 19.5322 10.8707 29.9191 20.1445 
22.3389 48.0688 8.93457 23.4998 48.0358 9.68713 24.6441 47.9542 10.4084 
25.6292 47.597 11.1351 26.336 46.862 11.7712 26.8104 45.9013 12.2355 
27.2295 44.8497 12.7057 27.6684 43.7103 13.3786 28.0338 42.5476 14.1949 
18.9999 42.7342 15.1056 18.1742 43.1734 15.0284 18.0066 42.6017 15.8081 
17.327 43.5267 15.0516 17.0622 42.9914 15.8015 16.883 42.3513 16.5885 
16.335 43.8308 15.1049 16.1013 43.2543 15.8384 15.8875 42.618 16.5632 
15.8137 41.9391 17.2893 15.111 44.1142 15.0464 14.9987 43.5192 15.8785 
14.8645 42.8168 16.5436 14.7743 42.1191 17.2221 14.7524 41.5275 17.9873 
13.8677 44.2309 14.8304 13.7707 43.7013 15.749 13.7494 43.0121 16.4748 
13.705 42.2545 17.1018 13.6009 41.6175 17.8687 13.5267 41.118 18.7102 
12.8909 44.0875 14.5541 12.6862 43.5987 15.4122 12.6578 42.9972 16.1785 
12.6717 42.2686 16.8353 12.5527 41.5677 17.5681 12.3701 41.0083 18.4283 
12.3113 40.4954 19.2029 12.1967 43.7983 14.2683 11.8969 43.2789 15.0024 
11.7799 42.7106 15.6899 11.7908 42.0364 16.3477 11.7186 41.3231 17.0658 
11.5277 40.7024 17.8871 11.4042 40.1645 18.6811 11.4576 39.6003 19.2884 
19.9973 43.5599 14.2045 20.2862 44.32 13.7875 19.3229 43.9174 13.9746 
20.6305 45.1573 13.262 19.5708 44.6762 13.4718 18.5582 44.3075 13.8384 
20.9306 45.975 12.5954 19.7981 45.5276 12.7968 18.6522 45.0664 13.1906 
17.5686 44.6565 13.6907 21.0373 46.7426 11.9909 19.9435 46.3835 12.0668 
18.6808 45.9271 12.4594 17.4785 45.3847 12.9642 16.3427 44.9338 13.5005 
20.8737 47.4129 11.478 19.8885 47.1663 11.4889 18.6653 46.7838 11.8252 
17.3709 46.195 12.3446 16.1974 45.5899 12.8211 15.1028 45.1129 13.3174 
20.552 47.886 10.7238 19.6148 47.7499 10.8617 18.5364 47.4797 11.2288 
17.2943 46.9626 11.7856 16.0836 46.3123 12.2762 15.025 45.7111 12.6639 
14.0715 45.154 13.1426 20.2927 48.132 9.54556 19.3125 48.0629 9.83834 
18.3321 47.8823 10.3442 17.2298 47.5101 11.0043 16.046 46.9642 11.584 
14.9609 46.3507 11.9784 14.059 45.7117 12.3687 13.2754 45.024 12.9078 
19.4963 48.147 7.08434 18.8115 47.8719 6.34057 18.4355 48.0286 7.59702 
18.1085 47.2945 6.18359 17.7826 47.6794 7.10676 17.4547 47.814 8.4846 
17.3375 46.4241 6.40435 17.1458 47.0984 7.0523 16.8135 47.4588 8.12158 
16.4137 47.5468 9.38666 16.5551 45.3938 6.72364 16.4517 46.2526 7.19971 
16.2031 46.8497 8.01156 15.7148 47.1372 8.96365 15.2371 47.1359 10.0228 
15.9095 44.3366 7.2063 15.7697 45.1955 7.53115 15.5602 45.8637 8.17451 
15.0844 46.2945 8.8536 14.4786 46.5096 9.56925 14.0994 46.4878 10.484 
15.4477 43.2523 7.937 15.2125 44.0438 8.17239 14.9284 44.6449 8.68345 
14.4689 45.0528 9.20236 13.8501 45.3779 9.59581 13.3554 45.6213 10.1508 
13.2007 45.6688 11.0221 15.0125 42.1232 8.72264 14.7153 42.8533 8.93375 
14.3213 43.4273 9.33882 13.8269 43.7992 9.77249 13.2563 44.1031 10.0204 
12.7488 44.4474 10.2531 12.4934 44.7383 10.8221 12.5069 44.8322 11.7026 
11.0811 43.3706 12.4041 11.0547 43.243 11.5417 10.2307 42.6021 12.3495 
11.1671 42.9859 10.9111 10.26 42.4632 11.5175 9.44349 41.6509 12.328 
11.3891 42.6372 10.576 10.3383 42.228 10.8613 9.46772 41.5023 11.5357 
8.75041 40.5083 12.4239 11.7314 42.1903 10.3397 10.4119 41.7956 10.3829 
9.39718 41.23 10.8092 8.63328 40.3438 11.6434 7.9553 39.4348 12.5292 
12.2345 41.6183 10.0828 10.6369 41.1027 10.0392 9.29336 40.6185 10.2158 
8.382 39.9538 10.8904 7.67576 39.1774 11.7215 6.9833 38.5376 12.5189 
[...]
POINT_DATA 1002
FIELD FieldData 4
_paraPhi 1 1002 double
6.2831853072 3.1415926536 6.2831853072 3.1415926536 4.7123889804 4.7123889804 1.5707963268 1.5707963268 3.6951670125 
5.7296109483 2.5880182947 0.5535743589 6.2831853072 6.2831853072 6.2831853072 6.2831853072 3.1415926536 3.1415926536 
3.1415926536 3.1415926536 3.1415926536 6.1053039672 5.898798347 5.6768734901 5.4599499503 5.2659633393 5.1032165617 
4.9713148346 4.8656852733 4.7809517865 0.17788134 0.38438696014 0.60631181711 0.82323535693 1.0172219679 1.1799687454 
1.3118704726 1.4175000338 1.5022335207 6.1892828907 6.1070320098 6.035312792 5.9728339911 5.9183214791 5.8706119594 
5.8286879411 5.7916808611 5.7588591896 0.093902416448 0.17615329733 0.2478725152 0.31035131605 0.36486382811 0.41257334776 
0.45449736604 0.4915044461 0.52432611754 3.3194739936 3.5259796137 3.7479044707 3.9648280105 4.1588146215 4.321561399 
4.4534631262 4.5590926874 4.6438261743 2.9637113136 2.7572056934 2.5352808365 2.3183572967 2.1243706857 1.9616239082 
1.829722181 1.7240926197 1.6393591329 3.23549507 3.3177459509 3.3894651688 3.4519439696 3.5064564817 3.5541660013 
3.5960900196 3.6330970997 3.6659187711 3.0476902371 2.9654393563 2.8937201384 2.8312413375 2.7767288255 2.7290193058 
2.6870952876 2.6500882075 2.617266536 6.2831853072 6.2831853072 6.2831853072 6.2831853072 3.1415926536 3.1415926536 
3.1415926536 3.1415926536 3.1415926536 6.1053039672 5.898798347 5.6768734901 5.4599499503 5.2659633393 5.1032165617 
4.9713148346 4.8656852733 4.7809517865 0.17788134 0.38438696014 0.60631181711 0.82323535693 1.0172219679 1.1799687454 
1.3118704726 1.4175000338 1.5022335207 6.1892828907 6.1070320098 6.035312792 5.9728339911 5.9183214791 5.8706119594 
5.8286879411 5.7916808611 5.7588591896 0.093902416448 0.17615329733 0.2478725152 0.31035131605 0.36486382811 0.41257334776 
0.45449736604 0.4915044461 0.52432611754 3.3194739936 3.5259796137 3.7479044707 3.9648280105 4.1588146215 4.321561399 
4.4534631262 4.5590926874 4.6438261743 2.9637113136 2.7572056934 2.5352808365 2.3183572967 2.1243706857 1.9616239082 
1.829722181 1.7240926197 1.6393591329 3.23549507 3.3177459509 3.3894651688 3.4519439696 3.5064564817 3.5541660013 
3.5960900196 3.6330970997 3.6659187711 3.0476902371 2.9654393563 2.8937201384 2.8312413375 2.7767288255 2.7290193058 
2.6870952876 2.6500882075 2.617266536 4.7123889804 4.7123889804 4.7123889804 4.7123889804 4.7123889804 4.7123889804 
4.7123889804 4.7123889804 4.7123889804 4.6087898617 4.4991390697 4.3857031936 4.2712800401 4.1588146215 4.0509635631 
3.94975894 3.8564636551 3.7716124825 4.8159880991 4.9256388911 5.0390747672 5.1534979207 5.2659633393 5.3738143976 
5.4750190208 5.5683143056 5.6531654782 4.6087898617 4.4991390697 4.3857031936 4.2712800401 4.1588146215 4.0509635631 
3.94975894 3.8564636551 3.7716124825 4.8159880991 4.9256388911 5.0390747672 5.1534979207 5.2659633393 5.3738143976 
5.4750190208 5.5683143056 5.6531654782 1.5707963268 1.5707963268 1.5707963268 1.5707963268 1.5707963268 1.5707963268 
1.5707963268 1.5707963268 1.5707963268 1.6743954455 1.7840462375 1.8974821136 2.0119052671 2.1243706857 2.232221744 
2.3334263672 2.426721652 2.5115728246 1.4671972081 1.3575464161 1.24411054 1.1296873865 1.0172219679 0.90937090954 
0.80816628637 0.71487100155 0.63001982895 1.6743954455 1.7840462375 1.8974821136 2.0119052671 2.1243706857 2.232221744 
2.3334263672 2.426721652 2.5115728246 1.4671972081 1.3575464161 1.24411054 1.1296873865 1.0172219679 0.90937090954 
0.80816628637 0.71487100155 0.63001982895 3.6007720849 3.4966939854 3.3839471039 3.2645756454 3.1415926536 3.0186096618 
2.8992382033 2.7864913217 2.6824132222 5.8240058758 5.9280839753 6.0408308569 6.1602023154 6.2831853072 0.12298299178 
0.2423544503 0.35510133185 0.45917943135 6.0560271438 5.7885595667 5.9702140275 5.5125918794 5.6029703303 5.7885595667 
5.2659633393 5.2659633393 5.2659633393 5.2659633393 5.0674903122 5.0120975802 4.9155579264 4.7123889804 4.1588146215 
4.9155579264 4.8353719722 4.7123889804 4.5092200343 4.1588146215 3.6362183941 4.8004512023 4.7123889804 4.5894059886 
4.4126803806 4.1588146215 3.8218076305 3.4545639333 4.7123889804 4.6243267584 4.5092200343 4.3572876485 4.1588146215 
3.9121860814 3.6362183941 3.368750817 6.0174235957 5.9434319871 5.8263323547 5.8809213739 5.7674481418 5.6279784266 
5.8278025282 5.718968232 5.5891129425 5.4372443565 5.7823484065 5.678536687 5.5575666702 5.4192596322 5.2659633393 
5.743164462 5.6444075337 5.5314983644 5.4046708639 5.2659633393 5.1195510325 5.7091357773 5.6152775188 5.5096229709 
5.3926039573 5.2659633393 5.1329233157 4.9978930058 5.6793730533 5.5901633916 5.4910209005 5.3824597928 5.2659633393 
5.1440684722 5.0201624502 4.8979782167 5.5683143056 5.4750190208 5.4750190208 5.3738143976 5.3738143976 5.3738143976 
5.2659633393 5.2659633393 5.2659633393 5.2659633393 5.1534979207 5.1534979207 5.1534979207 5.1534979207 5.1534979207 
5.0390747672 5.0390747672 5.0390747672 5.0390747672 5.0390747672 5.0390747672 4.9256388911 4.9256388911 4.9256388911 
4.9256388911 4.9256388911 4.9256388911 4.9256388911 4.8159880991 4.8159880991 4.8159880991 4.8159880991 4.8159880991 
4.8159880991 4.8159880991 4.8159880991 4.6087898617 4.6087898617 4.4991390697 4.6087898617 4.4991390697 4.3857031936 
4.6087898617 4.4991390697 4.3857031936 4.2712800401 4.6087898617 4.4991390697 4.3857031936 4.2712800401 4.1588146215 
4.6087898617 4.4991390697 4.3857031936 4.2712800401 4.1588146215 4.0509635631 4.6087898617 4.4991390697 4.3857031936 
4.2712800401 4.1588146215 4.0509635631 3.94975894 4.6087898617 4.4991390697 4.3857031936 4.2712800401 4.1588146215 
4.0509635631 3.94975894 3.8564636551 4.526799744 4.4046155105 4.426884955 4.2807094886 4.2918546451 4.3052269283 
4.1588146215 4.1588146215 4.1588146215 4.1588146215 4.042318168 4.0321740035 4.0201070968 4.0055183285 3.9875336042 
3.9337570603 3.9151549899 3.8932795963 3.8672112905 3.8356650183 3.7967995342 3.8346145692 3.809500442 3.7803704271 
3.7462412737 3.7058097288 3.657329819 3.5984456061 3.7454049075 3.7156421835 3.6816134988 3.6424295543 3.5969754326 
3.5438565869 3.4813459737 3.4073543651 3.5642842451 3.4524645613 3.5233842518 3.3320300872 3.403123212 3.4773852225 
3.20576226 3.2746326772 3.348015857 3.4255060145 3.0774230472 3.1415926536 3.2112816139 3.2864685043 3.3668817272 
2.95115522 3.00855263 3.0719036933 3.1415926536 3.2178377658 3.3005964304 2.8307207459 2.8800620952 2.9351694502 
2.9967168029 3.0653475414 3.1415926536 3.225752376 2.718901062 2.7598010554 2.8058000847 2.8576792927 2.91630358 
2.9825888767 3.0574329311 3.1415926536 3.5642842451 3.5233842518 3.4524645613 3.4773852225 3.403123212 3.3320300872 
3.4255060145 3.348015857 3.2746326772 3.20576226 3.3668817272 3.2864685043 3.2112816139 3.1415926536 3.0774230472 
3.3005964304 3.2178377658 3.1415926536 3.0719036933 3.00855263 2.95115522 3.225752376 3.1415926536 3.0653475414 
2.9967168029 2.9351694502 2.8800620952 2.8307207459 3.1415926536 3.0574329311 2.9825888767 2.91630358 2.8576792927 
2.8058000847 2.7598010554 2.718901062 4.526799744 4.426884955 4.4046155105 4.3052269283 4.2918546451 4.2807094886 
4.1588146215 4.1588146215 4.1588146215 4.1588146215 3.9875336042 4.0055183285 4.0201070968 4.0321740035 4.042318168 
3.7967995342 3.8356650183 3.8672112905 3.8932795963 3.9151549899 3.9337570603 3.5984456061 3.657329819 3.7058097288 
3.7462412737 3.7803704271 3.809500442 3.8346145692 3.4073543651 3.4813459737 3.5438565869 3.5969754326 3.6424295543 
3.6816134988 3.7156421835 3.7454049075 4.7123889804 4.8004512023 4.6243267584 4.9155579264 4.7123889804 4.5092200343 
5.0674903122 4.8353719722 4.5894059886 4.3572876485 5.2659633393 5.0120975802 4.7123889804 4.4126803806 4.1588146215 
5.5125918794 5.2659633393 4.9155579264 4.5092200343 4.1588146215 3.9121860814 5.7885595667 5.6029703303 5.2659633393 
4.7123889804 4.1588146215 3.8218076305 3.6362183941 6.0560271438 5.9702140275 5.7885595667 5.2659633393 4.1588146215 
3.6362183941 3.4545639333 3.368750817 0.22715816343 0.49462574053 0.3129712797 0.77059342779 0.68021497688 0.49462574053 
1.0172219679 1.0172219679 1.0172219679 1.0172219679 1.2156949949 1.271087727 1.3676273807 1.5707963268 2.1243706857 
1.3676273807 1.447813335 1.5707963268 1.7739652728 2.1243706857 2.6469669131 1.4827341049 1.5707963268 1.6937793186 
1.8705049266 2.1243706857 2.4613776767 2.8286213739 1.5707963268 1.6588585487 1.7739652728 1.9258976586 2.1243706857 
2.3709992258 2.6469669131 2.9144344902 1.7563855631 1.8785697967 1.8563003522 2.0024758186 1.9913306621 1.9779583789 
2.1243706857 2.1243706857 2.1243706857 2.1243706857 2.2408671392 2.2510113037 2.2630782103 2.2776669786 2.295651703 
2.3494282469 2.3680303173 2.3899057108 2.4159740166 2.4475202889 2.486385773 2.448570738 2.4736848652 2.5028148801 
2.5369440334 2.5773755784 2.6258554882 2.6847397011 2.5377803997 2.5675431237 2.6015718084 2.6407557529 2.6862098746 
2.7393287203 2.8018393335 2.8758309421 1.6743954455 1.6743954455 1.7840462375 1.6743954455 1.7840462375 1.8974821136 
1.6743954455 1.7840462375 1.8974821136 2.0119052671 1.6743954455 1.7840462375 1.8974821136 2.0119052671 2.1243706857 
1.6743954455 1.7840462375 1.8974821136 2.0119052671 2.1243706857 2.232221744 1.6743954455 1.7840462375 1.8974821136 
2.0119052671 2.1243706857 2.232221744 2.3334263672 1.6743954455 1.7840462375 1.8974821136 2.0119052671 2.1243706857 
2.232221744 2.3334263672 2.426721652 1.4671972081 1.3575464161 1.4671972081 1.24411054 1.3575464161 1.4671972081 
1.1296873865 1.24411054 1.3575464161 1.4671972081 1.0172219679 1.1296873865 1.24411054 1.3575464161 1.4671972081 
0.90937090954 1.0172219679 1.1296873865 1.24411054 1.3575464161 1.4671972081 0.80816628637 0.90937090954 1.0172219679 
1.1296873865 1.24411054 1.3575464161 1.4671972081 0.71487100155 0.80816628637 0.90937090954 1.0172219679 1.1296873865 
1.24411054 1.3575464161 1.4671972081 0.60381225391 0.57404952988 0.69302191562 0.54002084522 0.66790778838 0.79216440667 
0.50083690068 0.63877777351 0.77356233629 0.90072551443 0.45538277901 0.60464862014 0.75168694275 0.89058134991 1.0172219679 
0.40226393329 0.56421707518 0.72561863695 0.87851444325 1.0172219679 1.139116835 0.33975332011 0.51573716537 0.69407236469 
0.86392567495 1.0172219679 1.1502619915 1.2630228569 0.26576171152 0.45685295248 0.6552068806 0.84594095064 1.0172219679 
1.1636342747 1.2852923014 1.3852070904 0.22715816343 0.3129712797 0.49462574053 0.49462574053 0.68021497688 0.77059342779 
1.0172219679 1.0172219679 1.0172219679 1.0172219679 2.1243706857 1.5707963268 1.3676273807 1.271087727 1.2156949949 
2.6469669131 2.1243706857 1.7739652728 1.5707963268 1.447813335 1.3676273807 2.8286213739 2.4613776767 2.1243706857 
1.8705049266 1.6937793186 1.5707963268 1.4827341049 2.9144344902 2.6469669131 2.3709992258 2.1243706857 1.9258976586 
1.7739652728 1.6588585487 1.5707963268 1.7563855631 1.8563003522 1.8785697967 1.9779583789 1.9913306621 2.0024758186 
2.1243706857 2.1243706857 2.1243706857 2.1243706857 2.295651703 2.2776669786 2.2630782103 2.2510113037 2.2408671392 
2.486385773 2.4475202889 2.4159740166 2.3899057108 2.3680303173 2.3494282469 2.6847397011 2.6258554882 2.5773755784 
2.5369440334 2.5028148801 2.4736848652 2.448570738 2.8758309421 2.8018393335 2.7393287203 2.6862098746 2.6407557529 
2.6015718084 2.5675431237 2.5377803997 5.8604937156 5.901393709 5.9723133995 5.9473927383 6.0216547488 6.0927478736 
5.9992719463 6.0767621038 6.1501452836 6.2190157008 6.0578962336 6.1383094565 6.2134963469 0 0.064169606361 
6.1241815303 6.206940195 6.2831853072 0.069688960264 0.13304002361 0.19043743361 6.1990255847 0 0.07624511221 
0.14487585072 0.20642320337 0.26153055843 0.3108719077 0 0.084159722458 0.15900377685 0.22528907359 0.28391336087 
0.3357925689 0.38179159818 0.42269159155 5.8604937156 5.9723133995 5.901393709 6.0927478736 6.0216547488 5.9473927383 
6.2190157008 6.1501452836 6.0767621038 5.9992719463 0.064169606361 0 6.2134963469 6.1383094565 6.0578962336 
0.19043743361 0.13304002361 0.069688960264 6.2831853072 6.206940195 6.1241815303 0.3108719077 0.26153055843 0.20642320337 
0.14487585072 0.07624511221 6.2831853072 6.1990255847 0.42269159155 0.38179159818 0.3357925689 0.28391336087 0.22528907359 
0.15900377685 0.084159722458 0 5.6793730533 5.7091357773 5.5901633916 5.743164462 5.6152775188 5.4910209005 
5.7823484065 5.6444075337 5.5096229709 5.3824597928 5.8278025282 5.678536687 5.5314983644 5.3926039573 5.2659633393 
5.8809213739 5.718968232 5.5575666702 5.4046708639 5.2659633393 5.1440684722 5.9434319871 5.7674481418 5.5891129425 
5.4192596322 5.2659633393 5.1329233157 5.0201624502 6.0174235957 5.8263323547 5.6279784266 5.4372443565 5.2659633393 
5.1195510325 4.9978930058 4.8979782167 1.3852070904 1.2852923014 1.2630228569 1.1636342747 1.1502619915 1.139116835 
1.0172219679 1.0172219679 1.0172219679 1.0172219679 0.84594095064 0.86392567495 0.87851444325 0.89058134991 0.90072551443 
0.6552068806 0.69407236469 0.72561863695 0.75168694275 0.77356233629 0.79216440667 0.45685295248 0.51573716537 0.56421707518 
0.60464862014 0.63877777351 0.66790778838 0.69302191562 0.26576171152 0.33975332011 0.40226393329 0.45538277901 0.50083690068 
0.54002084522 0.57404952988 0.60381225391 
_paraPhiHalf 1 1002 double
0 3.1415926536 0 3.1415926536 1.5707963268 1.5707963268 1.5707963268 1.5707963268 2.5880182947 
0.5535743589 2.5880182947 0.5535743589 0 0 0 0 3.1415926536 3.1415926536 
3.1415926536 3.1415926536 3.1415926536 0.17788134 0.38438696014 0.60631181711 0.82323535693 1.0172219679 1.1799687454 
1.3118704726 1.4175000338 1.5022335207 0.17788134 0.38438696014 0.60631181711 0.82323535693 1.0172219679 1.1799687454 
1.3118704726 1.4175000338 1.5022335207 0.093902416448 0.17615329733 0.2478725152 0.31035131605 0.36486382811 0.41257334776 
0.45449736604 0.4915044461 0.52432611754 0.093902416448 0.17615329733 0.2478725152 0.31035131605 0.36486382811 0.41257334776 
0.45449736604 0.4915044461 0.52432611754 2.9637113136 2.7572056934 2.5352808365 2.3183572967 2.1243706857 1.9616239082 
1.829722181 1.7240926197 1.6393591329 2.9637113136 2.7572056934 2.5352808365 2.3183572967 2.1243706857 1.9616239082 
1.829722181 1.7240926197 1.6393591329 3.0476902371 2.9654393563 2.8937201384 2.8312413375 2.7767288255 2.7290193058 
2.6870952876 2.6500882075 2.617266536 3.0476902371 2.9654393563 2.8937201384 2.8312413375 2.7767288255 2.7290193058 
2.6870952876 2.6500882075 2.617266536 0 0 0 0 3.1415926536 3.1415926536 
3.1415926536 3.1415926536 3.1415926536 0.17788134 0.38438696014 0.60631181711 0.82323535693 1.0172219679 1.1799687454 
1.3118704726 1.4175000338 1.5022335207 0.17788134 0.38438696014 0.60631181711 0.82323535693 1.0172219679 1.1799687454 
1.3118704726 1.4175000338 1.5022335207 0.093902416448 0.17615329733 0.2478725152 0.31035131605 0.36486382811 0.41257334776 
0.45449736604 0.4915044461 0.52432611754 0.093902416448 0.17615329733 0.2478725152 0.31035131605 0.36486382811 0.41257334776 
0.45449736604 0.4915044461 0.52432611754 2.9637113136 2.7572056934 2.5352808365 2.3183572967 2.1243706857 1.9616239082 
1.829722181 1.7240926197 1.6393591329 2.9637113136 2.7572056934 2.5352808365 2.3183572967 2.1243706857 1.9616239082 
1.829722181 1.7240926197 1.6393591329 3.0476902371 2.9654393563 2.8937201384 2.8312413375 2.7767288255 2.7290193058 
2.6870952876 2.6500882075 2.617266536 3.0476902371 2.9654393563 2.8937201384 2.8312413375 2.7767288255 2.7290193058 
2.6870952876 2.6500882075 2.617266536 1.5707963268 1.5707963268 1.5707963268 1.5707963268 1.5707963268 1.5707963268 
1.5707963268 1.5707963268 1.5707963268 1.6743954455 1.7840462375 1.8974821136 2.0119052671 2.1243706857 2.232221744 
2.3334263672 2.426721652 2.5115728246 1.4671972081 1.3575464161 1.24411054 1.1296873865 1.0172219679 0.90937090954 
0.80816628637 0.71487100155 0.63001982895 1.6743954455 1.7840462375 1.8974821136 2.0119052671 2.1243706857 2.232221744 
2.3334263672 2.426721652 2.5115728246 1.4671972081 1.3575464161 1.24411054 1.1296873865 1.0172219679 0.90937090954 
0.80816628637 0.71487100155 0.63001982895 1.5707963268 1.5707963268 1.5707963268 1.5707963268 1.5707963268 1.5707963268 
1.5707963268 1.5707963268 1.5707963268 1.6743954455 1.7840462375 1.8974821136 2.0119052671 2.1243706857 2.232221744 
2.3334263672 2.426721652 2.5115728246 1.4671972081 1.3575464161 1.24411054 1.1296873865 1.0172219679 0.90937090954 
0.80816628637 0.71487100155 0.63001982895 1.6743954455 1.7840462375 1.8974821136 2.0119052671 2.1243706857 2.232221744 
2.3334263672 2.426721652 2.5115728246 1.4671972081 1.3575464161 1.24411054 1.1296873865 1.0172219679 0.90937090954 
0.80816628637 0.71487100155 0.63001982895 2.6824132222 2.7864913217 2.8992382033 3.0186096618 3.1415926536 3.0186096618 
2.8992382033 2.7864913217 2.6824132222 0.45917943135 0.35510133185 0.2423544503 0.12298299178 0 0.12298299178 
0.2423544503 0.35510133185 0.45917943135 0.22715816343 0.49462574053 0.3129712797 0.77059342779 0.68021497688 0.49462574053 
1.0172219679 1.0172219679 1.0172219679 1.0172219679 1.2156949949 1.271087727 1.3676273807 1.5707963268 2.1243706857 
1.3676273807 1.447813335 1.5707963268 1.7739652728 2.1243706857 2.6469669131 1.4827341049 1.5707963268 1.6937793186 
1.8705049266 2.1243706857 2.4613776767 2.8286213739 1.5707963268 1.6588585487 1.7739652728 1.9258976586 2.1243706857 
2.3709992258 2.6469669131 2.9144344902 0.26576171152 0.33975332011 0.45685295248 0.40226393329 0.51573716537 0.6552068806 
0.45538277901 0.56421707518 0.69407236469 0.84594095064 0.50083690068 0.60464862014 0.72561863695 0.86392567495 1.0172219679 
0.54002084522 0.63877777351 0.75168694275 0.87851444325 1.0172219679 1.1636342747 0.57404952988 0.66790778838 0.77356233629 
0.89058134991 1.0172219679 1.1502619915 1.2852923014 0.60381225391 0.69302191562 0.79216440667 0.90072551443 1.0172219679 
1.139116835 1.2630228569 1.3852070904 0.71487100155 0.80816628637 0.80816628637 0.90937090954 0.90937090954 0.90937090954 
1.0172219679 1.0172219679 1.0172219679 1.0172219679 1.1296873865 1.1296873865 1.1296873865 1.1296873865 1.1296873865 
1.24411054 1.24411054 1.24411054 1.24411054 1.24411054 1.24411054 1.3575464161 1.3575464161 1.3575464161 
1.3575464161 1.3575464161 1.3575464161 1.3575464161 1.4671972081 1.4671972081 1.4671972081 1.4671972081 1.4671972081 
1.4671972081 1.4671972081 1.4671972081 1.6743954455 1.6743954455 1.7840462375 1.6743954455 1.7840462375 1.8974821136 
1.6743954455 1.7840462375 1.8974821136 2.0119052671 1.6743954455 1.7840462375 1.8974821136 2.0119052671 2.1243706857 
1.6743954455 1.7840462375 1.8974821136 2.0119052671 2.1243706857 2.232221744 1.6743954455 1.7840462375 1.8974821136 
2.0119052671 2.1243706857 2.232221744 2.3334263672 1.6743954455 1.7840462375 1.8974821136 2.0119052671 2.1243706857 
2.232221744 2.3334263672 2.426721652 1.7563855631 1.8785697967 1.8563003522 2.0024758186 1.9913306621 1.9779583789 
2.1243706857 2.1243706857 2.1243706857 2.1243706857 2.2408671392 2.2510113037 2.2630782103 2.2776669786 2.295651703 
2.3494282469 2.3680303173 2.3899057108 2.4159740166 2.4475202889 2.486385773 2.448570738 2.4736848652 2.5028148801 
2.5369440334 2.5773755784 2.6258554882 2.6847397011 2.5377803997 2.5675431237 2.6015718084 2.6407557529 2.6862098746 
2.7393287203 2.8018393335 2.8758309421 2.718901062 2.8307207459 2.7598010554 2.95115522 2.8800620952 2.8058000847 
3.0774230472 3.00855263 2.9351694502 2.8576792927 3.0774230472 3.1415926536 3.0719036933 2.9967168029 2.91630358 
2.95115522 3.00855263 3.0719036933 3.1415926536 3.0653475414 2.9825888767 2.8307207459 2.8800620952 2.9351694502 
2.9967168029 3.0653475414 3.1415926536 3.0574329311 2.718901062 2.7598010554 2.8058000847 2.8576792927 2.91630358 
2.9825888767 3.0574329311 3.1415926536 2.718901062 2.7598010554 2.8307207459 2.8058000847 2.8800620952 2.95115522 
2.8576792927 2.9351694502 3.00855263 3.0774230472 2.91630358 2.9967168029 3.0719036933 3.1415926536 3.0774230472 
2.9825888767 3.0653475414 3.1415926536 3.0719036933 3.00855263 2.95115522 3.0574329311 3.1415926536 3.0653475414 