# vtk DataFile Version 5.1
vtk output
ASCII
DATASET POLYDATA
POINTS 100 float
7.88377 29.7529 16.7838 7.90781 29.7625 16.7875 7.97945 29.7892 16.794 
8.09571 29.8323 16.8025 8.25188 29.891 16.8117 8.44202 29.964 16.82 
8.65939 30.0497 16.8257 8.89701 30.1466 16.827 9.14824 30.2529 16.8224 
9.40717 30.3669 16.8103 9.66903 30.4871 16.7898 9.93036 30.612 16.7602 
10.1891 30.7407 16.7213 10.4443 30.8723 16.6732 10.6963 31.0066 16.6163 
10.9459 31.1435 16.5514 11.1945 31.2831 16.4792 11.4433 31.4261 16.4006 
11.6934 31.5729 16.3162 11.9454 31.724 16.2267 12.1992 31.8799 16.1327 
12.4544 32.0407 16.0343 12.7098 32.2063 15.9318 12.9641 32.376 15.8252 
13.2161 32.5491 15.7145 13.4643 32.7244 15.5997 13.7081 32.9003 15.4808 
13.947 33.0755 15.3578 14.1813 33.2484 15.231 14.4115 33.4179 15.1006 
14.6389 33.583 14.9669 14.8646 33.7435 14.8305 15.0902 33.8995 14.6919 
15.3169 34.0519 14.5517 15.5454 34.2017 14.4107 15.7762 34.3509 14.2696 
16.0094 34.5013 14.1294 16.2443 34.6549 13.9911 16.4802 34.8135 13.8557 
16.716 34.9788 13.7245 16.9508 35.1517 13.5987 17.1838 35.3325 13.4795 
17.4147 35.5211 13.3679 17.6436 35.7165 13.265 17.8711 35.917 13.1716 
18.0983 36.1208 13.0879 18.3268 36.3257 13.014 18.5581 36.5294 12.9494 
18.7938 36.73 12.8934 19.0353 36.9258 12.8445 19.2833 37.1159 12.8014 
19.5379 37.2998 12.7623 19.7986 37.478 12.7254 20.0642 37.6513 12.6892 
20.3328 37.8215 12.6523 20.6021 37.9903 12.6137 20.8694 38.1599 12.5731 
21.1323 38.3325 12.5306 21.3885 38.5101 12.4868 21.6362 38.6942 12.4428 
21.8741 38.8859 12.3998 22.1016 39.0859 12.3593 22.3189 39.2941 12.3226 
22.5267 39.5101 12.2909 22.7262 39.7328 12.2648 22.9187 39.9608 12.2446 
23.1059 40.1928 12.2301 23.2893 40.4269 12.2205 23.47 40.6615 12.2148 
23.6492 40.895 12.2117 23.8275 41.126 12.2098 24.0051 41.3532 12.2081 
24.1822 41.5755 12.2058 24.3586 41.7919 12.2024 24.5342 42.0017 12.1983 
24.7088 42.204 12.194 24.8824 42.3984 12.1905 25.0548 42.5841 12.1891 
25.2262 42.7608 12.191 25.3966 42.9281 12.1974 25.5659 43.0857 12.2088 
25.7339 43.2335 12.2253 25.9002 43.3715 12.2464 26.0639 43.5001 12.2707 
26.2239 43.6195 12.2962 26.3788 43.7304 12.3208 26.5268 43.8334 12.3417 
26.6662 43.929 12.3565 26.7953 44.018 12.3632 26.9124 44.1007 12.3603 
27.0165 44.1774 12.3473 27.1068 44.2482 12.3247 27.1831 44.3127 12.2937 
27.2456 44.3707 12.2568 27.2953 44.4214 12.217 27.3331 44.464 12.1777 
27.3603 44.4979 12.1424 27.3783 44.5222 12.1143 27.3881 44.5363 12.0958 
27.3905 44.5399 12.0886 
LINES 2 100
OFFSETS vtktypeint64
0 100 
CONNECTIVITY vtktypeint64
0 1 2 3 4 5 6 7 8 
9 10 11 12 13 14 15 16 17 
18 19 20 21 22 23 24 25 26 
27 28 29 30 31 32 33 34 35 
36 37 38 39 40 41 42 43 44 
45 46 47 48 49 50 51 52 53 
54 55 56 57 58 59 60 61 62 
63 64 65 66 67 68 69 70 71 
72 73 74 75 76 77 78 79 80 
81 82 83 84 85 86 87 88 89 
90 91 92 93 94 95 96 97 98 
99 
POINT_DATA 100
FIELD FieldData 3
_theta 1 100 double
0 0.031733259127 0.063466518254 0.095199777382 0.12693303651 0.15866629564 0.19039955476 0.22213281389 0.25386607302 
0.28559933214 0.31733259127 0.3490658504 0.38079910953 0.41253236865 0.44426562778 0.47599888691 0.50773214603 0.53946540516 
0.57119866429 0.60293192342 0.63466518254 0.66639844167 0.6981317008 0.72986495992 0.76159821905 0.79333147818 0.82506473731 
0.85679799643 0.88853125556 0.92026451469 0.95199777382 0.98373103294 1.0154642921 1.0471975512 1.0789308103 1.1106640695 
1.1423973286 1.1741305877 1.2058638468 1.237597106 1.2693303651 1.3010636242 1.3327968833 1.3645301425 1.3962634016 
1.4279966607 1.4597299198 1.491463179 1.5231964381 1.5549296972 1.5866629564 1.6183962155 1.6501294746 1.6818627337 
1.7135959929 1.745329252 1.7770625111 1.8087957702 1.8405290294 1.8722622885 1.9039955476 1.9357288068 1.9674620659 
1.999195325 2.0309285841 2.0626618433 2.0943951024 2.1261283615 2.1578616206 2.1895948798 2.2213281389 2.253061398 
2.2847946572 2.3165279163 2.3482611754 2.3799944345 2.4117276937 2.4434609528 2.4751942119 2.506927471 2.5386607302 
2.5703939893 2.6021272484 2.6338605076 2.6655937667 2.6973270258 2.7290602849 2.7607935441 2.7925268032 2.8242600623 
2.8559933214 2.8877265806 2.9194598397 2.9511930988 2.982926358 3.0146596171 3.0463928762 3.0781261353 3.1098593945 
3.1415926536 
_radius 1 100 double
7.4543518943e-14 0.25976995596 0.51602420405 0.76575292618 1.0066303614 1.2372511691 1.457244947 1.6672397232 1.8686691964 
2.0634531152 2.2536132618 2.4409052976 2.6265425548 2.8110621224 2.9943432911 3.1757489556 3.3543382112 3.5290978366 
3.6991535988 3.8639375486 4.023297263 4.1775368785 4.3273823736 4.4738698912 4.6181674136 4.7613538549 4.9041902943 
5.0469214172 5.1891406834 5.3297428859 5.4669755216 5.5985872411 5.7220582387 5.8348850065 5.934882261 6.020459887 
6.0908338744 6.1461382241 6.1874193146 6.2165133971 6.2358285649 6.2480703851 6.2559596366 6.2619858013 6.2682212185 
6.2761976758 6.2868333131 6.300399206 6.3165257078 6.334256787 6.3521586698 6.3684779745 6.3813308555 6.3888957431 
6.3895821967 6.3821569375 6.3658211878 6.340244512 6.3055635022 6.2623477677 6.2115268277 6.1542696928 6.0918203858 
6.0253136111 5.9556126004 5.8832129076 5.8082380283 5.730523431 5.6497584796 5.5656407352 5.4779969967 5.3868378903 
5.2923333386 5.194718832 5.0941601369 4.9906115056 4.8836987342 4.7726477295 4.6562680585 4.5329940352 4.400983592 
4.2582738911 4.1029876875 3.9335736887 3.7490496164 3.549203866 3.3347069689 3.1070920486 2.8685850988 2.6217983714 
2.3693372178 2.1134030376 1.855490531 1.5962648035 1.3356596029 1.0731725878 0.80826814255 0.54075613349 0.27101719857 
3.0667094231e-14 
_area 1 100 double
0 0.20626102457 0.81437635304 1.7940086341 3.1001508306 4.681183728 6.4888574658 8.4879419538 10.662670535 
13.017594584 15.572107206 18.350280481 21.369875976 24.634768063 28.132718462 31.837147156 35.709822582 39.70253612 
43.759432063 47.824013963 51.8514777 55.821359892 59.744288582 63.659405848 67.623220495 71.694124885 75.917524746 
80.314967694 84.877483068 89.561906387 94.290965736 98.958654118 103.44011726 107.60407186 111.32644443 114.50442279 
117.06986782 119.00017056 120.32362456 121.11637825 121.48987369 121.57129617 121.48366441 121.33325783 121.20710206 
121.17593628 121.29560646 121.60319642 122.1094297 122.79314495 123.60376286 124.47073152 125.34842701 126.1140462 
126.66462334 126.78445505 126.35488534 125.27879106 123.52691256 121.15419414 118.28599889 115.09975406 111.79476164 
108.55247256 105.48658514 102.60839276 99.86599699 97.20263162 94.574305382 91.949590966 89.30550794 86.623063369 
83.885935723 81.081859388 78.20330635 75.245932993 72.205547188 69.074656828 65.839319157 62.477186003 58.958211493 
55.249574606 51.324999153 47.176139825 42.822031876 38.313069419 33.72795505 29.164439094 24.726635683 20.512563107 
16.604914876 13.06631957 9.938551549 7.2442547877 4.9899865099 3.1702965231 1.7730025975 0.78487902749 0.19578137389 
1.7053025658e-13 
