# vtk DataFile Version 5.1
vtk output
ASCII
DATASET POLYDATA
POINTS 100 float
22.9358 39.3196 11.5619 22.9425 39.3211 11.5593 22.9615 39.3234 11.548 
22.9912 39.3254 11.5291 23.0288 39.3254 11.5048 23.0709 39.3212 11.4774 
23.1136 39.3103 11.4494 23.1525 39.2901 11.423 23.1836 39.2581 11.3997 
23.2029 39.2123 11.3806 23.2072 39.1511 11.3658 23.1939 39.0735 11.3545 
23.1613 38.9795 11.3457 23.1083 38.8698 11.3379 23.035 38.7455 11.3296 
22.9419 38.6086 11.3196 22.83 38.4616 11.3076 22.7009 38.3069 11.2938 
22.5561 38.147 11.2795 22.3973 37.9843 11.2668 22.2259 37.8205 11.2583 
22.0433 37.6568 11.2567 21.8503 37.4937 11.2649 21.6478 37.3309 11.2851 
21.436 37.1675 11.3185 21.2153 37.0019 11.3653 20.9859 36.8325 11.4243 
20.7478 36.6571 11.4931 20.5014 36.4739 11.5682 20.2472 36.2816 11.6455 
19.9856 36.0793 11.7206 19.7175 35.8669 11.7892 19.444 35.6453 11.8481 
19.1661 35.4161 11.8947 18.8851 35.182 11.9283 18.602 34.9461 11.9495 
18.3182 34.7121 11.9602 18.0344 34.4837 11.9639 17.7515 34.2646 11.9646 
17.4699 34.058 11.9668 17.19 33.8665 11.9748 16.912 33.6916 11.9922 
16.6357 33.5341 12.0217 16.3612 33.3936 12.0646 16.0881 33.2687 12.1207 
15.8164 33.1571 12.1888 15.546 33.0562 12.2664 15.277 32.9626 12.3502 
15.0095 32.8732 12.4368 14.7437 32.7849 12.5228 14.4799 32.695 12.6053 
14.2184 32.6016 12.6824 13.9596 32.5033 12.7532 13.7035 32.3996 12.8176 
13.4503 32.2907 12.8768 13.1998 32.1775 12.9324 12.9516 32.061 12.9867 
12.7052 31.9428 13.0418 12.4599 31.8244 13.0997 12.2148 31.7069 13.1617 
11.9689 31.5915 13.2286 11.7214 31.4784 13.3003 11.4712 31.3678 13.3758 
11.2177 31.2593 13.4539 10.9603 31.1518 13.5326 10.6988 31.0445 13.6102 
10.4332 30.936 13.685 10.1638 30.8252 13.7556 9.8915 30.7112 13.8212 
9.61711 30.5935 13.8817 9.34187 30.472 13.9372 9.06714 30.3471 13.9884 
8.79434 30.2199 14.0363 8.5249 30.0914 14.0819 8.2601 29.9634 14.1258 
8.00107 29.8376 14.1685 7.74865 29.7156 14.2102 7.5034 29.5988 14.2507 
7.26554 29.4885 14.2894 7.03496 29.3852 14.3259 6.81127 29.289 14.3597 
6.59383 29.1997 14.3906 6.38187 29.1163 14.4191 6.17458 29.0376 14.4459 
5.97121 28.9622 14.4725 5.77121 28.8886 14.5007 5.5743 28.8154 14.5326 
5.38063 28.7414 14.5702 5.19077 28.6659 14.6151 5.00582 28.5889 14.6683 
4.82734 28.5108 14.73 4.65735 28.4325 14.7992 4.49824 28.3556 14.8738 
4.35266 28.2821 14.9506 4.22337 28.2141 15.0258 4.11308 28.1541 15.095 
4.02431 28.1043 15.1538 3.95918 28.0667 15.1983 3.91934 28.0429 15.2253 
3.90583 28.0338 15.2328 
LINES 2 100
OFFSETS vtktypeint64
0 100 
CONNECTIVITY vtktypeint64
0 1 2 3 4 5 6 7 8 
9 10 11 12 13 14 15 16 17 
18 19 20 21 22 23 24 25 26 
27 28 29 30 31 32 33 34 35 
36 37 38 39 40 41 42 43 44 
45 46 47 48 49 50 51 52 53 
54 55 56 57 58 59 60 61 62 
63 64 65 66 67 68 69 70 71 
72 73 74 75 76 77 78 79 80 
81 82 83 84 85 86 87 88 89 
90 91 92 93 94 95 96 97 98 
99 
POINT_DATA 100
FIELD FieldData 3
_theta 1 100 double
0 0.031733259127 0.063466518254 0.095199777382 0.12693303651 0.15866629564 0.19039955476 0.22213281389 0.25386607302 
0.28559933214 0.31733259127 0.3490658504 0.38079910953 0.41253236865 0.44426562778 0.47599888691 0.50773214603 0.53946540516 
0.57119866429 0.60293192342 0.63466518254 0.66639844167 0.6981317008 0.72986495992 0.76159821905 0.79333147818 0.82506473731 
0.85679799643 0.88853125556 0.92026451469 0.95199777382 0.98373103294 1.0154642921 1.0471975512 1.0789308103 1.1106640695 
1.1423973286 1.1741305877 1.2058638468 1.237597106 1.2693303651 1.3010636242 1.3327968833 1.3645301425 1.3962634016 
1.4279966607 1.4597299198 1.491463179 1.5231964381 1.5549296972 1.5866629564 1.6183962155 1.6501294746 1.6818627337 
1.7135959929 1.745329252 1.7770625111 1.8087957702 1.8405290294 1.8722622885 1.9039955476 1.9357288068 1.9674620659 
1.999195325 2.0309285841 2.0626618433 2.0943951024 2.1261283615 2.1578616206 2.1895948798 2.2213281389 2.253061398 
2.2847946572 2.3165279163 2.3482611754 2.3799944345 2.4117276937 2.4434609528 2.4751942119 2.506927471 2.5386607302 
2.5703939893 2.6021272484 2.6338605076 2.6655937667 2.6973270258 2.7290602849 2.7607935441 2.7925268032 2.8242600623 
2.8559933214 2.8877265806 2.9194598397 2.9511930988 2.982926358 3.0146596171 3.0463928762 3.0781261353 3.1098593945 
3.1415926536 
_radius 1 100 double
7.8482010346e-14 0.35543953751 0.70615483032 1.0477572022 1.3766530421 1.6902769083 1.987148334 2.2667376889 2.5291685899 
2.7748353379 3.0040543107 3.2168678654 3.4130624142 3.5923717409 3.7547620498 3.9006733436 4.0311224682 4.1476315715 
4.2520051349 4.3460219962 4.4311278235 4.5082069718 4.5774856411 4.6385819441 4.6906864021 4.7328373923 4.764249633 
4.7846522599 4.7945899329 4.7956370777 4.7904792092 4.7828317223 4.7771940503 4.7784683371 4.791496894 4.8205836956 
4.8690609243 4.9389486906 5.030741678 5.1433418927 5.2741405874 5.4192371855 5.5737721152 5.7323419798 5.8894556301 
6.0399806662 6.1795284828 6.3047352394 6.4134125751 6.5045601038 6.5782488252 6.6353999382 6.6774960378 6.7062687618 
6.7234068073 6.7303216109 6.7279966073 6.7169303217 6.6971652406 6.6683794241 6.6300129482 6.581406903 6.5219419438 
6.4511683162 6.3689170158 6.275376042 6.1711137358 6.0570382214 5.9342973179 5.8041405698 5.6677761735 5.5262555661 
5.3804077127 5.2308285752 5.0779154269 4.921925962 4.7630411287 4.6014173094 4.4372235445 4.2706667517 4.1020075145 
3.9315612251 3.7596706046 3.5866351018 3.4125955294 3.2373942349 3.0604498531 2.8806895339 2.696568314 2.5061827328 
2.3074639316 2.0984200687 1.8773903959 1.6432736527 1.3957005716 1.1351317488 0.8628743521 0.58102111407 0.29232165975 
2.5342024834e-14 
_area 1 100 double
0 0.3292115134 1.3144116918 2.9458634419 5.2002762374 8.0335190112 11.3758157 15.132245206 19.189191606 
23.424781327 27.719927846 31.967020438 36.074911179 39.970627163 43.599328015 46.924099254 49.926351319 52.606345166 
54.98245115 57.087895104 58.964804703 60.656325367 62.198011857 63.610088386 64.892269695 66.022015891 66.957737503 
67.651632602 68.071427301 68.222701384 68.163848656 68.009890575 67.923105663 68.088077389 68.676412385 69.818222085 
71.591227775 74.022342213 77.09435026 80.755054255 84.927972102 89.522853201 94.443671808 99.59249862 104.86923933 
110.16761788 115.36673931 120.3215326 124.86443995 128.82736944 132.0766784 134.54488226 136.24430004 137.25779231 
137.71216647 137.7437898 137.46637258 136.95073708 136.32124119 135.65972098 134.55059227 132.89213087 130.75084623 
128.21838534 125.35453415 122.10452795 118.4489909 114.40987208 110.03404972 105.38590345 100.54092037 95.577683821 
90.568325151 85.569466193 80.616778198 75.725705301 70.89846617 66.13442539 61.439384947 56.830370673 52.335007668 
47.986424831 43.815256109 39.841056414 36.066479892 32.477151316 29.047518661 25.749874869 22.562648617 19.475431712 
16.490495329 13.622198499 10.896103288 8.3488723739 6.0286451763 3.9943976332 2.3125869023 1.0503549659 0.26615163292 
1.296471286e-13 
