# vtk DataFile Version 5.1
vtk output
ASCII
DATASET POLYDATA
POINTS 1002 float
13.9818 35.6149 8.95706 23.0597 41.4441 8.5843 13.4998 40.8529 18.2587 
22.7826 44.449 14.3543 15.2779 45.403 5.59774 14.7635 46.7015 11.1869 
24.1279 33.5298 12.5224 22.7104 36.6686 16.8833 23.9864 49.9752 9.42315 
8.9567 39.8595 13.0508 28.9841 41.5013 14.4581 9.94307 32.8747 17.4227 
14.9019 35.9974 8.60172 15.9556 36.3832 8.26011 17.0975 36.8394 8.02777 
18.1696 37.4657 8.00723 19.094 38.2437 8.16646 20.0028 39.0196 8.306 
20.9897 39.684 8.2869 21.915 40.2679 8.22087 22.6067 40.8469 8.30602 
13.965 36.24 8.71642 14.0619 37.1182 8.52528 14.1971 38.2094 8.27805 
14.3039 39.319 7.91471 14.4413 40.356 7.52721 14.6562 41.4646 7.16492 
14.8409 42.7011 6.73006 14.9306 43.8545 6.22236 15.0389 44.7412 5.80886 
14.7058 35.2978 9.03594 15.5976 34.8783 9.14403 16.5225 34.4105 9.29635 
17.4531 34.1102 9.56507 18.5263 34.0599 10.0109 19.7803 34.0528 10.5575 
21.0387 33.9187 11.0625 22.1693 33.7316 11.509 23.1933 33.6 11.9833 
13.08 35.5525 9.14378 12.2178 35.5999 9.41349 11.416 35.9293 9.87397 
10.7006 36.4496 10.5002 10.0998 36.8734 11.1142 9.62257 37.1962 11.617 
9.28117 37.7009 12.0519 9.08471 38.449 12.438 8.99586 39.2216 12.7592 
13.4636 35.0589 9.40374 12.8602 34.4988 9.95084 12.1757 33.9239 10.5638 
11.4943 33.4056 11.2698 10.9063 33.0875 12.1405 10.4142 33.0066 13.1798 
10.0064 33.0194 14.3153 9.75462 32.9855 15.4691 9.73736 32.9092 16.5456 
22.399 41.8831 8.3474 21.5424 42.4058 8.20115 20.654 42.9453 7.96415 
19.9407 43.3893 7.46979 19.3799 43.6919 6.77059 18.7062 43.9488 6.07153 
17.7766 44.2888 5.53885 16.761 44.7112 5.27381 15.9034 45.1083 5.31547 
23.325 40.673 8.77236 23.4506 39.8859 9.15401 23.5242 39.0027 9.60535 
23.7 37.9709 9.98225 23.9383 36.9519 10.3569 24.0397 36.1445 10.8801 
23.998 35.4744 11.4672 23.9936 34.7695 11.9204 24.0759 34.0687 12.2265 
23.0691 42.3545 8.78909 23.1554 43.3265 8.98268 23.4364 44.2415 8.9872 
23.8043 45.1143 8.81632 24.0347 46.0873 8.70088 24.1265 47.1626 8.73509 
24.2328 48.152 8.77516 24.3251 48.9394 8.80066 24.2509 49.5442 8.99031 
23.6009 41.5966 9.07728 24.1443 41.7736 9.68124 24.7996 41.927 10.2632 
25.6144 42.0262 10.7679 26.5022 42.0449 11.2071 27.319 41.9456 11.5748 
27.9816 41.7521 11.9594 28.48 41.5728 12.5657 28.817 41.4919 13.4555 
14.4582 41.433 18.1473 15.363 41.83 17.7519 15.9795 41.9406 16.8611 
16.4627 41.882 15.6394 17.3022 41.9635 14.6831 18.636 42.3529 14.3554 
20.0384 42.9115 14.3793 21.1513 43.4505 14.3757 22.0154 43.9453 14.3236 
13.6028 41.6791 18.1561 13.6119 42.5496 17.9436 13.577 43.3816 17.4851 
13.6293 44.1376 16.805 13.7626 44.8723 16.0815 13.8575 45.5509 15.3222 
13.9545 45.9941 14.3322 14.1842 46.1832 13.1219 14.5045 46.3541 11.9918 
13.9693 40.3879 18.2488 14.5956 39.7956 18.0642 15.3713 39.1589 17.7103 
16.153 38.6359 17.2794 16.9274 38.2552 16.8484 17.9607 37.8702 16.4147 
19.3711 37.4195 16.055 20.8309 37.0269 15.9842 21.9605 36.7903 16.3086 
12.7106 40.6603 18.1624 11.9915 40.3941 17.8914 11.2769 40.1596 17.5213 
10.4771 40.0316 17.187 9.6957 39.9767 16.8814 9.15083 39.919 16.3721 
8.88379 39.8626 15.5314 8.78446 39.8523 14.5569 8.80364 39.8699 13.7069 
12.8619 39.9325 18.4024 12.296 38.939 18.6877 11.8575 37.8865 18.9524 
11.4228 36.7974 18.9435 10.8189 35.741 18.7632 10.1108 34.7699 18.7763 
9.57455 33.9196 18.9564 9.39288 33.2852 18.8688 9.55008 32.9512 18.2951 
22.1828 44.6384 13.9514 21.4677 44.8422 13.6147 20.6071 45.0642 13.2746 
19.664 45.3091 12.8471 18.7525 45.5427 12.3781 17.8808 45.7081 11.9618 
16.9888 45.8397 11.6071 16.1229 46.0457 11.3272 15.3808 46.3565 11.187 
22.9032 43.9024 14.7405 23.0709 43.2238 15.0774 23.2369 42.3607 15.3008 
23.3342 41.3559 15.4835 23.4023 40.3684 15.7407 23.5143 39.5126 16.0399 
23.5829 38.7374 16.2842 23.4515 37.97 16.4898 23.1172 37.2554 16.7028 
23.2062 45.1322 14.191 23.6062 45.8963 14.0309 23.8717 46.6802 13.7906 
24.0405 47.4788 13.4291 24.2566 48.3387 13.0608 24.4937 49.1805 12.7709 
24.5607 49.7878 12.3716 24.412 50.0564 11.6089 24.1856 50.0769 10.5265 
23.6328 44.6885 14.767 24.5604 44.9695 15.2831 25.4898 45.1316 15.6258 
26.3402 44.917 15.5458 27.1095 44.2704 15.2264 27.8338 43.5 15.1261 
28.4769 42.9051 15.2973 28.9259 42.4502 15.336 29.0915 41.9851 15.0044 
15.1706 45.9083 5.83729 15.0724 46.4425 6.19225 14.8384 47.0844 6.55441 
14.3731 47.7885 6.98755 13.8455 48.3401 7.73349 13.6005 48.5334 8.8069 
13.7625 48.3314 9.82932 14.1345 47.8434 10.4879 14.4912 47.245 10.8599 
16.0157 45.9159 5.28392 16.8264 46.5713 5.0312 17.5183 47.2354 4.97005 
18.1939 47.7124 5.32165 19.1738 48.0889 6.03016 20.4616 48.6496 6.66297 
21.6857 49.3602 7.02983 22.6199 49.877 7.48053 23.3438 50.0382 8.32356 
14.6122 45.2674 6.09842 14.0655 45.0679 6.76063 13.5606 44.6831 7.62864 
12.9333 44.0454 8.62186 12.1209 43.2627 9.50429 11.251 42.5024 10.1915 
10.4746 41.7946 10.8636 9.83832 41.0947 11.6252 9.33695 40.4281 12.3798 
15.2889 47.0555 10.6616 15.8911 47.6138 10.4192 16.8638 48.1732 10.3431 
18.2499 48.5245 10.2248 19.6073 48.7706 10.0056 20.5677 49.1908 9.7593 
21.3297 49.777 9.52691 22.2093 50.2116 9.35163 23.1647 50.2638 9.31234 
13.9633 46.7602 11.6815 12.9419 46.695 12.1722 11.9029 46.31 12.4839 
11.2074 45.5643 12.6518 10.8445 44.6375 12.8333 10.4016 43.712 13.0031 
9.77994 42.7896 13.0314 9.30193 41.8082 12.972 9.0945 40.7995 12.9715 
24.6688 33.273 13.1881 25.1148 33.1101 14.1142 25.325 33.0574 15.2129 
25.2617 33.1506 16.2368 24.959 33.4865 17.0059 24.4273 34.1258 17.5276 
23.7588 34.9428 17.798 23.1886 35.6959 17.7327 22.8661 36.2551 17.3639 
24.9355 33.8166 12.9152 25.5497 34.3042 13.3258 26.0528 35.0262 13.6684 
26.6435 35.9119 13.9291 27.271 36.8547 14.1495 27.6638 37.8341 14.3252 
27.858 38.863 14.4296 28.1582 39.866 14.4824 28.6095 40.7454 14.4986 
23.4185 33.2136 12.552 22.3775 33.043 12.6705 21.0499 32.9697 12.8469 
19.4374 32.9645 13.114 17.5318 33.0215 13.5936 15.5482 33.0865 14.2949 
13.8116 33.0871 15.0679 12.3775 33.0194 15.8369 11.0986 32.9318 16.6343 
23.547 36.9532 17.4033 24.3993 37.3701 17.8565 25.3271 37.8973 18.2905 
26.2195 38.4906 18.7019 26.9044 39.1224 18.7966 27.4224 39.7494 18.3177 
27.9369 40.2947 17.4455 28.4435 40.7302 16.4816 28.8114 41.1106 15.4895 
21.8398 36.2465 16.5681 20.7674 35.8481 16.1946 19.5345 35.3189 16.0598 
18.2606 34.5622 16.4383 16.9676 33.7668 17.1512 15.5183 33.2461 17.6725 
13.8978 33.0463 17.7876 12.3301 32.978 17.7161 11.0064 32.9191 17.6189 
24.8264 49.5991 10.2074 25.7327 49.2051 10.7822 26.7633 48.9126 11.0589 
27.8058 48.6111 11.3122 28.535 47.9392 11.7493 28.818 46.6568 12.1897 
28.9168 44.9951 12.5346 29.0451 43.4498 13.0097 29.1094 42.3044 13.7156 
8.54157 39.0395 13.5136 7.90614 38.3283 14.0101 7.25437 37.6114 14.5517 
6.89787 36.6306 15.0956 6.82563 35.3484 15.6213 6.82118 34.1178 16.2353 
6.98998 33.305 16.9443 7.62101 32.9456 17.4801 8.69757 32.8583 17.6158 
14.8997 36.7395 8.39892 15.0082 37.7115 8.21834 16.0002 37.2228 8.07367 
15.15 38.8246 7.91336 16.1273 38.2558 7.84355 17.1664 37.7402 7.79775 
15.2635 39.9154 7.47668 16.2638 39.3909 7.44301 17.2642 38.819 7.46537 
18.2068 38.4051 7.70192 15.3733 40.9831 7.04614 16.3565 40.5202 6.97311 
17.3542 40.0129 7.02662 18.2416 39.5327 7.32732 19.1134 39.2089 7.81914 
15.4829 42.133 6.62303 16.4188 41.639 6.57211 17.4222 41.2106 6.65251 
18.2831 40.7872 6.99591 19.1088 40.3692 7.51851 20.0468 39.9994 7.97507 
15.5671 43.2967 6.12339 16.4833 42.7531 6.16178 17.5013 42.3285 6.3526 
18.3611 41.995 6.76941 19.1048 41.6249 7.34187 19.9847 41.1634 7.80344 
21.0022 40.6817 8.04147 15.6831 44.3015 5.63529 16.5887 43.7944 5.68557 
17.6242 43.3485 5.97389 18.5134 43.0364 6.48878 19.1854 42.7599 7.14858 
19.8963 42.3627 7.71758 20.8248 41.8322 8.00727 21.8098 41.2922 8.12348 
13.1689 36.2914 8.9065 12.4245 36.5245 9.21709 13.3386 37.3483 8.68787 
11.7064 36.9988 9.74716 12.644 37.746 9.0024 13.4702 38.5688 8.38375 
11.0551 37.489 10.4002 11.967 38.2505 9.54778 12.7915 39.0163 8.68625 
13.5977 39.717 8.01734 10.5415 37.8261 10.9716 11.3788 38.6783 10.1598 
12.1863 39.5042 9.2211 13.0395 40.2016 8.35478 13.881 40.8467 7.69349 
10.1556 38.2328 11.4059 10.9169 39.0802 10.6335 11.6659 39.9968 9.77165 
12.5754 40.7876 8.88933 13.5113 41.4917 8.06494 14.2456 42.1531 7.34497 
9.83646 38.918 11.7624 10.5219 39.6711 10.9728 11.203 40.5648 10.1742 
12.0961 41.4217 9.40629 13.1256 42.2119 8.57545 13.9338 42.9326 7.68504 
14.4456 43.4953 6.86954 9.55864 39.7272 12.0756 10.1527 40.4146 11.2825 
10.7952 41.2069 10.4985 11.6188 42.0178 9.8127 12.616 42.8326 9.07383 
13.4947 43.604 8.14938 14.0629 44.1989 7.189 14.4928 44.5533 6.39275 
9.48519 41.4906 12.234 9.85424 42.5146 12.2037 10.1208 42.184 11.4582 
10.445 43.4962 12.2101 10.6661 43.1782 11.406 10.935 42.8479 10.715 
10.8838 44.5272 12.0709 11.1536 44.2308 11.2619 11.4591 43.8786 10.5285 
11.7484 43.5721 9.95152 11.0826 45.5966 11.8199 11.262 45.4403 10.9071 
11.6207 45.097 10.066 12.0094 44.717 9.44022 12.4366 44.3894 8.99968 
11.5537 46.4959 11.6404 11.4098 46.5849 10.6068 11.5588 46.4215 9.53202 
11.9564 46.008 8.71544 12.4786 45.5241 8.24674 13.0382 45.101 7.93472 
12.5376 47.0296 11.4898 12.1382 47.3594 10.563 11.9309 47.4816 9.38791 
12.1058 47.2213 8.30006 12.602 46.6437 7.63735 13.1761 46.0241 7.30905 
13.6728 45.5246 7.03795 13.6347 47.2205 11.2138 13.2103 47.7222 10.5838 
12.8236 48.0809 9.6107 12.7583 48.0775 8.4408 13.1269 47.6276 7.51704 
13.6783 46.9193 7.01977 14.117 46.2541 6.70602 14.3964 45.7381 6.37879 
15.9549 46.539 5.53645 15.8524 47.214 5.8852 16.6719 47.3291 5.20221 
15.5413 47.911 6.29921 16.4273 48.0658 5.49061 17.209 48.0171 5.06229 
15.0135 48.4788 6.96418 16.0442 48.6328 6.04327 16.9065 48.6621 5.40566 
17.9122 48.4152 5.47064 14.549 48.7619 8.02481 15.64 48.9077 7.06637 
16.7094 49.006 6.26145 17.7997 48.9479 6.03253 19.0932 48.7642 6.29524 
14.4319 48.7133 9.1897 15.4138 48.9249 8.3941 16.6716 49.0452 7.60692 
17.9243 49.1602 7.15581 19.145 49.258 7.03665 20.455 49.3309 7.00062 
14.64 48.3461 10.0062 15.4308 48.7304 9.50518 16.7175 48.9229 8.9569 
[...]
POINT_DATA 1002
FIELD FieldData 4
_paraPhi 1 1002 double
6.2831853072 3.1415926536 6.2831853072 3.1415926536 4.7123889804 4.7123889804 1.5707963268 1.5707963268 3.6951670125 
5.7296109483 2.5880182947 0.5535743589 6.2831853072 6.2831853072 6.2831853072 6.2831853072 3.1415926536 3.1415926536 
3.1415926536 3.1415926536 3.1415926536 6.1053039672 5.898798347 5.6768734901 5.4599499503 5.2659633393 5.1032165617 
4.9713148346 4.8656852733 4.7809517865 0.17788134 0.38438696014 0.60631181711 0.82323535693 1.0172219679 1.1799687454 
1.3118704726 1.4175000338 1.5022335207 6.1892828907 6.1070320098 6.035312792 5.9728339911 5.9183214791 5.8706119594 
5.8286879411 5.7916808611 5.7588591896 0.093902416448 0.17615329733 0.2478725152 0.31035131605 0.36486382811 0.41257334776 
0.45449736604 0.4915044461 0.52432611754 3.3194739936 3.5259796137 3.7479044707 3.9648280105 4.1588146215 4.321561399 
4.4534631262 4.5590926874 4.6438261743 2.9637113136 2.7572056934 2.5352808365 2.3183572967 2.1243706857 1.9616239082 
1.829722181 1.7240926197 1.6393591329 3.23549507 3.3177459509 3.3894651688 3.4519439696 3.5064564817 3.5541660013 
3.5960900196 3.6330970997 3.6659187711 3.0476902371 2.9654393563 2.8937201384 2.8312413375 2.7767288255 2.7290193058 
2.6870952876 2.6500882075 2.617266536 6.2831853072 6.2831853072 6.2831853072 6.2831853072 3.1415926536 3.1415926536 
3.1415926536 3.1415926536 3.1415926536 6.1053039672 5.898798347 5.6768734901 5.4599499503 5.2659633393 5.1032165617 
4.9713148346 4.8656852733 4.7809517865 0.17788134 0.38438696014 0.60631181711 0.82323535693 1.0172219679 1.1799687454 
1.3118704726 1.4175000338 1.5022335207 6.1892828907 6.1070320098 6.035312792 5.9728339911 5.9183214791 5.8706119594 
5.8286879411 5.7916808611 5.7588591896 0.093902416448 0.17615329733 0.2478725152 0.31035131605 0.36486382811 0.41257334776 
0.45449736604 0.4915044461 0.52432611754 3.3194739936 3.5259796137 3.7479044707 3.9648280105 4.1588146215 4.321561399 
4.4534631262 4.5590926874 4.6438261743 2.9637113136 2.7572056934 2.5352808365 2.3183572967 2.1243706857 1.9616239082 
1.829722181 1.7240926197 1.6393591329 3.23549507 3.3177459509 3.3894651688 3.4519439696 3.5064564817 3.5541660013 
3.5960900196 3.6330970997 3.6659187711 3.0476902371 2.9654393563 2.8937201384 2.8312413375 2.7767288255 2.7290193058 
2.6870952876 2.6500882075 2.617266536 4.7123889804 4.7123889804 4.7123889804 4.7123889804 4.7123889804 4.7123889804 
4.7123889804 4.7123889804 4.7123889804 4.6087898617 4.4991390697 4.3857031936 4.2712800401 4.1588146215 4.0509635631 
3.94975894 3.8564636551 3.7716124825 4.8159880991 4.9256388911 5.0390747672 5.1534979207 5.2659633393 5.3738143976 
5.4750190208 5.5683143056 5.6531654782 4.6087898617 4.4991390697 4.3857031936 4.2712800401 4.1588146215 4.0509635631 
3.94975894 3.8564636551 3.7716124825 4.8159880991 4.9256388911 5.0390747672 5.1534979207 5.2659633393 5.3738143976 
5.4750190208 5.5683143056 5.6531654782 1.5707963268 1.5707963268 1.5707963268 1.5707963268 1.5707963268 1.5707963268 
1.5707963268 1.5707963268 1.5707963268 1.6743954455 1.7840462375 1.8974821136 2.0119052671 2.1243706857 2.232221744 
2.3334263672 2.426721652 2.5115728246 1.4671972081 1.3575464161 1.24411054 1.1296873865 1.0172219679 0.90937090954 
0.80816628637 0.71487100155 0.63001982895 1.6743954455 1.7840462375 1.8974821136 2.0119052671 2.1243706857 2.232221744 
2.3334263672 2.426721652 2.5115728246 1.4671972081 1.3575464161 1.24411054 1.1296873865 1.0172219679 0.90937090954 
0.80816628637 0.71487100155 0.63001982895 3.6007720849 3.4966939854 3.3839471039 3.2645756454 3.1415926536 3.0186096618 
2.8992382033 2.7864913217 2.6824132222 5.8240058758 5.9280839753 6.0408308569 6.1602023154 6.2831853072 0.12298299178 
0.2423544503 0.35510133185 0.45917943135 6.0560271438 5.7885595667 5.9702140275 5.5125918794 5.6029703303 5.7885595667 
5.2659633393 5.2659633393 5.2659633393 5.2659633393 5.0674903122 5.0120975802 4.9155579264 4.7123889804 4.1588146215 
4.9155579264 4.8353719722 4.7123889804 4.5092200343 4.1588146215 3.6362183941 4.8004512023 4.7123889804 4.5894059886 
4.4126803806 4.1588146215 3.8218076305 3.4545639333 4.7123889804 4.6243267584 4.5092200343 4.3572876485 4.1588146215 
3.9121860814 3.6362183941 3.368750817 6.0174235957 5.9434319871 5.8263323547 5.8809213739 5.7674481418 5.6279784266 
5.8278025282 5.718968232 5.5891129425 5.4372443565 5.7823484065 5.678536687 5.5575666702 5.4192596322 5.2659633393 
5.743164462 5.6444075337 5.5314983644 5.4046708639 5.2659633393 5.1195510325 5.7091357773 5.6152775188 5.5096229709 
5.3926039573 5.2659633393 5.1329233157 4.9978930058 5.6793730533 5.5901633916 5.4910209005 5.3824597928 5.2659633393 
5.1440684722 5.0201624502 4.8979782167 5.5683143056 5.4750190208 5.4750190208 5.3738143976 5.3738143976 5.3738143976 
5.2659633393 5.2659633393 5.2659633393 5.2659633393 5.1534979207 5.1534979207 5.1534979207 5.1534979207 5.1534979207 
5.0390747672 5.0390747672 5.0390747672 5.0390747672 5.0390747672 5.0390747672 4.9256388911 4.9256388911 4.9256388911 
4.9256388911 4.9256388911 4.9256388911 4.9256388911 4.8159880991 4.8159880991 4.8159880991 4.8159880991 4.8159880991 
4.8159880991 4.8159880991 4.8159880991 4.6087898617 4.6087898617 4.4991390697 4.6087898617 4.4991390697 4.3857031936 
4.6087898617 4.4991390697 4.3857031936 4.2712800401 4.6087898617 4.4991390697 4.3857031936 4.2712800401 4.1588146215 
4.6087898617 4.4991390697 4.3857031936 4.2712800401 4.1588146215 4.0509635631 4.6087898617 4.4991390697 4.3857031936 
4.2712800401 4.1588146215 4.0509635631 3.94975894 4.6087898617 4.4991390697 4.3857031936 4.2712800401 4.1588146215 
4.0509635631 3.94975894 3.8564636551 4.526799744 4.4046155105 4.426884955 4.2807094886 4.2918546451 4.3052269283 
4.1588146215 4.1588146215 4.1588146215 4.1588146215 4.042318168 4.0321740035 4.0201070968 4.0055183285 3.9875336042 
3.9337570603 3.9151549899 3.8932795963 3.8672112905 3.8356650183 3.7967995342 3.8346145692 3.809500442 3.7803704271 
3.7462412737 3.7058097288 3.657329819 3.5984456061 3.7454049075 3.7156421835 3.6816134988 3.6424295543 3.5969754326 
3.5438565869 3.4813459737 3.4073543651 3.5642842451 3.4524645613 3.5233842518 3.3320300872 3.403123212 3.4773852225 
3.20576226 3.2746326772 3.348015857 3.4255060145 3.0774230472 3.1415926536 3.2112816139 3.2864685043 3.3668817272 
2.95115522 3.00855263 3.0719036933 3.1415926536 3.2178377658 3.3005964304 2.8307207459 2.8800620952 2.9351694502 
2.9967168029 3.0653475414 3.1415926536 3.225752376 2.718901062 2.7598010554 2.8058000847 2.8576792927 2.91630358 
2.9825888767 3.0574329311 3.1415926536 3.5642842451 3.5233842518 3.4524645613 3.4773852225 3.403123212 3.3320300872 
3.4255060145 3.348015857 3.2746326772 3.20576226 3.3668817272 3.2864685043 3.2112816139 3.1415926536 3.0774230472 
3.3005964304 3.2178377658 3.1415926536 3.0719036933 3.00855263 2.95115522 3.225752376 3.1415926536 3.0653475414 
2.9967168029 2.9351694502 2.8800620952 2.8307207459 3.1415926536 3.0574329311 2.9825888767 2.91630358 2.8576792927 
2.8058000847 2.7598010554 2.718901062 4.526799744 4.426884955 4.4046155105 4.3052269283 4.2918546451 4.2807094886 
4.1588146215 4.1588146215 4.1588146215 4.1588146215 3.9875336042 4.0055183285 4.0201070968 4.0321740035 4.042318168 
3.7967995342 3.8356650183 3.8672112905 3.8932795963 3.9151549899 3.9337570603 3.5984456061 3.657329819 3.7058097288 
3.7462412737 3.7803704271 3.809500442 3.8346145692 3.4073543651 3.4813459737 3.5438565869 3.5969754326 3.6424295543 
3.6816134988 3.7156421835 3.7454049075 4.7123889804 4.8004512023 4.6243267584 4.9155579264 4.7123889804 4.5092200343 
5.0674903122 4.8353719722 4.5894059886 4.3572876485 5.2659633393 5.0120975802 4.7123889804 4.4126803806 4.1588146215 
5.5125918794 5.2659633393 4.9155579264 4.5092200343 4.1588146215 3.9121860814 5.7885595667 5.6029703303 5.2659633393 
4.7123889804 4.1588146215 3.8218076305 3.6362183941 6.0560271438 5.9702140275 5.7885595667 5.2659633393 4.1588146215 
3.6362183941 3.4545639333 3.368750817 0.22715816343 0.49462574053 0.3129712797 0.77059342779 0.68021497688 0.49462574053 
1.0172219679 1.0172219679 1.0172219679 1.0172219679 1.2156949949 1.271087727 1.3676273807 1.5707963268 2.1243706857 
1.3676273807 1.447813335 1.5707963268 1.7739652728 2.1243706857 2.6469669131 1.4827341049 1.5707963268 1.6937793186 
1.8705049266 2.1243706857 2.4613776767 2.8286213739 1.5707963268 1.6588585487 1.7739652728 1.9258976586 2.1243706857 
2.3709992258 2.6469669131 2.9144344902 1.7563855631 1.8785697967 1.8563003522 2.0024758186 1.9913306621 1.9779583789 
2.1243706857 2.1243706857 2.1243706857 2.1243706857 2.2408671392 2.2510113037 2.2630782103 2.2776669786 2.295651703 
2.3494282469 2.3680303173 2.3899057108 2.4159740166 2.4475202889 2.486385773 2.448570738 2.4736848652 2.5028148801 
2.5369440334 2.5773755784 2.6258554882 2.6847397011 2.5377803997 2.5675431237 2.6015718084 2.6407557529 2.6862098746 
2.7393287203 2.8018393335 2.8758309421 1.6743954455 1.6743954455 1.7840462375 1.6743954455 1.7840462375 1.8974821136 
1.6743954455 1.7840462375 1.8974821136 2.0119052671 1.6743954455 1.7840462375 1.8974821136 2.0119052671 2.1243706857 
1.6743954455 1.7840462375 1.8974821136 2.0119052671 2.1243706857 2.232221744 1.6743954455 1.7840462375 1.8974821136 
2.0119052671 2.1243706857 2.232221744 2.3334263672 1.6743954455 1.7840462375 1.8974821136 2.0119052671 2.1243706857 
2.232221744 2.3334263672 2.426721652 1.4671972081 1.3575464161 1.4671972081 1.24411054 1.3575464161 1.4671972081 
1.1296873865 1.24411054 1.3575464161 1.4671972081 1.0172219679 1.1296873865 1.24411054 1.3575464161 1.4671972081 
0.90937090954 1.0172219679 1.1296873865 1.24411054 1.3575464161 1.4671972081 0.80816628637 0.90937090954 1.0172219679 
1.1296873865 1.24411054 1.3575464161 1.4671972081 0.71487100155 0.80816628637 0.90937090954 1.0172219679 1.1296873865 
1.24411054 1.3575464161 1.4671972081 0.60381225391 0.57404952988 0.69302191562 0.54002084522 0.66790778838 0.79216440667 
0.50083690068 0.63877777351 0.77356233629 0.90072551443 0.45538277901 0.60464862014 0.75168694275 0.89058134991 1.0172219679 
0.40226393329 0.56421707518 0.72561863695 0.87851444325 1.0172219679 1.139116835 0.33975332011 0.51573716537 0.69407236469 
0.86392567495 1.0172219679 1.1502619915 1.2630228569 0.26576171152 0.45685295248 0.6552068806 0.84594095064 1.0172219679 
1.1636342747 1.2852923014 1.3852070904 0.22715816343 0.3129712797 0.49462574053 0.49462574053 0.68021497688 0.77059342779 
1.0172219679 1.0172219679 1.0172219679 1.0172219679 2.1243706857 1.5707963268 1.3676273807 1.271087727 1.2156949949 
2.6469669131 2.1243706857 1.7739652728 1.5707963268 1.447813335 1.3676273807 2.8286213739 2.4613776767 2.1243706857 
1.8705049266 1.6937793186 1.5707963268 1.4827341049 2.9144344902 2.6469669131 2.3709992258 2.1243706857 1.9258976586 
1.7739652728 1.6588585487 1.5707963268 1.7563855631 1.8563003522 1.8785697967 1.9779583789 1.9913306621 2.0024758186 
2.1243706857 2.1243706857 2.1243706857 2.1243706857 2.295651703 2.2776669786 2.2630782103 2.2510113037 2.2408671392 
2.486385773 2.4475202889 2.4159740166 2.3899057108 2.3680303173 2.3494282469 2.6847397011 2.6258554882 2.5773755784 
2.5369440334 2.5028148801 2.4736848652 2.448570738 2.8758309421 2.8018393335 2.7393287203 2.6862098746 2.6407557529 
2.6015718084 2.5675431237 2.5377803997 5.8604937156 5.901393709 5.9723133995 5.9473927383 6.0216547488 6.0927478736 
5.9992719463 6.0767621038 6.1501452836 6.2190157008 6.0578962336 6.1383094565 6.2134963469 0 0.064169606361 
6.1241815303 6.206940195 6.2831853072 0.069688960264 0.13304002361 0.19043743361 6.1990255847 0 0.07624511221 
0.14487585072 0.20642320337 0.26153055843 0.3108719077 0 0.084159722458 0.15900377685 0.22528907359 0.28391336087 
0.3357925689 0.38179159818 0.42269159155 5.8604937156 5.9723133995 5.901393709 6.0927478736 6.0216547488 5.9473927383 
6.2190157008 6.1501452836 6.0767621038 5.9992719463 0.064169606361 0 6.2134963469 6.1383094565 6.0578962336 
0.19043743361 0.13304002361 0.069688960264 6.2831853072 6.206940195 6.1241815303 0.3108719077 0.26153055843 0.20642320337 
0.14487585072 0.07624511221 6.2831853072 6.1990255847 0.42269159155 0.38179159818 0.3357925689 0.28391336087 0.22528907359 
0.15900377685 0.084159722458 0 5.6793730533 5.7091357773 5.5901633916 5.743164462 5.6152775188 5.4910209005 
5.7823484065 5.6444075337 5.5096229709 5.3824597928 5.8278025282 5.678536687 5.5314983644 5.3926039573 5.2659633393 
5.8809213739 5.718968232 5.5575666702 5.4046708639 5.2659633393 5.1440684722 5.9434319871 5.7674481418 5.5891129425 
5.4192596322 5.2659633393 5.1329233157 5.0201624502 6.0174235957 5.8263323547 5.6279784266 5.4372443565 5.2659633393 
5.1195510325 4.9978930058 4.8979782167 1.3852070904 1.2852923014 1.2630228569 1.1636342747 1.1502619915 1.139116835 
1.0172219679 1.0172219679 1.0172219679 1.0172219679 0.84594095064 0.86392567495 0.87851444325 0.89058134991 0.90072551443 
0.6552068806 0.69407236469 0.72561863695 0.75168694275 0.77356233629 0.79216440667 0.45685295248 0.51573716537 0.56421707518 
0.60464862014 0.63877777351 0.66790778838 0.69302191562 0.26576171152 0.33975332011 0.40226393329 0.45538277901 0.50083690068 
0.54002084522 0.57404952988 0.60381225391 
_paraPhiHalf 1 1002 double
0 3.1415926536 0 3.1415926536 1.5707963268 1.5707963268 1.5707963268 1.5707963268 2.5880182947 
0.5535743589 2.5880182947 0.5535743589 0 0 0 0 3.1415926536 3.1415926536 
3.1415926536 3.1415926536 3.1415926536 0.17788134 0.38438696014 0.60631181711 0.82323535693 1.0172219679 1.1799687454 
1.3118704726 1.4175000338 1.5022335207 0.17788134 0.38438696014 0.60631181711 0.82323535693 1.0172219679 1.1799687454 
1.3118704726 1.4175000338 1.5022335207 0.093902416448 0.17615329733 0.2478725152 0.31035131605 0.36486382811 0.41257334776 
0.45449736604 0.4915044461 0.52432611754 0.093902416448 0.17615329733 0.2478725152 0.31035131605 0.36486382811 0.41257334776 
0.45449736604 0.4915044461 0.52432611754 2.9637113136 2.7572056934 2.5352808365 2.3183572967 2.1243706857 1.9616239082 
1.829722181 1.7240926197 1.6393591329 2.9637113136 2.7572056934 2.5352808365 2.3183572967 2.1243706857 1.9616239082 
1.829722181 1.7240926197 1.6393591329 3.0476902371 2.9654393563 2.8937201384 2.8312413375 2.7767288255 2.7290193058 
2.6870952876 2.6500882075 2.617266536 3.0476902371 2.9654393563 2.8937201384 2.8312413375 2.7767288255 2.7290193058 
2.6870952876 2.6500882075 2.617266536 0 0 0 0 3.1415926536 3.1415926536 
3.1415926536 3.1415926536 3.1415926536 0.17788134 0.38438696014 0.60631181711 0.82323535693 1.0172219679 1.1799687454 
1.3118704726 1.4175000338 1.5022335207 0.17788134 0.38438696014 0.60631181711 0.82323535693 1.0172219679 1.1799687454 
1.3118704726 1.4175000338 1.5022335207 0.093902416448 0.17615329733 0.2478725152 0.31035131605 0.36486382811 0.41257334776 
0.45449736604 0.4915044461 0.52432611754 0.093902416448 0.17615329733 0.2478725152 0.31035131605 0.36486382811 0.41257334776 
0.45449736604 0.4915044461 0.52432611754 2.9637113136 2.7572056934 2.5352808365 2.3183572967 2.1243706857 1.9616239082 
1.829722181 1.7240926197 1.6393591329 2.9637113136 2.7572056934 2.5352808365 2.3183572967 2.1243706857 1.9616239082 
1.829722181 1.7240926197 1.6393591329 3.0476902371 2.9654393563 2.8937201384 2.8312413375 2.7767288255 2.7290193058 
2.6870952876 2.6500882075 2.617266536 3.0476902371 2.9654393563 2.8937201384 2.8312413375 2.7767288255 2.7290193058 
2.6870952876 2.6500882075 2.617266536 1.5707963268 1.5707963268 1.5707963268 1.5707963268 1.5707963268 1.5707963268 
1.5707963268 1.5707963268 1.5707963268 1.6743954455 1.7840462375 1.8974821136 2.0119052671 2.1243706857 2.232221744 
2.3334263672 2.426721652 2.5115728246 1.4671972081 1.3575464161 1.24411054 1.1296873865 1.0172219679 0.90937090954 
0.80816628637 0.71487100155 0.63001982895 1.6743954455 1.7840462375 1.8974821136 2.0119052671 2.1243706857 2.232221744 
2.3334263672 2.426721652 2.5115728246 1.4671972081 1.3575464161 1.24411054 1.1296873865 1.0172219679 0.90937090954 
0.80816628637 0.71487100155 0.63001982895 1.5707963268 1.5707963268 1.5707963268 1.5707963268 1.5707963268 1.5707963268 
1.5707963268 1.5707963268 1.5707963268 1.6743954455 1.7840462375 1.8974821136 2.0119052671 2.1243706857 2.232221744 
2.3334263672 2.426721652 2.5115728246 1.4671972081 1.3575464161 1.24411054 1.1296873865 1.0172219679 0.90937090954 
0.80816628637 0.71487100155 0.63001982895 1.6743954455 1.7840462375 1.8974821136 2.0119052671 2.1243706857 2.232221744 
2.3334263672 2.426721652 2.5115728246 1.4671972081 1.3575464161 1.24411054 1.1296873865 1.0172219679 0.90937090954 
0.80816628637 0.71487100155 0.63001982895 2.6824132222 2.7864913217 2.8992382033 3.0186096618 3.1415926536 3.0186096618 
2.8992382033 2.7864913217 2.6824132222 0.45917943135 0.35510133185 0.2423544503 0.12298299178 0 0.12298299178 
0.2423544503 0.35510133185 0.45917943135 0.22715816343 0.49462574053 0.3129712797 0.77059342779 0.68021497688 0.49462574053 
1.0172219679 1.0172219679 1.0172219679 1.0172219679 1.2156949949 1.271087727 1.3676273807 1.5707963268 2.1243706857 
1.3676273807 1.447813335 1.5707963268 1.7739652728 2.1243706857 2.6469669131 1.4827341049 1.5707963268 1.6937793186 
1.8705049266 2.1243706857 2.4613776767 2.8286213739 1.5707963268 1.6588585487 1.7739652728 1.9258976586 2.1243706857 
2.3709992258 2.6469669131 2.9144344902 0.26576171152 0.33975332011 0.45685295248 0.40226393329 0.51573716537 0.6552068806 
0.45538277901 0.56421707518 0.69407236469 0.84594095064 0.50083690068 0.60464862014 0.72561863695 0.86392567495 1.0172219679 
0.54002084522 0.63877777351 0.75168694275 0.87851444325 1.0172219679 1.1636342747 0.57404952988 0.66790778838 0.77356233629 
0.89058134991 1.0172219679 1.1502619915 1.2852923014 0.60381225391 0.69302191562 0.79216440667 0.90072551443 1.0172219679 
1.139116835 1.2630228569 1.3852070904 0.71487100155 0.80816628637 0.80816628637 0.90937090954 0.90937090954 0.90937090954 
1.0172219679 1.0172219679 1.0172219679 1.0172219679 1.1296873865 1.1296873865 1.1296873865 1.1296873865 1.1296873865 
1.24411054 1.24411054 1.24411054 1.24411054 1.24411054 1.24411054 1.3575464161 1.3575464161 1.3575464161 
1.3575464161 1.3575464161 1.3575464161 1.3575464161 1.4671972081 1.4671972081 1.4671972081 1.4671972081 1.4671972081 
1.4671972081 1.4671972081 1.4671972081 1.6743954455 1.6743954455 1.7840462375 1.6743954455 1.7840462375 1.8974821136 
1.6743954455 1.7840462375 1.8974821136 2.0119052671 1.6743954455 1.7840462375 1.8974821136 2.0119052671 2.1243706857 
1.6743954455 1.7840462375 1.8974821136 2.0119052671 2.1243706857 2.232221744 1.6743954455 1.7840462375 1.8974821136 
2.0119052671 2.1243706857 2.232221744 2.3334263672 1.6743954455 1.7840462375 1.8974821136 2.0119052671 2.1243706857 
2.232221744 2.3334263672 2.426721652 1.7563855631 1.8785697967 1.8563003522 2.0024758186 1.9913306621 1.9779583789 
2.1243706857 2.1243706857 2.1243706857 2.1243706857 2.2408671392 2.2510113037 2.2630782103 2.2776669786 2.295651703 
2.3494282469 2.3680303173 2.3899057108 2.4159740166 2.4475202889 2.486385773 2.448570738 2.4736848652 2.5028148801 
2.5369440334 2.5773755784 2.6258554882 2.6847397011 2.5377803997 2.5675431237 2.6015718084 2.6407557529 2.6862098746 
2.7393287203 2.8018393335 2.8758309421 2.718901062 2.8307207459 2.7598010554 2.95115522 2.8800620952 2.8058000847 
3.0774230472 3.00855263 2.9351694502 2.8576792927 3.0774230472 3.1415926536 3.0719036933 2.9967168029 2.91630358 
2.95115522 3.00855263 3.0719036933 3.1415926536 3.0653475414 2.9825888767 2.8307207459 2.8800620952 2.9351694502 
2.9967168029 3.0653475414 3.1415926536 3.0574329311 2.718901062 2.7598010554 2.8058000847 2.8576792927 2.91630358 
2.9825888767 3.0574329311 3.1415926536 2.718901062 2.7598010554 2.8307207459 2.8058000847 2.8800620952 2.95115522 
2.8576792927 2.9351694502 3.00855263 3.0774230472 2.91630358 2.9967168029 3.0719036933 3.1415926536 3.0774230472 
2.9825888767 3.0653475414 3.1415926536 3.0719036933 3.00855263 2.95115522 3.0574329311 3.1415926536 3.0653475414 