# vtk DataFile Version 5.1
vtk output
ASCII
DATASET POLYDATA
POINTS 100 float
27.127 45.2874 11.8073 27.1162 45.266 11.8101 27.0845 45.1994 11.815 
27.0317 45.0916 11.8214 26.9582 44.9489 11.8285 26.8641 44.7791 11.835 
26.7495 44.5909 11.8395 26.6147 44.3933 11.8404 26.4602 44.1946 11.836 
26.2862 44.0016 11.8247 26.0933 43.8193 11.8049 25.8822 43.6503 11.7754 
25.6539 43.4949 11.7355 25.4094 43.3511 11.6849 25.1503 43.2149 11.6241 
24.8782 43.0811 11.5543 24.5952 42.9437 11.4774 24.3037 42.7965 11.3957 
24.0062 42.6342 11.3125 23.7055 42.4524 11.231 23.4044 42.2482 11.1545 
23.1057 42.0208 11.0865 22.8119 41.771 11.0295 22.5254 41.5013 10.9859 
22.2478 41.2154 10.9567 21.9804 40.9183 10.9425 21.724 40.6149 10.9426 
21.4784 40.3106 10.9554 21.2429 40.0098 10.9788 21.0163 39.7165 11.01 
20.7967 39.4331 11.046 20.5822 39.1613 11.0839 20.3702 38.9014 11.1213 
20.1586 38.6528 11.1562 19.9453 38.4141 11.1875 19.7285 38.1834 11.2149 
19.5069 37.9587 11.2389 19.2801 37.738 11.2608 19.048 37.5195 11.2823 
18.8114 37.3019 11.3057 18.5714 37.0842 11.3329 18.3298 36.8661 11.3658 
18.0886 36.6473 11.4055 17.85 36.4276 11.4527 17.616 36.2072 11.5071 
17.3883 35.9859 11.5677 17.1683 35.7634 11.6326 16.9567 35.5392 11.6996 
16.7538 35.3125 11.7662 16.559 35.0826 11.8298 16.3712 34.8487 11.8881 
16.1888 34.61 11.9395 16.0096 34.3662 11.9829 15.8315 34.1174 12.0182 
15.6521 33.8643 12.046 15.4691 33.6079 12.0679 15.2808 33.35 12.086 
15.0855 33.0927 12.1028 14.8822 32.8383 12.1211 14.6706 32.5892 12.1434 
14.4507 32.3475 12.172 14.2232 32.1152 12.2085 13.9892 31.8934 12.2539 
13.7502 31.6829 12.3084 13.5079 31.4835 12.3715 13.2641 31.2944 12.4421 
13.0207 31.1143 12.5185 12.7794 30.9412 12.5989 12.5416 30.7732 12.6814 
12.3087 30.6081 12.7642 12.0815 30.4439 12.846 11.8606 30.2791 12.9258 
11.6461 30.1127 13.0032 11.4379 29.9443 13.0783 11.2354 29.7739 13.1517 
11.0379 29.6024 13.2243 10.8441 29.4309 13.297 10.6528 29.2608 13.3709 
10.4624 29.0937 13.4467 10.2713 28.9312 13.5251 10.0777 28.7744 13.6061 
9.88022 28.6245 13.6892 9.67729 28.4817 13.7737 9.46783 28.3464 13.858 
9.25113 28.2181 13.9408 9.02702 28.0963 14.0201 8.79597 27.9803 14.0943 
8.55919 27.8694 14.1616 8.31865 27.7629 14.2208 8.07711 27.6605 14.2711 
7.83807 27.5622 14.3119 7.60567 27.4686 14.3434 7.38455 27.3805 14.3663 
7.17963 27.2992 14.3815 6.99593 27.2264 14.3904 6.83826 27.1635 14.3946 
6.71099 27.1125 14.3955 6.61782 27.0747 14.3944 6.56151 27.0515 14.3925 
6.54381 27.0434 14.3905 
LINES 2 100
OFFSETS vtktypeint64
0 100 
CONNECTIVITY vtktypeint64
0 1 2 3 4 5 6 7 8 
9 10 11 12 13 14 15 16 17 
18 19 20 21 22 23 24 25 26 
27 28 29 30 31 32 33 34 35 
36 37 38 39 40 41 42 43 44 
45 46 47 48 49 50 51 52 53 
54 55 56 57 58 59 60 61 62 
63 64 65 66 67 68 69 70 71 
72 73 74 75 76 77 78 79 80 
81 82 83 84 85 86 87 88 89 
90 91 92 93 94 95 96 97 98 
99 
POINT_DATA 100
FIELD FieldData 3
_theta 1 100 double
0 0.031733259127 0.063466518254 0.095199777382 0.12693303651 0.15866629564 0.19039955476 0.22213281389 0.25386607302 
0.28559933214 0.31733259127 0.3490658504 0.38079910953 0.41253236865 0.44426562778 0.47599888691 0.50773214603 0.53946540516 
0.57119866429 0.60293192342 0.63466518254 0.66639844167 0.6981317008 0.72986495992 0.76159821905 0.79333147818 0.82506473731 
0.85679799643 0.88853125556 0.92026451469 0.95199777382 0.98373103294 1.0154642921 1.0471975512 1.0789308103 1.1106640695 
1.1423973286 1.1741305877 1.2058638468 1.237597106 1.2693303651 1.3010636242 1.3327968833 1.3645301425 1.3962634016 
1.4279966607 1.4597299198 1.491463179 1.5231964381 1.5549296972 1.5866629564 1.6183962155 1.6501294746 1.6818627337 
1.7135959929 1.745329252 1.7770625111 1.8087957702 1.8405290294 1.8722622885 1.9039955476 1.9357288068 1.9674620659 
1.999195325 2.0309285841 2.0626618433 2.0943951024 2.1261283615 2.1578616206 2.1895948798 2.2213281389 2.253061398 
2.2847946572 2.3165279163 2.3482611754 2.3799944345 2.4117276937 2.4434609528 2.4751942119 2.506927471 2.5386607302 
2.5703939893 2.6021272484 2.6338605076 2.6655937667 2.6973270258 2.7290602849 2.7607935441 2.7925268032 2.8242600623 
2.8559933214 2.8877265806 2.9194598397 2.9511930988 2.982926358 3.0146596171 3.0463928762 3.0781261353 3.1098593945 
3.1415926536 
_radius 1 100 double
1.5888218581e-14 0.24381065499 0.48752505275 0.73071610611 0.97248067063 1.2112866174 1.4449088141 1.6704722793 1.8846096607 
2.0837249903 2.2643397847 2.4234858895 2.5591046993 2.670411951 2.7581845552 2.824918112 2.8747996498 2.913455119 
2.9474703959 2.983735149 3.0287027812 3.0876861385 3.1643087118 3.2601942643 3.3749131506 3.5061466003 3.6500107363 
3.8014947576 3.954983888 4.1048377426 4.2459808431 4.3744463756 4.4878071677 4.5854345423 4.6685462475 4.7400341345 
4.8040933102 4.8657004771 4.9300060051 5.0017112263 5.0845017561 5.1806012523 5.2904960506 5.4128572371 5.5446578083 
5.6814593035 5.8178302252 5.9478537329 6.0656783629 6.1660617145 6.2448556904 6.2993848901 6.3286775591 6.333521694 
6.3163381023 6.2808858133 6.2318384289 6.1742865596 6.1132267544 6.053090618 5.9973531869 5.9482442893 5.9065769409 
5.8717040978 5.8416143879 5.813171168 5.7824828733 5.7453684073 5.6978577911 5.6366557287 5.5595000855 5.4653670367 
5.3545028855 5.2282915439 5.0889908118 4.9393866965 4.782421388 4.6208466172 4.4569414311 4.2923162029 4.1278090834 
3.9634716268 3.7986366993 3.6320593523 3.4621154428 3.2870332284 3.1051247138 2.9149820963 2.715612457 2.5064982303 
2.2875869508 2.0592270825 1.8220746848 1.5769967155 1.3249908142 1.0671308523 0.80453688952 0.53836152589 0.26978326744 
3.4431411805e-14 
_area 1 100 double
0 0.18582066546 0.74457494947 1.6770499226 2.9756599994 4.6153304901 6.5471233921 8.6973736738 10.973005626 
13.271670283 15.4939496 17.554394901 19.38901176 20.95907671 22.253291159 23.289885851 24.117913317 24.815524499 
25.48372355 26.235950431 27.185505956 28.433377116 30.058073177 32.107652117 34.594333556 37.493161104 40.744397149 
44.2569887 47.912334745 51.571067637 55.086314407 58.324035525 61.185570391 63.623798678 65.650261009 67.338471483 
68.821458716 70.277602932 71.908257986 73.915155153 76.46060546 79.659806748 83.436816257 87.713948197 92.393589134 
97.35227501 102.42697348 107.46434782 112.34082354 116.73896606 120.35862014 122.99846679 124.55941992 125.0489546 
124.57221235 123.30846453 121.47951761 119.31817752 117.04237113 114.83653965 112.83918516 111.1349561 109.75056809 
108.65478967 107.76282535 106.94506331 106.04058673 104.87688815 103.29567761 101.17941469 98.46982192 95.172514762 
91.347881437 87.093049063 82.521607028 77.746780038 72.870924548 67.981145309 63.148817521 58.430305245 53.866930083 
49.483719036 45.287971303 41.269482213 37.403918378 33.659627466 30.006782413 26.426724749 22.918956085 19.503676557 
16.219155692 13.115088216 10.244526662 7.6571969358 5.3958838766 3.4958315717 1.9857788089 0.88897991158 0.22323900272 
2.5754482103e-13 
