# vtk DataFile Version 5.1
vtk output
ASCII
DATASET POLYDATA
POINTS 1002 float
-5.70285 -0.368859 -5.009 5.32303 0.230928 -4.36734 -5.59118 0.498065 4.81894 
5.46397 -0.381172 4.52454 0.122779 6.51407 -3.08976 -0.3559 6.54605 3.20001 
0.168301 -6.15813 -3.10601 0.765496 -5.64014 2.15376 9.50396 4.87548 -0.30637 
-9.3555 3.90781 0.0824362 9.54126 -4.09183 1.04582 -9.97771 -4.43742 1.07952 
-4.6449 -0.419383 -5.0477 -3.50088 -0.431 -5.13643 -2.39606 -0.362886 -5.20491 
-1.3631 -0.191037 -5.07009 -0.288455 0.0543163 -4.68593 0.899916 0.26751 -4.30809 
2.12482 0.337789 -4.2104 3.29534 0.275969 -4.34867 4.37439 0.206973 -4.46192 
-5.45703 0.284329 -4.85932 -5.02384 0.986806 -4.78951 -4.40329 1.66828 -4.67032 
-3.6772 2.28234 -4.36003 -2.93869 2.92009 -3.97749 -2.23732 3.70485 -3.76002 
-1.60122 4.56748 -3.68115 -1.02833 5.33419 -3.54984 -0.468294 5.9613 -3.32532 
-5.1967 -1.06513 -5.1753 -4.62278 -1.82953 -5.22045 -4.05312 -2.6361 -5.16557 
-3.44375 -3.45039 -5.17567 -2.73706 -4.2106 -5.29707 -2.03173 -4.81543 -5.21503 
-1.45558 -5.19234 -4.67374 -0.957484 -5.42575 -3.92685 -0.417365 -5.71357 -3.37921 
-6.56636 0.075443 -4.79146 -7.34761 0.486762 -4.42092 -8.04347 0.860837 -3.93312 
-8.70311 1.28661 -3.37163 -9.2676 1.80456 -2.74598 -9.59642 2.30135 -2.07957 
-9.68119 2.69074 -1.45491 -9.63671 3.04985 -0.929851 -9.52863 3.46524 -0.450536 
-6.41412 -0.716916 -5.15858 -7.09731 -1.06891 -5.2625 -7.73287 -1.44133 -5.0131 
-8.31166 -1.82625 -4.23265 -8.78705 -2.16382 -3.13085 -9.09714 -2.44618 -2.08909 
-9.29295 -2.78623 -1.23717 -9.51594 -3.28044 -0.4593 -9.78953 -3.87817 0.32608 
4.97244 0.978648 -4.19548 4.52976 1.80922 -3.80642 4.14027 2.59405 -3.45247 
3.83695 3.24655 -3.46613 3.43082 3.81679 -3.83689 2.76069 4.3997 -4.16066 
1.93146 5.00842 -4.1457 1.15758 5.5993 -3.86609 0.551442 6.12032 -3.49366 
5.01502 -0.49804 -4.44889 4.60727 -1.20712 -4.39002 4.1046 -1.89961 -4.31601 
3.54567 -2.63097 -4.25569 2.96733 -3.42178 -4.1009 2.3688 -4.17558 -3.84727 
1.75086 -4.78748 -3.63444 1.15686 -5.28418 -3.49851 0.629829 -5.74221 -3.3417 
6.0442 0.789679 -4.01375 6.76712 1.41806 -3.51075 7.44492 2.02723 -3.10484 
8.09409 2.6072 -2.99232 8.74715 3.22574 -3.03778 9.34691 3.86921 -2.88855 
9.7684 4.40233 -2.3819 9.92729 4.72643 -1.65982 9.81916 4.8606 -0.934469 
5.97474 -0.0992506 -4.11356 6.50239 -0.344097 -3.57145 6.99047 -0.625961 -2.94797 
7.57503 -1.15609 -2.55137 8.22126 -1.93181 -2.40191 8.74306 -2.63445 -2.13545 
9.07386 -3.0425 -1.46294 9.3013 -3.30893 -0.512488 9.47139 -3.65853 0.38815 
-4.76719 0.549206 4.68513 -3.86188 0.598544 4.30587 -2.82798 0.638621 3.79458 
-1.62924 0.588237 3.37623 -0.274189 0.355784 3.18877 1.15521 0.00507876 3.22443 
2.50914 -0.265 3.46441 3.67049 -0.354957 3.87174 4.63556 -0.351042 4.28971 
-5.31354 1.16571 4.89384 -4.93206 1.87586 4.95404 -4.50306 2.6314 5.0361 
-4.10344 3.41014 5.0959 -3.69621 4.10334 4.9638 -3.14944 4.6337 4.52239 
-2.43184 5.09157 3.93834 -1.66371 5.59368 3.50932 -0.964052 6.11188 3.31522 
-5.29963 -0.11986 4.58361 -4.95067 -0.736452 4.09541 -4.50345 -1.34558 3.51468 
-3.90767 -1.98208 3.12175 -3.16489 -2.64966 3.01028 -2.29423 -3.29612 2.92738 
-1.33485 -3.88876 2.62713 -0.423713 -4.45291 2.2355 0.283931 -5.03122 2.04777 
-6.28127 0.856407 4.72853 -6.9912 1.23276 4.31633 -7.63492 1.61514 3.78728 
-8.20901 2.04076 3.45401 -8.77699 2.56142 3.36678 -9.29455 3.15542 3.18369 
-9.60224 3.68594 2.58196 -9.64488 3.99244 1.65309 -9.52633 4.03408 0.743991 
-6.25344 0.027707 4.74417 -7.0012 -0.513872 4.61894 -7.82198 -1.10717 4.42645 
-8.61578 -1.73961 4.18363 -9.30639 -2.42719 3.95463 -9.92134 -3.16494 3.72044 
-10.4211 -3.84039 3.33462 -10.6252 -4.29065 2.7031 -10.4392 -4.46127 1.90108 
5.09595 0.33972 4.33487 4.75471 0.993696 3.92841 4.25923 1.66638 3.73193 
3.50984 2.49023 3.96402 2.70695 3.37436 4.15005 2.08722 4.05425 3.79266 
1.56486 4.53401 3.19448 0.942038 5.09197 2.92899 0.246386 5.82436 3.04099 
5.40073 -1.12546 4.31783 5.31259 -1.89407 3.87638 5.09512 -2.63063 3.53215 
4.71234 -3.33922 3.52843 4.27151 -3.99263 3.61752 3.83723 -4.50721 3.41841 
3.2812 -4.88002 3.01138 2.49722 -5.18746 2.68439 1.59547 -5.44998 2.44861 
6.00231 0.00648577 4.46371 6.59177 0.333965 4.06131 7.27683 0.577259 3.398 
7.95665 0.865559 2.6804 8.3729 1.37857 2.06274 8.47972 2.10832 1.56485 
8.58494 2.89086 1.14143 8.8991 3.63071 0.724507 9.27957 4.30872 0.24659 
6.28671 -0.989844 4.45007 7.25244 -1.74543 4.14062 8.19128 -2.43548 3.87535 
8.94698 -2.90688 3.80623 9.57996 -3.34763 3.59303 10.1767 -3.99884 2.90482 
10.5588 -4.62859 2.06179 10.5063 -4.80182 1.549 10.0861 -4.50455 1.32478 
0.332916 7.05944 -2.67133 0.625801 7.60918 -2.1941 0.888553 8.05441 -1.61499 
0.956757 8.24875 -0.928463 0.786767 8.14393 -0.182437 0.49492 7.89688 0.644153 
0.192621 7.69002 1.58574 -0.0767984 7.48183 2.46848 -0.270364 7.11027 3.02474 
1.06209 6.82325 -3.09768 2.22748 7.06089 -3.0104 3.50776 7.18983 -2.80158 
4.73049 7.17298 -2.54523 5.81908 7.04391 -2.36258 6.8176 6.876 -2.2013 
7.75745 6.64177 -1.86148 8.57692 6.23157 -1.31282 9.17393 5.61535 -0.743154 
-0.582693 6.38945 -2.72799 -1.31536 6.03085 -2.21718 -2.19879 5.5571 -1.67228 
-3.27434 5.17848 -1.26365 -4.48126 4.93757 -1.01081 -5.75741 4.68835 -0.775022 
-7.00269 4.38895 -0.506217 -8.04401 4.15671 -0.286676 -8.79992 4.03071 -0.126177 
0.590024 6.48031 2.96454 1.6608 6.32851 2.59403 2.84046 6.13378 2.10307 
4.03697 6.03665 1.66248 5.15097 6.14446 1.42193 6.18331 6.30769 1.26415 
7.183 6.23504 0.96441 8.1181 5.85783 0.517549 8.90309 5.35318 0.0718774 
-1.22411 6.91012 3.31394 -2.07443 7.11678 3.23985 -2.9451 7.09926 2.92311 
-3.90441 6.80911 2.47565 -4.94561 6.26562 2.12239 -5.99937 5.65576 1.91502 
-7.02076 5.18568 1.64007 -7.96458 4.8264 1.15078 -8.7548 4.4148 0.569714 
0.263569 -6.72519 -2.76939 0.315776 -7.2796 -2.2941 0.297806 -7.72851 -1.65945 
0.317083 -7.99708 -0.918098 0.459433 -8.03411 -0.164862 0.592283 -7.79765 0.552432 
0.571027 -7.31474 1.20901 0.503721 -6.71909 1.72179 0.569033 -6.14632 2.022 
1.04385 -6.49513 -3.09687 1.93212 -6.70081 -2.90287 2.82192 -6.44972 -2.30508 
3.7595 -5.88239 -1.51584 4.7743 -5.48705 -0.971995 5.81453 -5.32248 -0.674958 
6.80557 -4.99623 -0.257597 7.73857 -4.46311 0.339948 8.64935 -4.09559 0.830525 
-0.693576 -6.26866 -2.98053 -1.65728 -6.54508 -2.97133 -2.64218 -6.95106 -3.05485 
-3.60301 -7.20631 -2.9827 -4.61898 -7.00396 -2.49472 -5.7788 -6.38684 -1.67322 
-7.00788 -5.70222 -0.841018 -8.1502 -5.1828 -0.145218 -9.13759 -4.79762 0.482075 
1.62296 -6.21759 2.6955 2.46232 -6.78534 3.28241 3.30725 -7.13382 3.55094 
4.22798 -7.13155 3.31127 5.23844 -6.79863 2.80019 6.24078 -6.22898 2.39167 
7.17139 -5.55014 2.15103 8.06141 -4.92568 1.89353 8.88801 -4.45304 1.50878 
-0.285828 -5.41551 1.67446 -1.47937 -5.27983 1.30688 -2.86127 -5.32891 1.18638 
-4.32302 -5.55021 1.27288 -5.62028 -5.80886 1.38354 -6.68843 -5.96001 1.45311 
-7.6918 -5.92056 1.53068 -8.67146 -5.6417 1.55165 -9.46704 -5.12095 1.39657 
9.92161 4.05591 -0.316194 10.332 3.03161 -0.30097 10.7978 1.7837 -0.140419 
11.2631 0.500115 0.225067 11.5782 -0.653321 0.638972 11.6627 -1.7742 0.831671 
11.5085 -2.87145 0.769867 11.0818 -3.65217 0.703762 10.3872 -3.97849 0.817038 
-10.0115 3.39062 0.0641194 -10.8075 2.71801 0.225495 -11.7829 1.93161 0.501238 
-12.6917 1.01522 0.71417 -13.0996 -0.0125596 0.803807 -12.8371 -1.01286 0.889747 
-12.1632 -1.91981 1.03518 -11.4068 -2.80742 1.15435 -10.6854 -3.6792 1.168 
-4.33587 0.27535 -5.06197 -3.87726 1.00197 -5.13312 -3.1437 0.271673 -5.28618 
-3.28103 1.71287 -5.05261 -2.6884 0.997761 -5.41286 -2.01147 0.348769 -5.33832 
-2.61701 2.43646 -4.72148 -2.142 1.77315 -5.29324 -1.54383 1.10145 -5.37886 
-0.931172 0.558405 -5.04736 -1.9404 3.2657 -4.35223 -1.5237 2.65921 -4.91657 
-0.954516 1.96068 -5.16412 -0.367285 1.35099 -4.96058 0.222044 0.830865 -4.55696 
-1.27806 4.162 -4.13819 -0.842358 3.60585 -4.53753 -0.227571 2.90885 -4.75818 
0.396938 2.21455 -4.68521 0.91242 1.61427 -4.41929 1.46344 1.0151 -4.21803 
-0.653883 4.95205 -3.98482 -0.141642 4.42897 -4.29801 0.566038 3.7722 -4.42223 
1.29565 3.06331 -4.32037 1.80719 2.40475 -4.11975 2.19705 1.76332 -4.04617 
2.70209 1.04582 -4.16547 -0.0568639 5.57634 -3.76351 0.524441 5.05665 -4.10496 
1.29964 4.43942 -4.26108 2.12326 3.78023 -4.13494 2.7196 3.14596 -3.83278 
3.05683 2.51958 -3.68967 3.40095 1.80651 -3.88291 3.88519 0.999076 -4.22865 
-6.21397 0.736418 -4.54963 -6.81907 1.08996 -4.10843 -5.61154 1.42114 -4.35055 
-7.34573 1.37916 -3.56799 -6.06041 1.70621 -3.80405 -4.84223 2.05029 -4.05224 
-7.90806 1.763 -2.95085 -6.52867 1.97362 -3.2246 -5.25274 2.31278 -3.42055 
-4.03933 2.62564 -3.63354 -8.44154 2.28135 -2.28243 -7.09888 2.42432 -2.63113 
-5.77325 2.68146 -2.88957 -4.48834 2.96648 -3.04048 -3.26341 3.30158 -3.32511 
-8.7935 2.78794 -1.63296 -7.62118 2.99456 -2.0007 -6.32502 3.2477 -2.38091 
-5.02174 3.47326 -2.59111 -3.70868 3.74803 -2.81306 -2.5264 4.14931 -3.2242 
-8.93793 3.21004 -1.08029 -7.94568 3.4715 -1.3646 -6.7141 3.78394 -1.76762 
-5.4283 4.0277 -2.07851 -4.1362 4.24594 -2.30472 -2.88873 4.58555 -2.65796 
-1.84941 5.01259 -3.13647 -8.92869 3.61385 -0.610915 -8.07241 3.82771 -0.794453 
-6.91587 4.13264 -1.09996 -5.62816 4.4194 -1.4229 -4.36283 4.63912 -1.67179 
-3.15311 4.92543 -1.97715 -2.08179 5.34825 -2.44253 -1.2173 5.75202 -2.94438 
-8.06904 4.4881 0.325937 -7.13308 4.93109 0.778092 -7.15145 4.63707 0.0807304 
-6.08762 5.51532 1.09311 -6.12518 5.27105 0.385172 -5.98983 4.95984 -0.193965 
-5.00368 6.28778 1.31689 -5.07632 6.15808 0.605273 -4.95598 5.78387 0.0569995 
-4.68305 5.30685 -0.437017 -3.88909 6.97696 1.6537 -3.98464 7.01042 0.88195 
-3.93073 6.73176 0.281671 -3.62859 6.13718 -0.172223 -3.35397 5.54963 -0.656214 
-2.81517 7.33555 2.15099 -2.82851 7.43588 1.30531 -2.8152 7.34725 0.566594 
-2.55737 6.93837 0.0166466 -2.23271 6.33819 -0.454153 -2.13057 5.85495 -1.01116 
-1.88432 7.427 2.63687 -1.74987 7.52071 1.78607 -1.65639 7.5229 0.905083 
-1.43529 7.42608 0.181004 -1.12747 7.1307 -0.398962 -1.00853 6.71875 -0.959665 
[...]
POINT_DATA 1002
FIELD FieldData 4
_paraPhi 1 1002 double
6.2831853072 3.1415926536 6.2831853072 3.1415926536 4.7123889804 4.7123889804 1.5707963268 1.5707963268 3.6951670125 
5.7296109483 2.5880182947 0.5535743589 6.2831853072 6.2831853072 6.2831853072 6.2831853072 3.1415926536 3.1415926536 
3.1415926536 3.1415926536 3.1415926536 6.1053039672 5.898798347 5.6768734901 5.4599499503 5.2659633393 5.1032165617 
4.9713148346 4.8656852733 4.7809517865 0.17788134 0.38438696014 0.60631181711 0.82323535693 1.0172219679 1.1799687454 
1.3118704726 1.4175000338 1.5022335207 6.1892828907 6.1070320098 6.035312792 5.9728339911 5.9183214791 5.8706119594 
5.8286879411 5.7916808611 5.7588591896 0.093902416448 0.17615329733 0.2478725152 0.31035131605 0.36486382811 0.41257334776 
0.45449736604 0.4915044461 0.52432611754 3.3194739936 3.5259796137 3.7479044707 3.9648280105 4.1588146215 4.321561399 
4.4534631262 4.5590926874 4.6438261743 2.9637113136 2.7572056934 2.5352808365 2.3183572967 2.1243706857 1.9616239082 
1.829722181 1.7240926197 1.6393591329 3.23549507 3.3177459509 3.3894651688 3.4519439696 3.5064564817 3.5541660013 
3.5960900196 3.6330970997 3.6659187711 3.0476902371 2.9654393563 2.8937201384 2.8312413375 2.7767288255 2.7290193058 
2.6870952876 2.6500882075 2.617266536 6.2831853072 6.2831853072 6.2831853072 6.2831853072 3.1415926536 3.1415926536 
3.1415926536 3.1415926536 3.1415926536 6.1053039672 5.898798347 5.6768734901 5.4599499503 5.2659633393 5.1032165617 
4.9713148346 4.8656852733 4.7809517865 0.17788134 0.38438696014 0.60631181711 0.82323535693 1.0172219679 1.1799687454 
1.3118704726 1.4175000338 1.5022335207 6.1892828907 6.1070320098 6.035312792 5.9728339911 5.9183214791 5.8706119594 
5.8286879411 5.7916808611 5.7588591896 0.093902416448 0.17615329733 0.2478725152 0.31035131605 0.36486382811 0.41257334776 
0.45449736604 0.4915044461 0.52432611754 3.3194739936 3.5259796137 3.7479044707 3.9648280105 4.1588146215 4.321561399 
4.4534631262 4.5590926874 4.6438261743 2.9637113136 2.7572056934 2.5352808365 2.3183572967 2.1243706857 1.9616239082 
1.829722181 1.7240926197 1.6393591329 3.23549507 3.3177459509 3.3894651688 3.4519439696 3.5064564817 3.5541660013 
3.5960900196 3.6330970997 3.6659187711 3.0476902371 2.9654393563 2.8937201384 2.8312413375 2.7767288255 2.7290193058 
2.6870952876 2.6500882075 2.617266536 4.7123889804 4.7123889804 4.7123889804 4.7123889804 4.7123889804 4.7123889804 
4.7123889804 4.7123889804 4.7123889804 4.6087898617 4.4991390697 4.3857031936 4.2712800401 4.1588146215 4.0509635631 
3.94975894 3.8564636551 3.7716124825 4.8159880991 4.9256388911 5.0390747672 5.1534979207 5.2659633393 5.3738143976 
5.4750190208 5.5683143056 5.6531654782 4.6087898617 4.4991390697 4.3857031936 4.2712800401 4.1588146215 4.0509635631 
3.94975894 3.8564636551 3.7716124825 4.8159880991 4.9256388911 5.0390747672 5.1534979207 5.2659633393 5.3738143976 
5.4750190208 5.5683143056 5.6531654782 1.5707963268 1.5707963268 1.5707963268 1.5707963268 1.5707963268 1.5707963268 
1.5707963268 1.5707963268 1.5707963268 1.6743954455 1.7840462375 1.8974821136 2.0119052671 2.1243706857 2.232221744 
2.3334263672 2.426721652 2.5115728246 1.4671972081 1.3575464161 1.24411054 1.1296873865 1.0172219679 0.90937090954 
0.80816628637 0.71487100155 0.63001982895 1.6743954455 1.7840462375 1.8974821136 2.0119052671 2.1243706857 2.232221744 
2.3334263672 2.426721652 2.5115728246 1.4671972081 1.3575464161 1.24411054 1.1296873865 1.0172219679 0.90937090954 
0.80816628637 0.71487100155 0.63001982895 3.6007720849 3.4966939854 3.3839471039 3.2645756454 3.1415926536 3.0186096618 
2.8992382033 2.7864913217 2.6824132222 5.8240058758 5.9280839753 6.0408308569 6.1602023154 6.2831853072 0.12298299178 
0.2423544503 0.35510133185 0.45917943135 6.0560271438 5.7885595667 5.9702140275 5.5125918794 5.6029703303 5.7885595667 
5.2659633393 5.2659633393 5.2659633393 5.2659633393 5.0674903122 5.0120975802 4.9155579264 4.7123889804 4.1588146215 
4.9155579264 4.8353719722 4.7123889804 4.5092200343 4.1588146215 3.6362183941 4.8004512023 4.7123889804 4.5894059886 
4.4126803806 4.1588146215 3.8218076305 3.4545639333 4.7123889804 4.6243267584 4.5092200343 4.3572876485 4.1588146215 
3.9121860814 3.6362183941 3.368750817 6.0174235957 5.9434319871 5.8263323547 5.8809213739 5.7674481418 5.6279784266 
5.8278025282 5.718968232 5.5891129425 5.4372443565 5.7823484065 5.678536687 5.5575666702 5.4192596322 5.2659633393 
5.743164462 5.6444075337 5.5314983644 5.4046708639 5.2659633393 5.1195510325 5.7091357773 5.6152775188 5.5096229709 
5.3926039573 5.2659633393 5.1329233157 4.9978930058 5.6793730533 5.5901633916 5.4910209005 5.3824597928 5.2659633393 
5.1440684722 5.0201624502 4.8979782167 5.5683143056 5.4750190208 5.4750190208 5.3738143976 5.3738143976 5.3738143976 
5.2659633393 5.2659633393 5.2659633393 5.2659633393 5.1534979207 5.1534979207 5.1534979207 5.1534979207 5.1534979207 
5.0390747672 5.0390747672 5.0390747672 5.0390747672 5.0390747672 5.0390747672 4.9256388911 4.9256388911 4.9256388911 
4.9256388911 4.9256388911 4.9256388911 4.9256388911 4.8159880991 4.8159880991 4.8159880991 4.8159880991 4.8159880991 
4.8159880991 4.8159880991 4.8159880991 4.6087898617 4.6087898617 4.4991390697 4.6087898617 4.4991390697 4.3857031936 
4.6087898617 4.4991390697 4.3857031936 4.2712800401 4.6087898617 4.4991390697 4.3857031936 4.2712800401 4.1588146215 
4.6087898617 4.4991390697 4.3857031936 4.2712800401 4.1588146215 4.0509635631 4.6087898617 4.4991390697 4.3857031936 
4.2712800401 4.1588146215 4.0509635631 3.94975894 4.6087898617 4.4991390697 4.3857031936 4.2712800401 4.1588146215 
4.0509635631 3.94975894 3.8564636551 4.526799744 4.4046155105 4.426884955 4.2807094886 4.2918546451 4.3052269283 
4.1588146215 4.1588146215 4.1588146215 4.1588146215 4.042318168 4.0321740035 4.0201070968 4.0055183285 3.9875336042 
3.9337570603 3.9151549899 3.8932795963 3.8672112905 3.8356650183 3.7967995342 3.8346145692 3.809500442 3.7803704271 
3.7462412737 3.7058097288 3.657329819 3.5984456061 3.7454049075 3.7156421835 3.6816134988 3.6424295543 3.5969754326 
3.5438565869 3.4813459737 3.4073543651 3.5642842451 3.4524645613 3.5233842518 3.3320300872 3.403123212 3.4773852225 
3.20576226 3.2746326772 3.348015857 3.4255060145 3.0774230472 3.1415926536 3.2112816139 3.2864685043 3.3668817272 
2.95115522 3.00855263 3.0719036933 3.1415926536 3.2178377658 3.3005964304 2.8307207459 2.8800620952 2.9351694502 
2.9967168029 3.0653475414 3.1415926536 3.225752376 2.718901062 2.7598010554 2.8058000847 2.8576792927 2.91630358 
2.9825888767 3.0574329311 3.1415926536 3.5642842451 3.5233842518 3.4524645613 3.4773852225 3.403123212 3.3320300872 
3.4255060145 3.348015857 3.2746326772 3.20576226 3.3668817272 3.2864685043 3.2112816139 3.1415926536 3.0774230472 
3.3005964304 3.2178377658 3.1415926536 3.0719036933 3.00855263 2.95115522 3.225752376 3.1415926536 3.0653475414 
2.9967168029 2.9351694502 2.8800620952 2.8307207459 3.1415926536 3.0574329311 2.9825888767 2.91630358 2.8576792927 
2.8058000847 2.7598010554 2.718901062 4.526799744 4.426884955 4.4046155105 4.3052269283 4.2918546451 4.2807094886 
4.1588146215 4.1588146215 4.1588146215 4.1588146215 3.9875336042 4.0055183285 4.0201070968 4.0321740035 4.042318168 
3.7967995342 3.8356650183 3.8672112905 3.8932795963 3.9151549899 3.9337570603 3.5984456061 3.657329819 3.7058097288 
3.7462412737 3.7803704271 3.809500442 3.8346145692 3.4073543651 3.4813459737 3.5438565869 3.5969754326 3.6424295543 
3.6816134988 3.7156421835 3.7454049075 4.7123889804 4.8004512023 4.6243267584 4.9155579264 4.7123889804 4.5092200343 
5.0674903122 4.8353719722 4.5894059886 4.3572876485 5.2659633393 5.0120975802 4.7123889804 4.4126803806 4.1588146215 
5.5125918794 5.2659633393 4.9155579264 4.5092200343 4.1588146215 3.9121860814 5.7885595667 5.6029703303 5.2659633393 
4.7123889804 4.1588146215 3.8218076305 3.6362183941 6.0560271438 5.9702140275 5.7885595667 5.2659633393 4.1588146215 
3.6362183941 3.4545639333 3.368750817 0.22715816343 0.49462574053 0.3129712797 0.77059342779 0.68021497688 0.49462574053 
1.0172219679 1.0172219679 1.0172219679 1.0172219679 1.2156949949 1.271087727 1.3676273807 1.5707963268 2.1243706857 
1.3676273807 1.447813335 1.5707963268 1.7739652728 2.1243706857 2.6469669131 1.4827341049 1.5707963268 1.6937793186 
1.8705049266 2.1243706857 2.4613776767 2.8286213739 1.5707963268 1.6588585487 1.7739652728 1.9258976586 2.1243706857 
2.3709992258 2.6469669131 2.9144344902 1.7563855631 1.8785697967 1.8563003522 2.0024758186 1.9913306621 1.9779583789 
2.1243706857 2.1243706857 2.1243706857 2.1243706857 2.2408671392 2.2510113037 2.2630782103 2.2776669786 2.295651703 
2.3494282469 2.3680303173 2.3899057108 2.4159740166 2.4475202889 2.486385773 2.448570738 2.4736848652 2.5028148801 
2.5369440334 2.5773755784 2.6258554882 2.6847397011 2.5377803997 2.5675431237 2.6015718084 2.6407557529 2.6862098746 
2.7393287203 2.8018393335 2.8758309421 1.6743954455 1.6743954455 1.7840462375 1.6743954455 1.7840462375 1.8974821136 
1.6743954455 1.7840462375 1.8974821136 2.0119052671 1.6743954455 1.7840462375 1.8974821136 2.0119052671 2.1243706857 
1.6743954455 1.7840462375 1.8974821136 2.0119052671 2.1243706857 2.232221744 1.6743954455 1.7840462375 1.8974821136 
2.0119052671 2.1243706857 2.232221744 2.3334263672 1.6743954455 1.7840462375 1.8974821136 2.0119052671 2.1243706857 
2.232221744 2.3334263672 2.426721652 1.4671972081 1.3575464161 1.4671972081 1.24411054 1.3575464161 1.4671972081 
1.1296873865 1.24411054 1.3575464161 1.4671972081 1.0172219679 1.1296873865 1.24411054 1.3575464161 1.4671972081 
0.90937090954 1.0172219679 1.1296873865 1.24411054 1.3575464161 1.4671972081 0.80816628637 0.90937090954 1.0172219679 
1.1296873865 1.24411054 1.3575464161 1.4671972081 0.71487100155 0.80816628637 0.90937090954 1.0172219679 1.1296873865 
1.24411054 1.3575464161 1.4671972081 0.60381225391 0.57404952988 0.69302191562 0.54002084522 0.66790778838 0.79216440667 
0.50083690068 0.63877777351 0.77356233629 0.90072551443 0.45538277901 0.60464862014 0.75168694275 0.89058134991 1.0172219679 
0.40226393329 0.56421707518 0.72561863695 0.87851444325 1.0172219679 1.139116835 0.33975332011 0.51573716537 0.69407236469 
0.86392567495 1.0172219679 1.1502619915 1.2630228569 0.26576171152 0.45685295248 0.6552068806 0.84594095064 1.0172219679 
1.1636342747 1.2852923014 1.3852070904 0.22715816343 0.3129712797 0.49462574053 0.49462574053 0.68021497688 0.77059342779 
1.0172219679 1.0172219679 1.0172219679 1.0172219679 2.1243706857 1.5707963268 1.3676273807 1.271087727 1.2156949949 
2.6469669131 2.1243706857 1.7739652728 1.5707963268 1.447813335 1.3676273807 2.8286213739 2.4613776767 2.1243706857 
1.8705049266 1.6937793186 1.5707963268 1.4827341049 2.9144344902 2.6469669131 2.3709992258 2.1243706857 1.9258976586 
1.7739652728 1.6588585487 1.5707963268 1.7563855631 1.8563003522 1.8785697967 1.9779583789 1.9913306621 2.0024758186 
2.1243706857 2.1243706857 2.1243706857 2.1243706857 2.295651703 2.2776669786 2.2630782103 2.2510113037 2.2408671392 
2.486385773 2.4475202889 2.4159740166 2.3899057108 2.3680303173 2.3494282469 2.6847397011 2.6258554882 2.5773755784 
2.5369440334 2.5028148801 2.4736848652 2.448570738 2.8758309421 2.8018393335 2.7393287203 2.6862098746 2.6407557529 
2.6015718084 2.5675431237 2.5377803997 5.8604937156 5.901393709 5.9723133995 5.9473927383 6.0216547488 6.0927478736 
5.9992719463 6.0767621038 6.1501452836 6.2190157008 6.0578962336 6.1383094565 6.2134963469 0 0.064169606361 
6.1241815303 6.206940195 6.2831853072 0.069688960264 0.13304002361 0.19043743361 6.1990255847 0 0.07624511221 
0.14487585072 0.20642320337 0.26153055843 0.3108719077 0 0.084159722458 0.15900377685 0.22528907359 0.28391336087 
0.3357925689 0.38179159818 0.42269159155 5.8604937156 5.9723133995 5.901393709 6.0927478736 6.0216547488 5.9473927383 
6.2190157008 6.1501452836 6.0767621038 5.9992719463 0.064169606361 0 6.2134963469 6.1383094565 6.0578962336 
0.19043743361 0.13304002361 0.069688960264 6.2831853072 6.206940195 6.1241815303 0.3108719077 0.26153055843 0.20642320337 
0.14487585072 0.07624511221 6.2831853072 6.1990255847 0.42269159155 0.38179159818 0.3357925689 0.28391336087 0.22528907359 
0.15900377685 0.084159722458 0 5.6793730533 5.7091357773 5.5901633916 5.743164462 5.6152775188 5.4910209005 
5.7823484065 5.6444075337 5.5096229709 5.3824597928 5.8278025282 5.678536687 5.5314983644 5.3926039573 5.2659633393 
5.8809213739 5.718968232 5.5575666702 5.4046708639 5.2659633393 5.1440684722 5.9434319871 5.7674481418 5.5891129425 
5.4192596322 5.2659633393 5.1329233157 5.0201624502 6.0174235957 5.8263323547 5.6279784266 5.4372443565 5.2659633393 
5.1195510325 4.9978930058 4.8979782167 1.3852070904 1.2852923014 1.2630228569 1.1636342747 1.1502619915 1.139116835 
1.0172219679 1.0172219679 1.0172219679 1.0172219679 0.84594095064 0.86392567495 0.87851444325 0.89058134991 0.90072551443 
0.6552068806 0.69407236469 0.72561863695 0.75168694275 0.77356233629 0.79216440667 0.45685295248 0.51573716537 0.56421707518 
0.60464862014 0.63877777351 0.66790778838 0.69302191562 0.26576171152 0.33975332011 0.40226393329 0.45538277901 0.50083690068 
0.54002084522 0.57404952988 0.60381225391 
_paraPhiHalf 1 1002 double
0 3.1415926536 0 3.1415926536 1.5707963268 1.5707963268 1.5707963268 1.5707963268 2.5880182947 
0.5535743589 2.5880182947 0.5535743589 0 0 0 0 3.1415926536 3.1415926536 
3.1415926536 3.1415926536 3.1415926536 0.17788134 0.38438696014 0.60631181711 0.82323535693 1.0172219679 1.1799687454 
1.3118704726 1.4175000338 1.5022335207 0.17788134 0.38438696014 0.60631181711 0.82323535693 1.0172219679 1.1799687454 
1.3118704726 1.4175000338 1.5022335207 0.093902416448 0.17615329733 0.2478725152 0.31035131605 0.36486382811 0.41257334776 
0.45449736604 0.4915044461 0.52432611754 0.093902416448 0.17615329733 0.2478725152 0.31035131605 0.36486382811 0.41257334776 
0.45449736604 0.4915044461 0.52432611754 2.9637113136 2.7572056934 2.5352808365 2.3183572967 2.1243706857 1.9616239082 
1.829722181 1.7240926197 1.6393591329 2.9637113136 2.7572056934 2.5352808365 2.3183572967 2.1243706857 1.9616239082 
1.829722181 1.7240926197 1.6393591329 3.0476902371 2.9654393563 2.8937201384 2.8312413375 2.7767288255 2.7290193058 
2.6870952876 2.6500882075 2.617266536 3.0476902371 2.9654393563 2.8937201384 2.8312413375 2.7767288255 2.7290193058 
2.6870952876 2.6500882075 2.617266536 0 0 0 0 3.1415926536 3.1415926536 
3.1415926536 3.1415926536 3.1415926536 0.17788134 0.38438696014 0.60631181711 0.82323535693 1.0172219679 1.1799687454 
1.3118704726 1.4175000338 1.5022335207 0.17788134 0.38438696014 0.60631181711 0.82323535693 1.0172219679 1.1799687454 
1.3118704726 1.4175000338 1.5022335207 0.093902416448 0.17615329733 0.2478725152 0.31035131605 0.36486382811 0.41257334776 
0.45449736604 0.4915044461 0.52432611754 0.093902416448 0.17615329733 0.2478725152 0.31035131605 0.36486382811 0.41257334776 
0.45449736604 0.4915044461 0.52432611754 2.9637113136 2.7572056934 2.5352808365 2.3183572967 2.1243706857 1.9616239082 
1.829722181 1.7240926197 1.6393591329 2.9637113136 2.7572056934 2.5352808365 2.3183572967 2.1243706857 1.9616239082 
1.829722181 1.7240926197 1.6393591329 3.0476902371 2.9654393563 2.8937201384 2.8312413375 2.7767288255 2.7290193058 
2.6870952876 2.6500882075 2.617266536 3.0476902371 2.9654393563 2.8937201384 2.8312413375 2.7767288255 2.7290193058 
2.6870952876 2.6500882075 2.617266536 1.5707963268 1.5707963268 1.5707963268 1.5707963268 1.5707963268 1.5707963268 
1.5707963268 1.5707963268 1.5707963268 1.6743954455 1.7840462375 1.8974821136 2.0119052671 2.1243706857 2.232221744 
2.3334263672 2.426721652 2.5115728246 1.4671972081 1.3575464161 1.24411054 1.1296873865 1.0172219679 0.90937090954 
0.80816628637 0.71487100155 0.63001982895 1.6743954455 1.7840462375 1.8974821136 2.0119052671 2.1243706857 2.232221744 
2.3334263672 2.426721652 2.5115728246 1.4671972081 1.3575464161 1.24411054 1.1296873865 1.0172219679 0.90937090954 
0.80816628637 0.71487100155 0.63001982895 1.5707963268 1.5707963268 1.5707963268 1.5707963268 1.5707963268 1.5707963268 
1.5707963268 1.5707963268 1.5707963268 1.6743954455 1.7840462375 1.8974821136 2.0119052671 2.1243706857 2.232221744 
2.3334263672 2.426721652 2.5115728246 1.4671972081 1.3575464161 1.24411054 1.1296873865 1.0172219679 0.90937090954 
0.80816628637 0.71487100155 0.63001982895 1.6743954455 1.7840462375 1.8974821136 2.0119052671 2.1243706857 2.232221744 
2.3334263672 2.426721652 2.5115728246 1.4671972081 1.3575464161 1.24411054 1.1296873865 1.0172219679 0.90937090954 
0.80816628637 0.71487100155 0.63001982895 2.6824132222 2.7864913217 2.8992382033 3.0186096618 3.1415926536 3.0186096618 
2.8992382033 2.7864913217 2.6824132222 0.45917943135 0.35510133185 0.2423544503 0.12298299178 0 0.12298299178 
0.2423544503 0.35510133185 0.45917943135 0.22715816343 0.49462574053 0.3129712797 0.77059342779 0.68021497688 0.49462574053 
1.0172219679 1.0172219679 1.0172219679 1.0172219679 1.2156949949 1.271087727 1.3676273807 1.5707963268 2.1243706857 
1.3676273807 1.447813335 1.5707963268 1.7739652728 2.1243706857 2.6469669131 1.4827341049 1.5707963268 1.6937793186 
1.8705049266 2.1243706857 2.4613776767 2.8286213739 1.5707963268 1.6588585487 1.7739652728 1.9258976586 2.1243706857 
2.3709992258 2.6469669131 2.9144344902 0.26576171152 0.33975332011 0.45685295248 0.40226393329 0.51573716537 0.6552068806 
0.45538277901 0.56421707518 0.69407236469 0.84594095064 0.50083690068 0.60464862014 0.72561863695 0.86392567495 1.0172219679 
0.54002084522 0.63877777351 0.75168694275 0.87851444325 1.0172219679 1.1636342747 0.57404952988 0.66790778838 0.77356233629 
0.89058134991 1.0172219679 1.1502619915 1.2852923014 0.60381225391 0.69302191562 0.79216440667 0.90072551443 1.0172219679 
1.139116835 1.2630228569 1.3852070904 0.71487100155 0.80816628637 0.80816628637 0.90937090954 0.90937090954 0.90937090954 
1.0172219679 1.0172219679 1.0172219679 1.0172219679 1.1296873865 1.1296873865 1.1296873865 1.1296873865 1.1296873865 
1.24411054 1.24411054 1.24411054 1.24411054 1.24411054 1.24411054 1.3575464161 1.3575464161 1.3575464161 
1.3575464161 1.3575464161 1.3575464161 1.3575464161 1.4671972081 1.4671972081 1.4671972081 1.4671972081 1.4671972081 
1.4671972081 1.4671972081 1.4671972081 1.6743954455 1.6743954455 1.7840462375 1.6743954455 1.7840462375 1.8974821136 
1.6743954455 1.7840462375 1.8974821136 2.0119052671 1.6743954455 1.7840462375 1.8974821136 2.0119052671 2.1243706857 
1.6743954455 1.7840462375 1.8974821136 2.0119052671 2.1243706857 2.232221744 1.6743954455 1.7840462375 1.8974821136 
2.0119052671 2.1243706857 2.232221744 2.3334263672 1.6743954455 1.7840462375 1.8974821136 2.0119052671 2.1243706857 
2.232221744 2.3334263672 2.426721652 1.7563855631 1.8785697967 1.8563003522 2.0024758186 1.9913306621 1.9779583789 
2.1243706857 2.1243706857 2.1243706857 2.1243706857 2.2408671392 2.2510113037 2.2630782103 2.2776669786 2.295651703 
2.3494282469 2.3680303173 2.3899057108 2.4159740166 2.4475202889 2.486385773 2.448570738 2.4736848652 2.5028148801 
2.5369440334 2.5773755784 2.6258554882 2.6847397011 2.5377803997 2.5675431237 2.6015718084 2.6407557529 2.6862098746 
2.7393287203 2.8018393335 2.8758309421 2.718901062 2.8307207459 2.7598010554 2.95115522 2.8800620952 2.8058000847 
3.0774230472 3.00855263 2.9351694502 2.8576792927 3.0774230472 3.1415926536 3.0719036933 2.9967168029 2.91630358 
2.95115522 3.00855263 3.0719036933 3.1415926536 3.0653475414 2.9825888767 2.8307207459 2.8800620952 2.9351694502 
2.9967168029 3.0653475414 3.1415926536 3.0574329311 2.718901062 2.7598010554 2.8058000847 2.8576792927 2.91630358 
2.9825888767 3.0574329311 3.1415926536 2.718901062 2.7598010554 2.8307207459 2.8058000847 2.8800620952 2.95115522 
2.8576792927 2.9351694502 3.00855263 3.0774230472 2.91630358 2.9967168029 3.0719036933 3.1415926536 3.0774230472 
2.9825888767 3.0653475414 3.1415926536 3.0719036933 3.00855263 2.95115522 3.0574329311 3.1415926536 3.0653475414 