# vtk DataFile Version 5.1
vtk output
ASCII
DATASET POLYDATA
POINTS 100 float
7.0367 31.8607 15.9988 7.04504 31.8693 15.9897 7.06805 31.895 15.9688 
7.10535 31.937 15.9358 7.15646 31.9937 15.89 7.22079 32.0632 15.8308 
7.29779 32.1435 15.7575 7.387 32.2324 15.6696 7.48809 32.328 15.5672 
7.60092 32.4288 15.4509 7.72549 32.5337 15.3217 7.86185 32.642 15.1816 
8.01001 32.7539 15.0332 8.1698 32.8696 14.8795 8.34077 32.9902 14.7239 
8.52202 33.1168 14.5703 8.71218 33.2506 14.4221 8.90935 33.3929 14.2826 
9.1112 33.5444 14.1546 9.31504 33.706 14.04 9.51803 33.8777 13.9399 
9.71737 34.0594 13.8544 9.91054 34.2503 13.7828 10.0955 34.4495 13.7232 
10.271 34.6557 13.6733 10.4363 34.8673 13.6303 10.5918 35.0828 13.5909 
10.7386 35.3009 13.5521 10.8783 35.5204 13.511 11.013 35.7401 13.4652 
11.1453 35.9594 13.4131 11.2772 36.1778 13.3534 11.4109 36.3952 13.2859 
11.5478 36.6114 13.211 11.6889 36.8266 13.1295 11.8342 37.0409 13.0427 
11.9836 37.2543 12.952 12.1359 37.467 12.8587 12.29 37.679 12.764 
12.4445 37.89 12.6687 12.5982 38.0999 12.5731 12.75 38.3086 12.4771 
12.8995 38.5159 12.3801 13.0468 38.7218 12.2811 13.1922 38.9263 12.1789 
13.3369 39.1299 12.0723 13.4821 39.333 11.9602 13.6291 39.5364 11.8419 
13.7793 39.7408 11.7169 13.9337 39.9474 11.5854 14.0929 40.157 11.4483 
14.2571 40.3707 11.3067 14.4259 40.5892 11.1624 14.5983 40.813 11.0174 
14.7734 41.0425 10.8738 14.9498 41.2776 10.7337 15.1262 41.518 10.5991 
15.3017 41.7629 10.4712 15.4755 42.0114 10.3511 15.6475 42.2623 10.239 
15.8178 42.5142 10.1348 15.987 42.7659 10.0376 16.1559 43.0159 9.94625 
16.3254 43.2632 9.8592 16.4962 43.5068 9.77489 16.6688 43.7459 9.69183 
16.8428 43.9802 9.60875 17.0176 44.2096 9.52482 17.1917 44.4341 9.43964 
17.3631 44.6543 9.35339 17.5293 44.8708 9.26671 17.6878 45.0844 9.18071 
17.836 45.2959 9.0968 17.9716 45.506 9.01655 18.0932 45.7157 8.94153 
18.1999 45.9255 8.87315 18.292 46.1356 8.81246 18.3708 46.3464 8.76009 
18.4383 46.5576 8.71613 18.4976 46.7688 8.6801 18.5522 46.9793 8.65104 
18.6058 47.188 8.62748 18.6622 47.3939 8.60766 18.7246 47.5954 8.58961 
18.7958 47.7913 8.57137 18.8774 47.9798 8.5511 18.9702 48.1597 8.5273 
19.0738 48.3294 8.49889 19.1871 48.4879 8.46533 19.3076 48.6339 8.42667 
19.4324 48.7669 8.38354 19.558 48.886 8.33713 19.6806 48.9911 8.28909 
19.7964 49.082 8.24141 19.9015 49.1586 8.19627 19.9926 49.2212 8.15589 
20.0667 49.2698 8.12235 20.1215 49.3047 8.09747 20.1551 49.3261 8.08261 
20.1665 49.3341 8.07866 
LINES 2 100
OFFSETS vtktypeint64
0 100 
CONNECTIVITY vtktypeint64
0 1 2 3 4 5 6 7 8 
9 10 11 12 13 14 15 16 17 
18 19 20 21 22 23 24 25 26 
27 28 29 30 31 32 33 34 35 
36 37 38 39 40 41 42 43 44 
45 46 47 48 49 50 51 52 53 
54 55 56 57 58 59 60 61 62 
63 64 65 66 67 68 69 70 71 
72 73 74 75 76 77 78 79 80 
81 82 83 84 85 86 87 88 89 
90 91 92 93 94 95 96 97 98 
99 
POINT_DATA 100
FIELD FieldData 3
_theta 1 100 double
0 0.031733259127 0.063466518254 0.095199777382 0.12693303651 0.15866629564 0.19039955476 0.22213281389 0.25386607302 
0.28559933214 0.31733259127 0.3490658504 0.38079910953 0.41253236865 0.44426562778 0.47599888691 0.50773214603 0.53946540516 
0.57119866429 0.60293192342 0.63466518254 0.66639844167 0.6981317008 0.72986495992 0.76159821905 0.79333147818 0.82506473731 
0.85679799643 0.88853125556 0.92026451469 0.95199777382 0.98373103294 1.0154642921 1.0471975512 1.0789308103 1.1106640695 
1.1423973286 1.1741305877 1.2058638468 1.237597106 1.2693303651 1.3010636242 1.3327968833 1.3645301425 1.3962634016 
1.4279966607 1.4597299198 1.491463179 1.5231964381 1.5549296972 1.5866629564 1.6183962155 1.6501294746 1.6818627337 
1.7135959929 1.745329252 1.7770625111 1.8087957702 1.8405290294 1.8722622885 1.9039955476 1.9357288068 1.9674620659 
1.999195325 2.0309285841 2.0626618433 2.0943951024 2.1261283615 2.1578616206 2.1895948798 2.2213281389 2.253061398 
2.2847946572 2.3165279163 2.3482611754 2.3799944345 2.4117276937 2.4434609528 2.4751942119 2.506927471 2.5386607302 
2.5703939893 2.6021272484 2.6338605076 2.6655937667 2.6973270258 2.7290602849 2.7607935441 2.7925268032 2.8242600623 
2.8559933214 2.8877265806 2.9194598397 2.9511930988 2.982926358 3.0146596171 3.0463928762 3.0781261353 3.1098593945 
3.1415926536 
_radius 1 100 double
3.8968670013e-14 0.33467293455 0.66463025736 0.98561268925 1.2939784304 1.5869407402 1.8627404502 2.1207389207 2.3614198356 
2.5862931941 2.7977046351 2.9985678474 3.1920526755 3.3812696393 3.5689888918 3.7574203235 3.9480679242 4.141660845 
4.3381567424 4.5368076074 4.7362726001 4.934757736 5.1301622823 5.3202184599 5.5026217733 5.6751574203 5.835828418 
5.9829833667 6.1154314861 6.2325262933 6.3342008183 6.4209458589 6.4937342302 6.5539031119 6.6030102488 6.6426783191 
6.6744385728 6.6995834886 6.7190399672 6.7332775676 6.7422668768 6.7454986328 6.7420649666 6.7307932603 6.7104146793 
6.6797460712 6.6378656124 6.5842672269 6.5189836749 6.4426715452 6.3566528323 6.2629077985 6.164012993 6.0630176231 
5.963253319 5.8680800999 5.7805867074 5.7032825313 5.637831454 5.5848754601 5.5439765167 5.5136778343 5.4916621298 
5.4749721885 5.4602587679 5.4440293803 5.4228830652 5.393724527 5.3539518545 5.3016063711 5.2354667699 5.1550696221 
5.0606483024 4.9530001449 4.8333100687 4.7029692845 4.5634240063 4.4160715441 4.2621974955 4.1029302502 3.9391876679 
3.7716065944 3.600469749 3.4256627507 3.2466964087 3.0628139634 2.8731756419 2.6770837049 2.4741909343 2.2646332421 
2.0490461724 1.8284601489 1.6041076569 1.3772026725 1.1487583545 0.91949103356 0.68982352009 0.45996271576 0.23000204816 
1.0135547287e-13 
_area 1 100 double
0 0.34550875741 1.3628674738 2.9976195464 5.1685536603 7.7799546973 10.734893961 13.946638164 17.345992731 
20.883832607 24.529410299 28.265862935 32.08494475 35.983400993 39.962919342 44.033896737 48.221054895 52.567382531 
57.132546672 61.982594286 67.16955123 72.704639962 78.537744371 84.556667353 90.605507642 96.510937766 102.10750863 
107.25747472 111.86258506 115.86699158 119.25269882 122.03098931 124.23404732 125.91005256 127.12232566 127.94962873 
128.48501044 128.8325122 129.07314032 129.2363055 129.31506082 129.26831881 129.0323982 128.53422192 127.70352756 
126.48313855 124.83319483 122.73725029 120.21011515 117.29785805 114.07558832 110.73766553 107.32353575 103.86472263 
100.4442443 97.149130595 94.067741484 91.291595233 88.909984088 86.993152599 85.567498979 84.596180449 83.980001127 
83.578870668 83.240236808 82.822930045 82.212931847 81.330754164 80.130666196 78.593874694 76.719694471 74.518067342 
72.004369915 69.196496549 66.114779484 62.78498916 59.243337867 55.541100393 51.745267426 47.932563232 44.177489001 
40.538148994 37.045601136 33.701942822 30.48747726 27.372633955 24.330279664 21.345587235 18.42153275 15.579411286 
12.855355933 10.294681533 7.9456931287 5.8539105914 4.0571325251 2.5817242815 1.440813074 0.63526067538 0.15787295961 
2.2737367544e-13 
