# vtk DataFile Version 5.1
vtk output
ASCII
DATASET POLYDATA
POINTS 1002 float
13.6134 28.5962 9.72503 20.678 36.7608 6.97032 12.6091 32.7615 17.6055 
21.5441 39.3766 13.7338 12.7732 37.4871 7.21243 12.4377 39.0118 12.7552 
22.2096 28.7242 11.0447 22.2542 31.6634 17.3361 20.1094 44.2371 7.71754 
7.10779 30.2171 14.2031 27.2388 39.088 11.4894 13.356 24.8323 16.5625 
14.2755 28.9647 9.10454 14.925 29.3132 8.41724 15.5785 29.9101 7.94125 
16.3163 30.9156 7.80939 17.1439 32.1002 7.79837 17.9427 33.1416 7.63657 
18.6408 34.062 7.36489 19.3016 35.023 7.15861 19.9907 35.9745 7.04796 
13.3886 29.2316 9.53466 13.1655 29.9439 9.33714 13.0171 30.7693 9.15492 
12.9834 31.715 8.95802 12.9565 32.7475 8.682 12.8257 33.8014 8.31892 
12.6746 34.8129 7.944 12.6378 35.7618 7.6298 12.7013 36.6561 7.39047 
14.2837 28.2447 9.59581 15.0451 27.94 9.54272 15.9626 27.7675 9.59157 
17.124 27.6978 9.67492 18.4151 27.6007 9.70028 19.5316 27.4981 9.74571 
20.3371 27.6001 9.98861 20.9759 27.966 10.4065 21.6001 28.4005 10.7965 
12.8047 28.4866 10.1445 12.0358 28.2388 10.597 11.3775 27.9868 11.1746 
10.7225 27.9838 11.8891 9.91327 28.2495 12.5559 9.03733 28.5093 12.9979 
8.32215 28.665 13.2781 7.80754 28.9476 13.5566 7.40468 29.5064 13.8784 
13.3242 27.8548 10.0901 13.0571 26.97 10.3047 12.9095 26.155 10.575 
12.9188 25.6242 11.2503 13.0294 25.4088 12.3308 13.1336 25.3935 13.4048 
13.155 25.4062 14.2443 13.1298 25.2865 15.0072 13.1739 25.036 15.8161 
19.8923 36.9435 6.87385 19.0359 37.1007 6.77776 18.2209 37.1665 6.56459 
17.3856 37.1525 6.2157 16.407 37.1945 5.89472 15.3721 37.3651 5.80969 
14.4946 37.5385 6.0082 13.8287 37.586 6.37887 13.2794 37.5403 6.7989 
21.0017 36.1015 7.11372 21.3791 35.31 7.24916 21.7076 34.4266 7.53713 
21.8306 33.5558 8.07845 21.7662 32.7394 8.75005 21.7355 31.8819 9.35482 
21.8515 30.942 9.85007 22.0103 30.0496 10.2853 22.1211 29.3186 10.6793 
20.9489 37.5136 6.73436 21.2024 38.2289 6.43222 21.2499 39.0895 6.32238 
21.1134 40.2571 6.41752 21.0856 41.5434 6.26176 21.2696 42.5793 5.67324 
21.3485 43.2911 5.28958 21.066 43.8186 5.70722 20.5611 44.1625 6.70902 
21.4559 37.0607 7.10009 22.0266 37.3781 7.42584 22.5182 37.7515 7.83374 
23.2739 38.1499 8.20505 24.2964 38.4889 8.61792 25.134 38.7436 9.19866 
25.6025 38.9552 9.87727 26.0194 39.1163 10.5012 26.609 39.1657 11.0255 
13.0994 33.0125 17.1106 13.6864 33.3183 16.5346 14.5089 33.967 16.0712 
15.5588 34.9672 15.8029 16.6616 35.9243 15.5302 17.7268 36.5713 15.043 
18.8146 37.1282 14.4801 19.8976 37.8537 14.1052 20.8299 38.6696 13.9171 
12.2622 33.3926 17.5055 11.9955 34.1238 17.3419 11.7914 34.8875 17.1223 
11.6504 35.6288 16.8098 11.6 36.291 16.2662 11.65 36.7954 15.4607 
11.7724 37.1869 14.6118 11.9462 37.6624 13.9157 12.1728 38.3124 13.3353 
13.3766 32.429 17.4775 14.3401 32.2116 17.4973 15.4818 32.0494 17.5706 
16.6279 31.8349 17.3904 17.6014 31.6058 16.8248 18.4576 31.5133 16.2658 
19.3909 31.5653 16.2231 20.4384 31.6286 16.6763 21.4453 31.6448 17.1673 
11.7921 32.7639 17.9651 10.7933 32.5958 18.1887 9.77458 32.161 18.0863 
8.99366 31.5124 17.6925 8.43599 30.9032 17.2589 7.82878 30.59 16.839 
7.16171 30.5522 16.2288 6.75143 30.5463 15.4228 6.77303 30.4173 14.6872 
12.5653 32.1081 17.833 12.5222 31.1715 17.9059 12.4413 30.0146 17.9184 
12.3564 28.8602 17.9906 12.3481 27.8115 18.0784 12.4185 26.7821 18.0645 
12.5141 25.8262 17.9421 12.6639 25.1727 17.6995 12.9445 24.8922 17.2441 
20.8087 39.4974 13.686 19.9293 39.5499 13.5284 18.9597 39.505 13.3226 
17.9822 39.3604 13.1509 17.0262 39.1469 12.9482 16.0749 38.9464 12.6586 
15.1253 38.8588 12.4495 14.1858 38.9 12.4786 13.2732 38.9825 12.6462 
21.822 38.7446 13.8072 22.1229 37.9367 13.798 22.4548 37.0904 13.8834 
22.6796 36.3358 14.2043 22.5966 35.66 14.7491 22.2794 34.9287 15.4606 
22.0697 34.0732 16.277 22.1151 33.1804 17.0008 22.238 32.369 17.377 
21.7351 40.0077 13.3754 21.8829 40.542 12.8156 21.9429 41.1599 12.2694 
21.8669 41.94 11.8608 21.7044 42.6816 11.4181 21.5399 43.1936 10.8048 
21.3197 43.5433 10.1496 20.9462 43.8461 9.49769 20.4869 44.0926 8.69635 
22.3387 39.6814 13.5861 23.181 39.993 13.4788 24.1583 40.2888 13.5342 
25.2684 40.5264 13.7334 26.3631 40.6056 13.7846 27.2735 40.4382 13.419 
27.8658 40.0945 12.7653 28.0196 39.7346 12.1644 27.745 39.415 11.7644 
12.484 37.9658 7.42622 12.2188 38.4233 7.75394 12.1109 38.7401 8.20072 
12.1886 38.8767 8.78647 12.2653 38.9801 9.49307 12.1679 39.2056 10.2415 
11.9972 39.4697 10.9802 11.97 39.5533 11.692 12.1467 39.3707 12.3115 
13.1322 38.356 6.74949 13.4874 39.2907 6.16384 13.9079 40.1658 5.63306 
14.5441 40.909 5.48136 15.4731 41.6938 5.78445 16.5522 42.6868 6.19193 
17.5543 43.6433 6.4098 18.4237 44.1858 6.59291 19.2578 44.2999 7.02471 
12.2066 36.9299 7.73085 11.5827 36.2918 8.39978 11.0065 35.5564 9.32754 
10.5971 34.7931 10.4143 10.3033 34.0498 11.4923 9.89014 33.2325 12.5122 
9.21731 32.2902 13.3603 8.40434 31.3847 13.8441 7.66394 30.6943 14.0245 
13.2383 39.6577 12.0669 14.1018 40.1293 11.2449 14.9918 40.4059 10.4081 
15.9205 40.7403 9.74832 16.842 41.363 9.30475 17.5809 42.191 8.96123 
18.076 43.0014 8.66023 18.5525 43.6597 8.39456 19.2416 44.087 8.09648 
11.4726 38.5492 13.1505 10.4825 38.0962 13.5323 9.53153 37.7001 13.9233 
8.77422 37.1392 14.2676 8.35026 36.1331 14.4555 8.14813 34.7918 14.4882 
7.89682 33.4782 14.4701 7.53795 32.321 14.4343 7.24021 31.2383 14.3436 
22.6188 28.5272 11.439 22.9762 28.3331 12.0449 23.2312 28.2354 12.9057 
23.3276 28.3683 13.8086 23.2242 28.8233 14.4955 23.0028 29.5319 15.0446 
22.8311 30.269 15.7061 22.7344 30.8507 16.4548 22.5732 31.2806 17.0442 
22.7894 29.3112 10.9491 23.4334 30.0309 10.8098 23.9553 31.1777 10.8206 
24.2288 32.7616 11.0705 24.4532 34.3421 11.3592 24.9464 35.5664 11.4669 
25.6858 36.5447 11.456 26.3842 37.473 11.4718 26.8878 38.341 11.5044 
21.9729 27.9304 11.284 21.7053 26.9899 11.5412 21.177 26.1307 11.9255 
20.2608 25.6691 12.5149 19.1543 25.5605 13.2152 18.0949 25.4073 13.8747 
17.0101 25.065 14.5045 15.7632 24.7801 15.1951 14.4708 24.7275 15.919 
22.9377 32.1266 17.1506 23.6132 32.6408 16.4199 24.4037 33.2979 15.5006 
25.3112 34.1948 14.8299 26.1553 35.2772 14.4257 26.8039 36.3199 13.9794 
27.2766 37.1659 13.3474 27.5495 37.8615 12.6457 27.5308 38.4997 12.013 
21.6831 30.8956 16.9228 20.9236 29.9893 16.3048 20.0326 28.9852 15.9663 
19.1166 27.9444 16.1405 18.2806 26.9931 16.5732 17.5141 26.2394 16.9166 
16.6406 25.6301 17.0674 15.5404 25.1095 17.0384 14.3586 24.8006 16.8485 
21.2285 44.1638 8.02028 22.3536 44.0305 8.41122 23.4758 43.794 8.6702 
24.6887 43.3907 8.71181 25.8747 42.86 8.82188 26.6681 42.273 9.30371 
26.9579 41.5874 10.0287 27.036 40.7655 10.6756 27.1413 39.8967 11.1389 
6.80465 29.3433 14.3772 6.46162 28.3946 14.8034 6.07976 27.368 15.3593 
6.03773 26.4463 15.7835 6.85596 25.9464 16.042 8.44552 25.8871 16.3257 
10.0789 25.8639 16.6372 11.2997 25.5771 16.7858 12.2911 25.1473 16.7217 
14.0037 29.592 8.84761 13.7072 30.3747 8.67181 14.6075 30.0321 8.20744 
13.52 31.3432 8.52029 14.2743 31.0079 8.08293 15.2863 30.8489 7.79119 
13.4776 32.44 8.28115 14.0837 32.1411 7.8589 15.0203 31.9814 7.54813 
16.1468 31.9927 7.5479 13.4185 33.5686 7.94829 14.0167 33.2713 7.49938 
14.8753 33.0648 7.09394 16.0083 33.0328 7.03624 17.075 33.0879 7.33457 
13.2704 34.6576 7.61951 13.9114 34.3631 7.18285 14.7679 34.0547 6.67038 
15.8921 33.9271 6.45753 16.9818 33.9705 6.74404 17.8391 34.036 7.1789 
13.1756 35.682 7.33501 13.7881 35.464 6.96695 14.6174 35.1297 6.47579 
15.7232 34.8898 6.14443 16.8399 34.8816 6.30519 17.7044 34.9833 6.78592 
18.4512 35.0379 7.12049 13.2093 36.646 7.06228 13.7717 36.5634 6.71594 
14.5111 36.344 6.32104 15.5218 36.085 6.02822 16.6336 35.9845 6.09128 
17.5595 36.053 6.49106 18.3134 36.1164 6.88683 19.1136 36.0791 7.04525 
12.6225 29.2182 10.0469 11.9535 29.0781 10.6174 12.4991 30.0527 9.8882 
11.3877 28.9795 11.2949 11.9159 30.0862 10.521 12.4504 30.9848 9.69355 
10.758 29.1016 11.9991 11.3533 30.1751 11.2263 11.8597 31.1747 10.3393 
12.4184 31.9805 9.4616 9.96348 29.3268 12.5664 10.7053 30.3671 11.8891 
11.244 31.4 11.048 11.7476 32.2368 10.0987 12.3062 33.0043 9.13577 
9.16235 29.4623 12.989 9.99409 30.528 12.4591 10.6669 31.6359 11.7182 
11.1534 32.5146 10.8115 11.6172 33.247 9.73964 12.1496 34.0296 8.70704 
8.52391 29.6333 13.3735 9.3489 30.6489 13.0022 10.1516 31.8143 12.3412 
10.7339 32.7869 11.4793 11.1209 33.5239 10.4219 11.5409 34.2554 9.25323 
12.0781 35.0393 8.27596 8.03793 30.0573 13.7335 8.82564 30.9133 13.4959 
9.66954 31.9977 12.9175 10.3459 33.0141 12.0496 10.7506 33.8086 11.0246 
11.0739 34.5293 9.87239 11.5346 35.2891 8.76613 12.119 36.0173 7.94473 
7.88519 31.8254 14.1258 8.2113 33.0089 14.045 8.67895 32.5866 13.7416 
8.45963 34.2583 13.8405 8.87058 33.8045 13.3681 9.36064 33.4552 12.9625 
8.56861 35.6086 13.6547 8.87429 35.0768 12.9504 9.25036 34.6191 12.3787 
9.75838 34.2889 11.9107 8.79421 36.8325 13.4727 8.94421 36.3613 12.6749 
9.13316 35.8274 11.9274 9.47913 35.3895 11.2961 10.0336 35.0763 10.817 
9.38052 37.6694 13.198 9.42781 37.4072 12.4327 9.51025 36.9435 11.6523 
9.62403 36.4897 10.8821 9.9497 36.1736 10.2311 10.481 35.8949 9.73916 
10.2478 38.2497 12.8805 10.2605 38.1728 12.1387 10.397 37.8314 11.3778 
10.4631 37.4304 10.5889 10.5083 37.1787 9.83113 10.7366 36.996 9.2195 
11.1487 36.6996 8.76124 11.1989 38.8222 12.599 11.1431 38.878 11.8878 
11.308 38.6436 11.1252 11.4858 38.2825 10.3503 11.4901 38.054 9.5805 
11.4386 37.9583 8.9057 11.5589 37.7691 8.39041 11.8616 37.3908 8.00873 
12.8359 38.8809 7.02515 12.6214 39.3779 7.46474 13.1946 39.8412 6.56111 
12.599 39.7399 8.05737 13.0364 40.3958 7.18955 13.6973 40.7286 6.19354 
12.6831 39.9251 8.78043 13.0422 40.833 7.99067 13.6587 41.3349 7.01318 
14.5094 41.5081 6.15821 12.6864 40.028 9.55215 13.0928 41.0035 8.85021 
13.7435 41.7485 7.9642 14.6497 42.095 7.04413 15.5714 42.3313 6.45678 
12.6297 40.1311 10.279 13.1618 40.9075 9.60896 13.8932 41.6864 8.84209 
14.8913 42.2836 7.97401 15.8225 42.7376 7.27345 16.6098 43.2115 6.83484 
12.6947 40.1619 10.9488 13.3713 40.6899 10.21 14.173 41.2324 9.48469 
[...]
POINT_DATA 1002
FIELD FieldData 4
_paraPhi 1 1002 double
6.2831853072 3.1415926536 6.2831853072 3.1415926536 4.7123889804 4.7123889804 1.5707963268 1.5707963268 3.6951670125 
5.7296109483 2.5880182947 0.5535743589 6.2831853072 6.2831853072 6.2831853072 6.2831853072 3.1415926536 3.1415926536 
3.1415926536 3.1415926536 3.1415926536 6.1053039672 5.898798347 5.6768734901 5.4599499503 5.2659633393 5.1032165617 
4.9713148346 4.8656852733 4.7809517865 0.17788134 0.38438696014 0.60631181711 0.82323535693 1.0172219679 1.1799687454 
1.3118704726 1.4175000338 1.5022335207 6.1892828907 6.1070320098 6.035312792 5.9728339911 5.9183214791 5.8706119594 
5.8286879411 5.7916808611 5.7588591896 0.093902416448 0.17615329733 0.2478725152 0.31035131605 0.36486382811 0.41257334776 
0.45449736604 0.4915044461 0.52432611754 3.3194739936 3.5259796137 3.7479044707 3.9648280105 4.1588146215 4.321561399 
4.4534631262 4.5590926874 4.6438261743 2.9637113136 2.7572056934 2.5352808365 2.3183572967 2.1243706857 1.9616239082 
1.829722181 1.7240926197 1.6393591329 3.23549507 3.3177459509 3.3894651688 3.4519439696 3.5064564817 3.5541660013 
3.5960900196 3.6330970997 3.6659187711 3.0476902371 2.9654393563 2.8937201384 2.8312413375 2.7767288255 2.7290193058 
2.6870952876 2.6500882075 2.617266536 6.2831853072 6.2831853072 6.2831853072 6.2831853072 3.1415926536 3.1415926536 
3.1415926536 3.1415926536 3.1415926536 6.1053039672 5.898798347 5.6768734901 5.4599499503 5.2659633393 5.1032165617 
4.9713148346 4.8656852733 4.7809517865 0.17788134 0.38438696014 0.60631181711 0.82323535693 1.0172219679 1.1799687454 
1.3118704726 1.4175000338 1.5022335207 6.1892828907 6.1070320098 6.035312792 5.9728339911 5.9183214791 5.8706119594 
5.8286879411 5.7916808611 5.7588591896 0.093902416448 0.17615329733 0.2478725152 0.31035131605 0.36486382811 0.41257334776 
0.45449736604 0.4915044461 0.52432611754 3.3194739936 3.5259796137 3.7479044707 3.9648280105 4.1588146215 4.321561399 
4.4534631262 4.5590926874 4.6438261743 2.9637113136 2.7572056934 2.5352808365 2.3183572967 2.1243706857 1.9616239082 
1.829722181 1.7240926197 1.6393591329 3.23549507 3.3177459509 3.3894651688 3.4519439696 3.5064564817 3.5541660013 
3.5960900196 3.6330970997 3.6659187711 3.0476902371 2.9654393563 2.8937201384 2.8312413375 2.7767288255 2.7290193058 
2.6870952876 2.6500882075 2.617266536 4.7123889804 4.7123889804 4.7123889804 4.7123889804 4.7123889804 4.7123889804 
4.7123889804 4.7123889804 4.7123889804 4.6087898617 4.4991390697 4.3857031936 4.2712800401 4.1588146215 4.0509635631 
3.94975894 3.8564636551 3.7716124825 4.8159880991 4.9256388911 5.0390747672 5.1534979207 5.2659633393 5.3738143976 
5.4750190208 5.5683143056 5.6531654782 4.6087898617 4.4991390697 4.3857031936 4.2712800401 4.1588146215 4.0509635631 
3.94975894 3.8564636551 3.7716124825 4.8159880991 4.9256388911 5.0390747672 5.1534979207 5.2659633393 5.3738143976 
5.4750190208 5.5683143056 5.6531654782 1.5707963268 1.5707963268 1.5707963268 1.5707963268 1.5707963268 1.5707963268 
1.5707963268 1.5707963268 1.5707963268 1.6743954455 1.7840462375 1.8974821136 2.0119052671 2.1243706857 2.232221744 
2.3334263672 2.426721652 2.5115728246 1.4671972081 1.3575464161 1.24411054 1.1296873865 1.0172219679 0.90937090954 
0.80816628637 0.71487100155 0.63001982895 1.6743954455 1.7840462375 1.8974821136 2.0119052671 2.1243706857 2.232221744 
2.3334263672 2.426721652 2.5115728246 1.4671972081 1.3575464161 1.24411054 1.1296873865 1.0172219679 0.90937090954 
0.80816628637 0.71487100155 0.63001982895 3.6007720849 3.4966939854 3.3839471039 3.2645756454 3.1415926536 3.0186096618 
2.8992382033 2.7864913217 2.6824132222 5.8240058758 5.9280839753 6.0408308569 6.1602023154 6.2831853072 0.12298299178 
0.2423544503 0.35510133185 0.45917943135 6.0560271438 5.7885595667 5.9702140275 5.5125918794 5.6029703303 5.7885595667 
5.2659633393 5.2659633393 5.2659633393 5.2659633393 5.0674903122 5.0120975802 4.9155579264 4.7123889804 4.1588146215 
4.9155579264 4.8353719722 4.7123889804 4.5092200343 4.1588146215 3.6362183941 4.8004512023 4.7123889804 4.5894059886 
4.4126803806 4.1588146215 3.8218076305 3.4545639333 4.7123889804 4.6243267584 4.5092200343 4.3572876485 4.1588146215 
3.9121860814 3.6362183941 3.368750817 6.0174235957 5.9434319871 5.8263323547 5.8809213739 5.7674481418 5.6279784266 
5.8278025282 5.718968232 5.5891129425 5.4372443565 5.7823484065 5.678536687 5.5575666702 5.4192596322 5.2659633393 
5.743164462 5.6444075337 5.5314983644 5.4046708639 5.2659633393 5.1195510325 5.7091357773 5.6152775188 5.5096229709 
5.3926039573 5.2659633393 5.1329233157 4.9978930058 5.6793730533 5.5901633916 5.4910209005 5.3824597928 5.2659633393 
5.1440684722 5.0201624502 4.8979782167 5.5683143056 5.4750190208 5.4750190208 5.3738143976 5.3738143976 5.3738143976 
5.2659633393 5.2659633393 5.2659633393 5.2659633393 5.1534979207 5.1534979207 5.1534979207 5.1534979207 5.1534979207 
5.0390747672 5.0390747672 5.0390747672 5.0390747672 5.0390747672 5.0390747672 4.9256388911 4.9256388911 4.9256388911 
4.9256388911 4.9256388911 4.9256388911 4.9256388911 4.8159880991 4.8159880991 4.8159880991 4.8159880991 4.8159880991 
4.8159880991 4.8159880991 4.8159880991 4.6087898617 4.6087898617 4.4991390697 4.6087898617 4.4991390697 4.3857031936 
4.6087898617 4.4991390697 4.3857031936 4.2712800401 4.6087898617 4.4991390697 4.3857031936 4.2712800401 4.1588146215 
4.6087898617 4.4991390697 4.3857031936 4.2712800401 4.1588146215 4.0509635631 4.6087898617 4.4991390697 4.3857031936 
4.2712800401 4.1588146215 4.0509635631 3.94975894 4.6087898617 4.4991390697 4.3857031936 4.2712800401 4.1588146215 
4.0509635631 3.94975894 3.8564636551 4.526799744 4.4046155105 4.426884955 4.2807094886 4.2918546451 4.3052269283 
4.1588146215 4.1588146215 4.1588146215 4.1588146215 4.042318168 4.0321740035 4.0201070968 4.0055183285 3.9875336042 
3.9337570603 3.9151549899 3.8932795963 3.8672112905 3.8356650183 3.7967995342 3.8346145692 3.809500442 3.7803704271 
3.7462412737 3.7058097288 3.657329819 3.5984456061 3.7454049075 3.7156421835 3.6816134988 3.6424295543 3.5969754326 
3.5438565869 3.4813459737 3.4073543651 3.5642842451 3.4524645613 3.5233842518 3.3320300872 3.403123212 3.4773852225 
3.20576226 3.2746326772 3.348015857 3.4255060145 3.0774230472 3.1415926536 3.2112816139 3.2864685043 3.3668817272 
2.95115522 3.00855263 3.0719036933 3.1415926536 3.2178377658 3.3005964304 2.8307207459 2.8800620952 2.9351694502 
2.9967168029 3.0653475414 3.1415926536 3.225752376 2.718901062 2.7598010554 2.8058000847 2.8576792927 2.91630358 
2.9825888767 3.0574329311 3.1415926536 3.5642842451 3.5233842518 3.4524645613 3.4773852225 3.403123212 3.3320300872 
3.4255060145 3.348015857 3.2746326772 3.20576226 3.3668817272 3.2864685043 3.2112816139 3.1415926536 3.0774230472 
3.3005964304 3.2178377658 3.1415926536 3.0719036933 3.00855263 2.95115522 3.225752376 3.1415926536 3.0653475414 
2.9967168029 2.9351694502 2.8800620952 2.8307207459 3.1415926536 3.0574329311 2.9825888767 2.91630358 2.8576792927 
2.8058000847 2.7598010554 2.718901062 4.526799744 4.426884955 4.4046155105 4.3052269283 4.2918546451 4.2807094886 
4.1588146215 4.1588146215 4.1588146215 4.1588146215 3.9875336042 4.0055183285 4.0201070968 4.0321740035 4.042318168 
3.7967995342 3.8356650183 3.8672112905 3.8932795963 3.9151549899 3.9337570603 3.5984456061 3.657329819 3.7058097288 
3.7462412737 3.7803704271 3.809500442 3.8346145692 3.4073543651 3.4813459737 3.5438565869 3.5969754326 3.6424295543 
3.6816134988 3.7156421835 3.7454049075 4.7123889804 4.8004512023 4.6243267584 4.9155579264 4.7123889804 4.5092200343 
5.0674903122 4.8353719722 4.5894059886 4.3572876485 5.2659633393 5.0120975802 4.7123889804 4.4126803806 4.1588146215 
5.5125918794 5.2659633393 4.9155579264 4.5092200343 4.1588146215 3.9121860814 5.7885595667 5.6029703303 5.2659633393 
4.7123889804 4.1588146215 3.8218076305 3.6362183941 6.0560271438 5.9702140275 5.7885595667 5.2659633393 4.1588146215 
3.6362183941 3.4545639333 3.368750817 0.22715816343 0.49462574053 0.3129712797 0.77059342779 0.68021497688 0.49462574053 
1.0172219679 1.0172219679 1.0172219679 1.0172219679 1.2156949949 1.271087727 1.3676273807 1.5707963268 2.1243706857 
1.3676273807 1.447813335 1.5707963268 1.7739652728 2.1243706857 2.6469669131 1.4827341049 1.5707963268 1.6937793186 
1.8705049266 2.1243706857 2.4613776767 2.8286213739 1.5707963268 1.6588585487 1.7739652728 1.9258976586 2.1243706857 
2.3709992258 2.6469669131 2.9144344902 1.7563855631 1.8785697967 1.8563003522 2.0024758186 1.9913306621 1.9779583789 
2.1243706857 2.1243706857 2.1243706857 2.1243706857 2.2408671392 2.2510113037 2.2630782103 2.2776669786 2.295651703 
2.3494282469 2.3680303173 2.3899057108 2.4159740166 2.4475202889 2.486385773 2.448570738 2.4736848652 2.5028148801 
2.5369440334 2.5773755784 2.6258554882 2.6847397011 2.5377803997 2.5675431237 2.6015718084 2.6407557529 2.6862098746 
2.7393287203 2.8018393335 2.8758309421 1.6743954455 1.6743954455 1.7840462375 1.6743954455 1.7840462375 1.8974821136 
1.6743954455 1.7840462375 1.8974821136 2.0119052671 1.6743954455 1.7840462375 1.8974821136 2.0119052671 2.1243706857 
1.6743954455 1.7840462375 1.8974821136 2.0119052671 2.1243706857 2.232221744 1.6743954455 1.7840462375 1.8974821136 
2.0119052671 2.1243706857 2.232221744 2.3334263672 1.6743954455 1.7840462375 1.8974821136 2.0119052671 2.1243706857 
2.232221744 2.3334263672 2.426721652 1.4671972081 1.3575464161 1.4671972081 1.24411054 1.3575464161 1.4671972081 
1.1296873865 1.24411054 1.3575464161 1.4671972081 1.0172219679 1.1296873865 1.24411054 1.3575464161 1.4671972081 
0.90937090954 1.0172219679 1.1296873865 1.24411054 1.3575464161 1.4671972081 0.80816628637 0.90937090954 1.0172219679 
1.1296873865 1.24411054 1.3575464161 1.4671972081 0.71487100155 0.80816628637 0.90937090954 1.0172219679 1.1296873865 
1.24411054 1.3575464161 1.4671972081 0.60381225391 0.57404952988 0.69302191562 0.54002084522 0.66790778838 0.79216440667 
0.50083690068 0.63877777351 0.77356233629 0.90072551443 0.45538277901 0.60464862014 0.75168694275 0.89058134991 1.0172219679 
0.40226393329 0.56421707518 0.72561863695 0.87851444325 1.0172219679 1.139116835 0.33975332011 0.51573716537 0.69407236469 
0.86392567495 1.0172219679 1.1502619915 1.2630228569 0.26576171152 0.45685295248 0.6552068806 0.84594095064 1.0172219679 
1.1636342747 1.2852923014 1.3852070904 0.22715816343 0.3129712797 0.49462574053 0.49462574053 0.68021497688 0.77059342779 
1.0172219679 1.0172219679 1.0172219679 1.0172219679 2.1243706857 1.5707963268 1.3676273807 1.271087727 1.2156949949 
2.6469669131 2.1243706857 1.7739652728 1.5707963268 1.447813335 1.3676273807 2.8286213739 2.4613776767 2.1243706857 
1.8705049266 1.6937793186 1.5707963268 1.4827341049 2.9144344902 2.6469669131 2.3709992258 2.1243706857 1.9258976586 
1.7739652728 1.6588585487 1.5707963268 1.7563855631 1.8563003522 1.8785697967 1.9779583789 1.9913306621 2.0024758186 
2.1243706857 2.1243706857 2.1243706857 2.1243706857 2.295651703 2.2776669786 2.2630782103 2.2510113037 2.2408671392 
2.486385773 2.4475202889 2.4159740166 2.3899057108 2.3680303173 2.3494282469 2.6847397011 2.6258554882 2.5773755784 
2.5369440334 2.5028148801 2.4736848652 2.448570738 2.8758309421 2.8018393335 2.7393287203 2.6862098746 2.6407557529 
2.6015718084 2.5675431237 2.5377803997 5.8604937156 5.901393709 5.9723133995 5.9473927383 6.0216547488 6.0927478736 
5.9992719463 6.0767621038 6.1501452836 6.2190157008 6.0578962336 6.1383094565 6.2134963469 0 0.064169606361 
6.1241815303 6.206940195 6.2831853072 0.069688960264 0.13304002361 0.19043743361 6.1990255847 0 0.07624511221 
0.14487585072 0.20642320337 0.26153055843 0.3108719077 0 0.084159722458 0.15900377685 0.22528907359 0.28391336087 
0.3357925689 0.38179159818 0.42269159155 5.8604937156 5.9723133995 5.901393709 6.0927478736 6.0216547488 5.9473927383 
6.2190157008 6.1501452836 6.0767621038 5.9992719463 0.064169606361 0 6.2134963469 6.1383094565 6.0578962336 
0.19043743361 0.13304002361 0.069688960264 6.2831853072 6.206940195 6.1241815303 0.3108719077 0.26153055843 0.20642320337 
0.14487585072 0.07624511221 6.2831853072 6.1990255847 0.42269159155 0.38179159818 0.3357925689 0.28391336087 0.22528907359 
0.15900377685 0.084159722458 0 5.6793730533 5.7091357773 5.5901633916 5.743164462 5.6152775188 5.4910209005 
5.7823484065 5.6444075337 5.5096229709 5.3824597928 5.8278025282 5.678536687 5.5314983644 5.3926039573 5.2659633393 
5.8809213739 5.718968232 5.5575666702 5.4046708639 5.2659633393 5.1440684722 5.9434319871 5.7674481418 5.5891129425 
5.4192596322 5.2659633393 5.1329233157 5.0201624502 6.0174235957 5.8263323547 5.6279784266 5.4372443565 5.2659633393 
5.1195510325 4.9978930058 4.8979782167 1.3852070904 1.2852923014 1.2630228569 1.1636342747 1.1502619915 1.139116835 
1.0172219679 1.0172219679 1.0172219679 1.0172219679 0.84594095064 0.86392567495 0.87851444325 0.89058134991 0.90072551443 
0.6552068806 0.69407236469 0.72561863695 0.75168694275 0.77356233629 0.79216440667 0.45685295248 0.51573716537 0.56421707518 
0.60464862014 0.63877777351 0.66790778838 0.69302191562 0.26576171152 0.33975332011 0.40226393329 0.45538277901 0.50083690068 
0.54002084522 0.57404952988 0.60381225391 
_paraPhiHalf 1 1002 double
0 3.1415926536 0 3.1415926536 1.5707963268 1.5707963268 1.5707963268 1.5707963268 2.5880182947 
0.5535743589 2.5880182947 0.5535743589 0 0 0 0 3.1415926536 3.1415926536 
3.1415926536 3.1415926536 3.1415926536 0.17788134 0.38438696014 0.60631181711 0.82323535693 1.0172219679 1.1799687454 
1.3118704726 1.4175000338 1.5022335207 0.17788134 0.38438696014 0.60631181711 0.82323535693 1.0172219679 1.1799687454 
1.3118704726 1.4175000338 1.5022335207 0.093902416448 0.17615329733 0.2478725152 0.31035131605 0.36486382811 0.41257334776 
0.45449736604 0.4915044461 0.52432611754 0.093902416448 0.17615329733 0.2478725152 0.31035131605 0.36486382811 0.41257334776 
0.45449736604 0.4915044461 0.52432611754 2.9637113136 2.7572056934 2.5352808365 2.3183572967 2.1243706857 1.9616239082 
1.829722181 1.7240926197 1.6393591329 2.9637113136 2.7572056934 2.5352808365 2.3183572967 2.1243706857 1.9616239082 
1.829722181 1.7240926197 1.6393591329 3.0476902371 2.9654393563 2.8937201384 2.8312413375 2.7767288255 2.7290193058 
2.6870952876 2.6500882075 2.617266536 3.0476902371 2.9654393563 2.8937201384 2.8312413375 2.7767288255 2.7290193058 
2.6870952876 2.6500882075 2.617266536 0 0 0 0 3.1415926536 3.1415926536 
3.1415926536 3.1415926536 3.1415926536 0.17788134 0.38438696014 0.60631181711 0.82323535693 1.0172219679 1.1799687454 
1.3118704726 1.4175000338 1.5022335207 0.17788134 0.38438696014 0.60631181711 0.82323535693 1.0172219679 1.1799687454 
1.3118704726 1.4175000338 1.5022335207 0.093902416448 0.17615329733 0.2478725152 0.31035131605 0.36486382811 0.41257334776 
0.45449736604 0.4915044461 0.52432611754 0.093902416448 0.17615329733 0.2478725152 0.31035131605 0.36486382811 0.41257334776 
0.45449736604 0.4915044461 0.52432611754 2.9637113136 2.7572056934 2.5352808365 2.3183572967 2.1243706857 1.9616239082 
1.829722181 1.7240926197 1.6393591329 2.9637113136 2.7572056934 2.5352808365 2.3183572967 2.1243706857 1.9616239082 
1.829722181 1.7240926197 1.6393591329 3.0476902371 2.9654393563 2.8937201384 2.8312413375 2.7767288255 2.7290193058 
2.6870952876 2.6500882075 2.617266536 3.0476902371 2.9654393563 2.8937201384 2.8312413375 2.7767288255 2.7290193058 
2.6870952876 2.6500882075 2.617266536 1.5707963268 1.5707963268 1.5707963268 1.5707963268 1.5707963268 1.5707963268 
1.5707963268 1.5707963268 1.5707963268 1.6743954455 1.7840462375 1.8974821136 2.0119052671 2.1243706857 2.232221744 
2.3334263672 2.426721652 2.5115728246 1.4671972081 1.3575464161 1.24411054 1.1296873865 1.0172219679 0.90937090954 
0.80816628637 0.71487100155 0.63001982895 1.6743954455 1.7840462375 1.8974821136 2.0119052671 2.1243706857 2.232221744 
2.3334263672 2.426721652 2.5115728246 1.4671972081 1.3575464161 1.24411054 1.1296873865 1.0172219679 0.90937090954 
0.80816628637 0.71487100155 0.63001982895 1.5707963268 1.5707963268 1.5707963268 1.5707963268 1.5707963268 1.5707963268 
1.5707963268 1.5707963268 1.5707963268 1.6743954455 1.7840462375 1.8974821136 2.0119052671 2.1243706857 2.232221744 
2.3334263672 2.426721652 2.5115728246 1.4671972081 1.3575464161 1.24411054 1.1296873865 1.0172219679 0.90937090954 
0.80816628637 0.71487100155 0.63001982895 1.6743954455 1.7840462375 1.8974821136 2.0119052671 2.1243706857 2.232221744 
2.3334263672 2.426721652 2.5115728246 1.4671972081 1.3575464161 1.24411054 1.1296873865 1.0172219679 0.90937090954 
0.80816628637 0.71487100155 0.63001982895 2.6824132222 2.7864913217 2.8992382033 3.0186096618 3.1415926536 3.0186096618 
2.8992382033 2.7864913217 2.6824132222 0.45917943135 0.35510133185 0.2423544503 0.12298299178 0 0.12298299178 
0.2423544503 0.35510133185 0.45917943135 0.22715816343 0.49462574053 0.3129712797 0.77059342779 0.68021497688 0.49462574053 
1.0172219679 1.0172219679 1.0172219679 1.0172219679 1.2156949949 1.271087727 1.3676273807 1.5707963268 2.1243706857 
1.3676273807 1.447813335 1.5707963268 1.7739652728 2.1243706857 2.6469669131 1.4827341049 1.5707963268 1.6937793186 
1.8705049266 2.1243706857 2.4613776767 2.8286213739 1.5707963268 1.6588585487 1.7739652728 1.9258976586 2.1243706857 
2.3709992258 2.6469669131 2.9144344902 0.26576171152 0.33975332011 0.45685295248 0.40226393329 0.51573716537 0.6552068806 
0.45538277901 0.56421707518 0.69407236469 0.84594095064 0.50083690068 0.60464862014 0.72561863695 0.86392567495 1.0172219679 
0.54002084522 0.63877777351 0.75168694275 0.87851444325 1.0172219679 1.1636342747 0.57404952988 0.66790778838 0.77356233629 
0.89058134991 1.0172219679 1.1502619915 1.2852923014 0.60381225391 0.69302191562 0.79216440667 0.90072551443 1.0172219679 
1.139116835 1.2630228569 1.3852070904 0.71487100155 0.80816628637 0.80816628637 0.90937090954 0.90937090954 0.90937090954 
1.0172219679 1.0172219679 1.0172219679 1.0172219679 1.1296873865 1.1296873865 1.1296873865 1.1296873865 1.1296873865 
1.24411054 1.24411054 1.24411054 1.24411054 1.24411054 1.24411054 1.3575464161 1.3575464161 1.3575464161 
1.3575464161 1.3575464161 1.3575464161 1.3575464161 1.4671972081 1.4671972081 1.4671972081 1.4671972081 1.4671972081 
1.4671972081 1.4671972081 1.4671972081 1.6743954455 1.6743954455 1.7840462375 1.6743954455 1.7840462375 1.8974821136 
1.6743954455 1.7840462375 1.8974821136 2.0119052671 1.6743954455 1.7840462375 1.8974821136 2.0119052671 2.1243706857 
1.6743954455 1.7840462375 1.8974821136 2.0119052671 2.1243706857 2.232221744 1.6743954455 1.7840462375 1.8974821136 
2.0119052671 2.1243706857 2.232221744 2.3334263672 1.6743954455 1.7840462375 1.8974821136 2.0119052671 2.1243706857 
2.232221744 2.3334263672 2.426721652 1.7563855631 1.8785697967 1.8563003522 2.0024758186 1.9913306621 1.9779583789 
2.1243706857 2.1243706857 2.1243706857 2.1243706857 2.2408671392 2.2510113037 2.2630782103 2.2776669786 2.295651703 
2.3494282469 2.3680303173 2.3899057108 2.4159740166 2.4475202889 2.486385773 2.448570738 2.4736848652 2.5028148801 
2.5369440334 2.5773755784 2.6258554882 2.6847397011 2.5377803997 2.5675431237 2.6015718084 2.6407557529 2.6862098746 
2.7393287203 2.8018393335 2.8758309421 2.718901062 2.8307207459 2.7598010554 2.95115522 2.8800620952 2.8058000847 
3.0774230472 3.00855263 2.9351694502 2.8576792927 3.0774230472 3.1415926536 3.0719036933 2.9967168029 2.91630358 
2.95115522 3.00855263 3.0719036933 3.1415926536 3.0653475414 2.9825888767 2.8307207459 2.8800620952 2.9351694502 
2.9967168029 3.0653475414 3.1415926536 3.0574329311 2.718901062 2.7598010554 2.8058000847 2.8576792927 2.91630358 
2.9825888767 3.0574329311 3.1415926536 2.718901062 2.7598010554 2.8307207459 2.8058000847 2.8800620952 2.95115522 
2.8576792927 2.9351694502 3.00855263 3.0774230472 2.91630358 2.9967168029 3.0719036933 3.1415926536 3.0774230472 
2.9825888767 3.0653475414 3.1415926536 3.0719036933 3.00855263 2.95115522 3.0574329311 3.1415926536 3.0653475414 