# vtk DataFile Version 5.1
vtk output
ASCII
DATASET POLYDATA
POINTS 1002 float
-4.79774 0.163209 -3.12737 4.56984 -0.00607686 -2.54848 -4.72149 -0.0608433 4.35313 
4.20488 0.0827441 3.04156 0.345788 6.02843 -2.85403 0.398435 6.46917 3.04841 
-0.0549218 -6.23139 -2.66545 0.287994 -5.56674 2.26795 8.62558 4.76646 0.57739 
-9.18705 4.30183 -1.34617 8.49737 -4.67164 -0.576458 -8.18125 -4.3772 0.160031 
-4.02799 0.100151 -3.27963 -3.20959 -0.0327878 -3.57266 -2.27927 -0.183919 -3.72381 
-1.19541 -0.203293 -3.5713 -0.0445522 -0.0582426 -3.38569 1.01803 0.0492321 -3.43335 
1.95169 -0.0183565 -3.4982 2.8399 -0.127601 -3.28687 3.72969 -0.117904 -2.88438 
-4.53618 0.676707 -3.19286 -4.1817 1.23867 -3.26582 -3.74555 1.81554 -3.35805 
-3.21165 2.37699 -3.48163 -2.54946 2.94982 -3.52406 -1.82245 3.60646 -3.33209 
-1.17383 4.3445 -3.00315 -0.647418 5.04382 -2.80879 -0.160524 5.60167 -2.81792 
-4.51248 -0.383888 -3.12288 -4.17426 -1.01452 -3.22635 -3.79077 -1.72458 -3.44356 
-3.33598 -2.48414 -3.59847 -2.80984 -3.23812 -3.52323 -2.27087 -3.94284 -3.3217 
-1.74472 -4.59834 -3.18929 -1.19568 -5.21641 -3.1073 -0.617269 -5.77464 -2.9438 
-5.4684 0.50472 -3.1809 -6.23019 0.88392 -3.3063 -7.00611 1.33231 -3.36137 
-7.69709 1.82186 -3.25682 -8.32446 2.33058 -3.07048 -8.9706 2.91793 -2.91208 
-9.53334 3.57516 -2.74116 -9.77378 4.11109 -2.43345 -9.61205 4.34764 -1.94561 
-5.41292 -0.123767 -3.12459 -6.01785 -0.436692 -3.15693 -6.58597 -0.8122 -3.04903 
-7.1585 -1.27767 -2.78034 -7.71717 -1.7802 -2.5367 -8.11172 -2.27572 -2.33068 
-8.25944 -2.8256 -1.9116 -8.26323 -3.44783 -1.20914 -8.2361 -4.00978 -0.45176 
4.35475 0.578859 -2.60993 4.0806 1.2155 -2.56853 3.73849 1.81198 -2.34543 
3.28852 2.3501 -2.088 2.76233 2.9671 -2.09787 2.28429 3.75292 -2.44985 
1.88184 4.56483 -2.86913 1.44042 5.21211 -3.07767 0.904345 5.67166 -3.03919 
4.23512 -0.647068 -2.60761 3.83814 -1.29607 -2.66731 3.38362 -1.93214 -2.80033 
2.91943 -2.57981 -2.88738 2.49088 -3.23611 -2.69843 2.0466 -3.86467 -2.3733 
1.49805 -4.49428 -2.35214 0.88249 -5.15979 -2.66339 0.338855 -5.77797 -2.86621 
5.2671 0.464454 -2.36357 5.95692 0.915168 -2.28667 6.63899 1.39454 -2.31536 
7.45117 2.05753 -2.29678 8.4296 2.89297 -2.13795 9.23409 3.61964 -1.89684 
9.48061 4.06245 -1.53526 9.24497 4.34628 -0.921442 8.89218 4.59695 -0.13073 
5.15821 -0.271028 -2.43627 5.71769 -0.620117 -2.44239 6.29001 -1.13383 -2.38607 
6.90266 -1.72966 -2.2239 7.48508 -2.20169 -2.2065 7.99078 -2.55356 -2.37498 
8.45184 -3.02912 -2.30831 8.78777 -3.69164 -1.77786 8.81527 -4.30854 -1.08409 
-3.90161 0.0342499 4.16903 -3.04765 0.0755085 3.87049 -2.12368 0.098452 3.65009 
-1.1212 0.135235 3.63741 -0.12245 0.173815 3.66664 0.798104 0.188437 3.49643 
1.68115 0.173742 3.21179 2.57953 0.139575 3.05496 3.44686 0.104129 3.04621 
-4.31941 0.473742 4.38533 -3.86494 1.15855 4.40572 -3.39655 1.96853 4.39406 
-2.90153 2.74097 4.28341 -2.34173 3.39828 4.08156 -1.7259 4.07201 3.84458 
-1.11295 4.821 3.58008 -0.549953 5.50264 3.32093 -0.0474719 6.02996 3.14395 
-4.52834 -0.496464 4.20224 -4.19277 -1.03337 3.98618 -3.73406 -1.696 3.7708 
-3.25647 -2.40145 3.62505 -2.78999 -3.04129 3.50399 -2.22212 -3.62801 3.2726 
-1.52132 -4.22278 2.91449 -0.82877 -4.78188 2.57755 -0.241322 -5.22628 2.37335 
-5.33937 0.108007 4.39643 -6.02798 0.288664 4.21481 -6.72971 0.537706 3.78518 
-7.32503 0.912125 3.12913 -7.7504 1.40973 2.26219 -8.07638 1.95213 1.29999 
-8.41046 2.49236 0.458755 -8.76634 3.07587 -0.194828 -9.05788 3.71456 -0.775248 
-5.47666 -0.478082 4.29516 -6.2483 -1.00195 4.00631 -6.93596 -1.58912 3.47992 
-7.4705 -2.07708 2.86114 -7.87851 -2.3814 2.30252 -8.23969 -2.6819 1.8171 
-8.53492 -3.17337 1.37622 -8.63707 -3.75741 0.983892 -8.49015 -4.19325 0.599719 
3.94486 0.630542 3.10176 3.64001 1.21197 3.10437 3.2925 1.85802 3.05745 
2.89522 2.59953 3.09294 2.4452 3.38462 3.25935 1.98177 4.09924 3.38408 
1.56095 4.71518 3.34799 1.18015 5.30824 3.24992 0.79548 5.91268 3.17056 
4.00974 -0.485019 3.00413 3.80029 -1.13745 3.0143 3.54842 -1.81805 3.08714 
3.23229 -2.45815 3.15209 2.88149 -3.07997 3.14142 2.52008 -3.72745 3.0641 
2.09308 -4.33033 2.92372 1.54428 -4.80401 2.7027 0.912117 -5.18742 2.45337 
4.77192 0.422753 3.00159 5.38605 0.821043 2.87196 6.03643 1.25746 2.68395 
6.69182 1.68448 2.4653 7.33848 2.12008 2.22355 7.96434 2.646 2.01964 
8.46664 3.26482 1.8792 8.71362 3.87575 1.65825 8.71895 4.38857 1.20887 
4.77543 -0.275587 2.95031 5.34254 -0.679173 2.81836 5.94985 -1.15134 2.63379 
6.59743 -1.72616 2.27688 7.14615 -2.37862 1.63163 7.49359 -3.01312 0.851799 
7.76831 -3.57164 0.261726 8.10956 -4.05685 -0.0496786 8.41719 -4.44159 -0.271623 
0.335161 6.5101 -2.60283 0.369962 7.14146 -2.04927 0.466459 7.93711 -1.23302 
0.550466 8.67045 -0.472619 0.52671 8.99124 0.0511283 0.423115 8.79178 0.605291 
0.356212 8.27902 1.41594 0.365588 7.67534 2.25039 0.396076 7.06324 2.79771 
1.26072 6.19413 -2.89715 2.19642 6.29052 -2.75141 3.00548 6.23048 -2.4244 
3.81846 5.99535 -1.99943 4.92277 5.74115 -1.59339 6.22215 5.66037 -1.26721 
7.26196 5.70686 -0.949517 7.86533 5.63604 -0.516282 8.25241 5.30272 0.0361395 
-0.510426 6.11527 -2.5825 -1.3699 6.15241 -2.20003 -2.32654 6.0645 -1.69392 
-3.4474 5.86011 -1.15942 -4.59085 5.68744 -0.907945 -5.62373 5.64188 -1.13231 
-6.64287 5.60563 -1.54539 -7.69355 5.39189 -1.72695 -8.59297 4.93616 -1.60344 
1.1035 6.58363 3.0483 1.87531 6.64845 2.9111 2.66994 6.54207 2.56751 
3.47695 6.20286 2.06593 4.38294 5.7477 1.48919 5.47072 5.40559 0.95494 
6.60825 5.29098 0.666232 7.52996 5.27565 0.675788 8.15346 5.13276 0.734474 
-0.274986 6.69608 2.88328 -0.960984 6.88143 2.65776 -1.68706 6.96466 2.35969 
-2.59501 6.78201 1.93245 -3.76746 6.2152 1.41502 -5.062 5.45865 0.919176 
-6.27651 4.89218 0.420378 -7.36003 4.64157 -0.175134 -8.33843 4.51402 -0.812341 
0.0977754 -6.64587 -2.08167 0.245626 -6.94524 -1.3456 0.333584 -7.18277 -0.715342 
0.368625 -7.44239 -0.240873 0.383893 -7.66937 0.30673 0.365971 -7.65373 1.00829 
0.303642 -7.27685 1.62083 0.248894 -6.67046 1.96797 0.249535 -6.06128 2.13586 
0.733998 -6.3742 -2.53662 1.62442 -6.41519 -2.28998 2.58736 -6.39495 -2.05051 
3.56276 -6.49538 -2.01235 4.50454 -6.77984 -2.0988 5.40048 -6.93224 -1.98571 
6.2544 -6.60593 -1.58861 7.07613 -5.90782 -1.14097 7.84848 -5.20359 -0.810652 
-0.717067 -6.29729 -2.35428 -1.41516 -6.29986 -1.948 -2.20514 -6.23912 -1.65238 
-3.1224 -6.03071 -1.46822 -4.11358 -5.65724 -1.24657 -5.05529 -5.29604 -0.975003 
-5.89306 -5.08878 -0.718607 -6.68655 -4.94332 -0.442766 -7.47113 -4.71301 -0.125806 
1.31612 -5.64963 2.256 2.5739 -5.85359 2.1972 3.83372 -6.25272 2.13354 
4.81213 -6.67019 2.10328 5.4706 -6.78127 1.90669 5.96711 -6.50515 1.31763 
6.42781 -6.05795 0.532794 6.96995 -5.60987 -0.050128 7.68665 -5.15862 -0.353234 
-0.62717 -5.77073 2.22627 -1.54895 -5.92809 2.25216 -2.54842 -5.98856 2.24885 
-3.61255 -6.00489 2.1047 -4.58131 -6.03583 1.82944 -5.37935 -5.99452 1.5113 
-6.1284 -5.75436 1.18886 -6.90388 -5.33891 0.858465 -7.61918 -4.86093 0.518481 
9.19953 3.98907 0.574778 9.77975 3.00524 0.305262 10.02 1.9974 -0.0902034 
9.7068 1.11822 -0.352361 9.27198 0.21055 -0.410907 9.34889 -0.979245 -0.430493 
9.78361 -2.29689 -0.507748 9.86328 -3.35721 -0.578309 9.32563 -4.08009 -0.593659 
-9.89348 3.58026 -1.39831 -10.5551 2.67747 -1.30088 -11.1845 1.7846 -1.0605 
-11.5663 0.9621 -0.789854 -11.3904 -0.00648249 -0.614022 -10.7333 -1.20296 -0.510588 
-10.0105 -2.33721 -0.361205 -9.41741 -3.18278 -0.147661 -8.83947 -3.81965 0.0441617 
-3.74533 0.637685 -3.43009 -3.38512 1.21303 -3.55213 -2.91023 0.507047 -3.69257 
-2.90312 1.79786 -3.62539 -2.50937 1.10607 -3.68446 -1.89096 0.380289 -3.64716 
-2.26752 2.38197 -3.6834 -1.93349 1.761 -3.60176 -1.36342 1.05486 -3.43519 
-0.651231 0.423522 -3.37109 -1.53984 3.00864 -3.66022 -1.21402 2.44308 -3.57307 
-0.686146 1.81115 -3.25219 -0.00346699 1.1563 -3.14183 0.59256 0.585964 -3.32229 
-0.84916 3.73005 -3.46011 -0.488869 3.14627 -3.53883 0.0245397 2.54579 -3.196 
0.671969 1.90029 -2.94045 1.24008 1.26906 -3.16425 1.62983 0.64319 -3.50985 
-0.242328 4.49308 -3.19846 0.172221 3.88779 -3.37922 0.666321 3.23175 -3.13582 
1.26954 2.54691 -2.75103 1.83562 1.8971 -2.79312 2.22963 1.26142 -3.22497 
2.52771 0.571576 -3.46694 0.334316 5.16298 -3.06354 0.812074 4.61124 -3.18307 
1.27135 3.91653 -2.99146 1.78262 3.14106 -2.56432 2.33531 2.43622 -2.35235 
2.79994 1.83525 -2.60513 3.13998 1.21467 -2.97795 3.43954 0.53144 -3.06421 
-5.16549 1.05571 -3.16009 -5.9056 1.47521 -3.21302 -4.75456 1.66168 -3.13518 
-6.69332 1.97126 -3.25262 -5.50384 2.12963 -3.10591 -4.28682 2.29003 -3.18408 
-7.4197 2.51277 -3.16818 -6.34191 2.66109 -3.06877 -5.05236 2.82051 -3.03435 
-3.7095 2.92107 -3.24393 -8.06081 3.09955 -2.98526 -7.05943 3.20675 -2.86773 
-5.84247 3.36186 -2.73537 -4.37293 3.52801 -2.81929 -2.94078 3.59341 -3.07745 
-8.6054 3.78321 -2.80322 -7.54922 3.79856 -2.57794 -6.36927 3.84541 -2.23915 
-4.94612 4.05476 -2.13844 -3.40656 4.26445 -2.34931 -2.11553 4.33531 -2.68403 
-8.91924 4.4594 -2.58589 -7.81498 4.48516 -2.36602 -6.60124 4.38095 -1.83808 
-5.27282 4.46662 -1.4585 -3.8156 4.76105 -1.55417 -2.47871 4.99862 -1.96201 
-1.46249 5.06036 -2.41682 -8.89168 4.88013 -2.19533 -7.85372 5.0975 -2.14617 
-6.67138 5.03815 -1.68942 -5.46755 4.97841 -1.14748 -4.19157 5.15065 -1.03957 
-2.91443 5.45186 -1.42939 -1.84442 5.637 -1.97619 -0.980545 5.65376 -2.45445 
-7.60213 5.17411 -1.01772 -6.52785 5.44062 -0.358723 -6.65693 5.77635 -1.13386 
-5.42478 5.9432 0.234432 -5.68302 6.31561 -0.53318 -5.75378 6.20651 -1.03924 
-4.22924 6.62625 0.737868 -4.71277 6.98322 -0.00619953 -5.0014 6.9457 -0.628596 
-4.92791 6.39289 -0.891821 -2.97846 7.14408 1.21 -3.54047 7.46799 0.463932 
-4.06422 7.55403 -0.243981 -4.21865 7.15848 -0.771908 -3.92715 6.46102 -1.03294 
-1.88693 7.31713 1.6548 -2.26396 7.6164 0.89498 -2.74412 7.83871 0.175498 
-3.07646 7.72961 -0.498578 -3.04837 7.20509 -1.08965 -2.72191 6.56665 -1.48543 
-1.04261 7.29516 2.06843 -1.19356 7.64873 1.31228 -1.40419 8.00235 0.57252 
[...]
POINT_DATA 1002
FIELD FieldData 4
_paraPhi 1 1002 double
6.2831853072 3.1415926536 6.2831853072 3.1415926536 4.7123889804 4.7123889804 1.5707963268 1.5707963268 3.6951670125 
5.7296109483 2.5880182947 0.5535743589 6.2831853072 6.2831853072 6.2831853072 6.2831853072 3.1415926536 3.1415926536 
3.1415926536 3.1415926536 3.1415926536 6.1053039672 5.898798347 5.6768734901 5.4599499503 5.2659633393 5.1032165617 
4.9713148346 4.8656852733 4.7809517865 0.17788134 0.38438696014 0.60631181711 0.82323535693 1.0172219679 1.1799687454 
1.3118704726 1.4175000338 1.5022335207 6.1892828907 6.1070320098 6.035312792 5.9728339911 5.9183214791 5.8706119594 
5.8286879411 5.7916808611 5.7588591896 0.093902416448 0.17615329733 0.2478725152 0.31035131605 0.36486382811 0.41257334776 
0.45449736604 0.4915044461 0.52432611754 3.3194739936 3.5259796137 3.7479044707 3.9648280105 4.1588146215 4.321561399 
4.4534631262 4.5590926874 4.6438261743 2.9637113136 2.7572056934 2.5352808365 2.3183572967 2.1243706857 1.9616239082 
1.829722181 1.7240926197 1.6393591329 3.23549507 3.3177459509 3.3894651688 3.4519439696 3.5064564817 3.5541660013 
3.5960900196 3.6330970997 3.6659187711 3.0476902371 2.9654393563 2.8937201384 2.8312413375 2.7767288255 2.7290193058 
2.6870952876 2.6500882075 2.617266536 6.2831853072 6.2831853072 6.2831853072 6.2831853072 3.1415926536 3.1415926536 
3.1415926536 3.1415926536 3.1415926536 6.1053039672 5.898798347 5.6768734901 5.4599499503 5.2659633393 5.1032165617 
4.9713148346 4.8656852733 4.7809517865 0.17788134 0.38438696014 0.60631181711 0.82323535693 1.0172219679 1.1799687454 
1.3118704726 1.4175000338 1.5022335207 6.1892828907 6.1070320098 6.035312792 5.9728339911 5.9183214791 5.8706119594 
5.8286879411 5.7916808611 5.7588591896 0.093902416448 0.17615329733 0.2478725152 0.31035131605 0.36486382811 0.41257334776 
0.45449736604 0.4915044461 0.52432611754 3.3194739936 3.5259796137 3.7479044707 3.9648280105 4.1588146215 4.321561399 
4.4534631262 4.5590926874 4.6438261743 2.9637113136 2.7572056934 2.5352808365 2.3183572967 2.1243706857 1.9616239082 
1.829722181 1.7240926197 1.6393591329 3.23549507 3.3177459509 3.3894651688 3.4519439696 3.5064564817 3.5541660013 
3.5960900196 3.6330970997 3.6659187711 3.0476902371 2.9654393563 2.8937201384 2.8312413375 2.7767288255 2.7290193058 
2.6870952876 2.6500882075 2.617266536 4.7123889804 4.7123889804 4.7123889804 4.7123889804 4.7123889804 4.7123889804 
4.7123889804 4.7123889804 4.7123889804 4.6087898617 4.4991390697 4.3857031936 4.2712800401 4.1588146215 4.0509635631 
3.94975894 3.8564636551 3.7716124825 4.8159880991 4.9256388911 5.0390747672 5.1534979207 5.2659633393 5.3738143976 
5.4750190208 5.5683143056 5.6531654782 4.6087898617 4.4991390697 4.3857031936 4.2712800401 4.1588146215 4.0509635631 
3.94975894 3.8564636551 3.7716124825 4.8159880991 4.9256388911 5.0390747672 5.1534979207 5.2659633393 5.3738143976 
5.4750190208 5.5683143056 5.6531654782 1.5707963268 1.5707963268 1.5707963268 1.5707963268 1.5707963268 1.5707963268 
1.5707963268 1.5707963268 1.5707963268 1.6743954455 1.7840462375 1.8974821136 2.0119052671 2.1243706857 2.232221744 
2.3334263672 2.426721652 2.5115728246 1.4671972081 1.3575464161 1.24411054 1.1296873865 1.0172219679 0.90937090954 
0.80816628637 0.71487100155 0.63001982895 1.6743954455 1.7840462375 1.8974821136 2.0119052671 2.1243706857 2.232221744 
2.3334263672 2.426721652 2.5115728246 1.4671972081 1.3575464161 1.24411054 1.1296873865 1.0172219679 0.90937090954 
0.80816628637 0.71487100155 0.63001982895 3.6007720849 3.4966939854 3.3839471039 3.2645756454 3.1415926536 3.0186096618 
2.8992382033 2.7864913217 2.6824132222 5.8240058758 5.9280839753 6.0408308569 6.1602023154 6.2831853072 0.12298299178 
0.2423544503 0.35510133185 0.45917943135 6.0560271438 5.7885595667 5.9702140275 5.5125918794 5.6029703303 5.7885595667 
5.2659633393 5.2659633393 5.2659633393 5.2659633393 5.0674903122 5.0120975802 4.9155579264 4.7123889804 4.1588146215 
4.9155579264 4.8353719722 4.7123889804 4.5092200343 4.1588146215 3.6362183941 4.8004512023 4.7123889804 4.5894059886 
4.4126803806 4.1588146215 3.8218076305 3.4545639333 4.7123889804 4.6243267584 4.5092200343 4.3572876485 4.1588146215 
3.9121860814 3.6362183941 3.368750817 6.0174235957 5.9434319871 5.8263323547 5.8809213739 5.7674481418 5.6279784266 
5.8278025282 5.718968232 5.5891129425 5.4372443565 5.7823484065 5.678536687 5.5575666702 5.4192596322 5.2659633393 
5.743164462 5.6444075337 5.5314983644 5.4046708639 5.2659633393 5.1195510325 5.7091357773 5.6152775188 5.5096229709 
5.3926039573 5.2659633393 5.1329233157 4.9978930058 5.6793730533 5.5901633916 5.4910209005 5.3824597928 5.2659633393 
5.1440684722 5.0201624502 4.8979782167 5.5683143056 5.4750190208 5.4750190208 5.3738143976 5.3738143976 5.3738143976 
5.2659633393 5.2659633393 5.2659633393 5.2659633393 5.1534979207 5.1534979207 5.1534979207 5.1534979207 5.1534979207 
5.0390747672 5.0390747672 5.0390747672 5.0390747672 5.0390747672 5.0390747672 4.9256388911 4.9256388911 4.9256388911 
4.9256388911 4.9256388911 4.9256388911 4.9256388911 4.8159880991 4.8159880991 4.8159880991 4.8159880991 4.8159880991 
4.8159880991 4.8159880991 4.8159880991 4.6087898617 4.6087898617 4.4991390697 4.6087898617 4.4991390697 4.3857031936 
4.6087898617 4.4991390697 4.3857031936 4.2712800401 4.6087898617 4.4991390697 4.3857031936 4.2712800401 4.1588146215 
4.6087898617 4.4991390697 4.3857031936 4.2712800401 4.1588146215 4.0509635631 4.6087898617 4.4991390697 4.3857031936 
4.2712800401 4.1588146215 4.0509635631 3.94975894 4.6087898617 4.4991390697 4.3857031936 4.2712800401 4.1588146215 
4.0509635631 3.94975894 3.8564636551 4.526799744 4.4046155105 4.426884955 4.2807094886 4.2918546451 4.3052269283 
4.1588146215 4.1588146215 4.1588146215 4.1588146215 4.042318168 4.0321740035 4.0201070968 4.0055183285 3.9875336042 
3.9337570603 3.9151549899 3.8932795963 3.8672112905 3.8356650183 3.7967995342 3.8346145692 3.809500442 3.7803704271 
3.7462412737 3.7058097288 3.657329819 3.5984456061 3.7454049075 3.7156421835 3.6816134988 3.6424295543 3.5969754326 
3.5438565869 3.4813459737 3.4073543651 3.5642842451 3.4524645613 3.5233842518 3.3320300872 3.403123212 3.4773852225 
3.20576226 3.2746326772 3.348015857 3.4255060145 3.0774230472 3.1415926536 3.2112816139 3.2864685043 3.3668817272 
2.95115522 3.00855263 3.0719036933 3.1415926536 3.2178377658 3.3005964304 2.8307207459 2.8800620952 2.9351694502 
2.9967168029 3.0653475414 3.1415926536 3.225752376 2.718901062 2.7598010554 2.8058000847 2.8576792927 2.91630358 
2.9825888767 3.0574329311 3.1415926536 3.5642842451 3.5233842518 3.4524645613 3.4773852225 3.403123212 3.3320300872 
3.4255060145 3.348015857 3.2746326772 3.20576226 3.3668817272 3.2864685043 3.2112816139 3.1415926536 3.0774230472 
3.3005964304 3.2178377658 3.1415926536 3.0719036933 3.00855263 2.95115522 3.225752376 3.1415926536 3.0653475414 
2.9967168029 2.9351694502 2.8800620952 2.8307207459 3.1415926536 3.0574329311 2.9825888767 2.91630358 2.8576792927 
2.8058000847 2.7598010554 2.718901062 4.526799744 4.426884955 4.4046155105 4.3052269283 4.2918546451 4.2807094886 
4.1588146215 4.1588146215 4.1588146215 4.1588146215 3.9875336042 4.0055183285 4.0201070968 4.0321740035 4.042318168 
3.7967995342 3.8356650183 3.8672112905 3.8932795963 3.9151549899 3.9337570603 3.5984456061 3.657329819 3.7058097288 
3.7462412737 3.7803704271 3.809500442 3.8346145692 3.4073543651 3.4813459737 3.5438565869 3.5969754326 3.6424295543 
3.6816134988 3.7156421835 3.7454049075 4.7123889804 4.8004512023 4.6243267584 4.9155579264 4.7123889804 4.5092200343 
5.0674903122 4.8353719722 4.5894059886 4.3572876485 5.2659633393 5.0120975802 4.7123889804 4.4126803806 4.1588146215 
5.5125918794 5.2659633393 4.9155579264 4.5092200343 4.1588146215 3.9121860814 5.7885595667 5.6029703303 5.2659633393 
4.7123889804 4.1588146215 3.8218076305 3.6362183941 6.0560271438 5.9702140275 5.7885595667 5.2659633393 4.1588146215 
3.6362183941 3.4545639333 3.368750817 0.22715816343 0.49462574053 0.3129712797 0.77059342779 0.68021497688 0.49462574053 
1.0172219679 1.0172219679 1.0172219679 1.0172219679 1.2156949949 1.271087727 1.3676273807 1.5707963268 2.1243706857 
1.3676273807 1.447813335 1.5707963268 1.7739652728 2.1243706857 2.6469669131 1.4827341049 1.5707963268 1.6937793186 
1.8705049266 2.1243706857 2.4613776767 2.8286213739 1.5707963268 1.6588585487 1.7739652728 1.9258976586 2.1243706857 
2.3709992258 2.6469669131 2.9144344902 1.7563855631 1.8785697967 1.8563003522 2.0024758186 1.9913306621 1.9779583789 
2.1243706857 2.1243706857 2.1243706857 2.1243706857 2.2408671392 2.2510113037 2.2630782103 2.2776669786 2.295651703 
2.3494282469 2.3680303173 2.3899057108 2.4159740166 2.4475202889 2.486385773 2.448570738 2.4736848652 2.5028148801 
2.5369440334 2.5773755784 2.6258554882 2.6847397011 2.5377803997 2.5675431237 2.6015718084 2.6407557529 2.6862098746 
2.7393287203 2.8018393335 2.8758309421 1.6743954455 1.6743954455 1.7840462375 1.6743954455 1.7840462375 1.8974821136 
1.6743954455 1.7840462375 1.8974821136 2.0119052671 1.6743954455 1.7840462375 1.8974821136 2.0119052671 2.1243706857 
1.6743954455 1.7840462375 1.8974821136 2.0119052671 2.1243706857 2.232221744 1.6743954455 1.7840462375 1.8974821136 
2.0119052671 2.1243706857 2.232221744 2.3334263672 1.6743954455 1.7840462375 1.8974821136 2.0119052671 2.1243706857 
2.232221744 2.3334263672 2.426721652 1.4671972081 1.3575464161 1.4671972081 1.24411054 1.3575464161 1.4671972081 
1.1296873865 1.24411054 1.3575464161 1.4671972081 1.0172219679 1.1296873865 1.24411054 1.3575464161 1.4671972081 
0.90937090954 1.0172219679 1.1296873865 1.24411054 1.3575464161 1.4671972081 0.80816628637 0.90937090954 1.0172219679 
1.1296873865 1.24411054 1.3575464161 1.4671972081 0.71487100155 0.80816628637 0.90937090954 1.0172219679 1.1296873865 
1.24411054 1.3575464161 1.4671972081 0.60381225391 0.57404952988 0.69302191562 0.54002084522 0.66790778838 0.79216440667 
0.50083690068 0.63877777351 0.77356233629 0.90072551443 0.45538277901 0.60464862014 0.75168694275 0.89058134991 1.0172219679 
0.40226393329 0.56421707518 0.72561863695 0.87851444325 1.0172219679 1.139116835 0.33975332011 0.51573716537 0.69407236469 
0.86392567495 1.0172219679 1.1502619915 1.2630228569 0.26576171152 0.45685295248 0.6552068806 0.84594095064 1.0172219679 
1.1636342747 1.2852923014 1.3852070904 0.22715816343 0.3129712797 0.49462574053 0.49462574053 0.68021497688 0.77059342779 
1.0172219679 1.0172219679 1.0172219679 1.0172219679 2.1243706857 1.5707963268 1.3676273807 1.271087727 1.2156949949 
2.6469669131 2.1243706857 1.7739652728 1.5707963268 1.447813335 1.3676273807 2.8286213739 2.4613776767 2.1243706857 
1.8705049266 1.6937793186 1.5707963268 1.4827341049 2.9144344902 2.6469669131 2.3709992258 2.1243706857 1.9258976586 
1.7739652728 1.6588585487 1.5707963268 1.7563855631 1.8563003522 1.8785697967 1.9779583789 1.9913306621 2.0024758186 
2.1243706857 2.1243706857 2.1243706857 2.1243706857 2.295651703 2.2776669786 2.2630782103 2.2510113037 2.2408671392 
2.486385773 2.4475202889 2.4159740166 2.3899057108 2.3680303173 2.3494282469 2.6847397011 2.6258554882 2.5773755784 
2.5369440334 2.5028148801 2.4736848652 2.448570738 2.8758309421 2.8018393335 2.7393287203 2.6862098746 2.6407557529 
2.6015718084 2.5675431237 2.5377803997 5.8604937156 5.901393709 5.9723133995 5.9473927383 6.0216547488 6.0927478736 
5.9992719463 6.0767621038 6.1501452836 6.2190157008 6.0578962336 6.1383094565 6.2134963469 0 0.064169606361 
6.1241815303 6.206940195 6.2831853072 0.069688960264 0.13304002361 0.19043743361 6.1990255847 0 0.07624511221 
0.14487585072 0.20642320337 0.26153055843 0.3108719077 0 0.084159722458 0.15900377685 0.22528907359 0.28391336087 
0.3357925689 0.38179159818 0.42269159155 5.8604937156 5.9723133995 5.901393709 6.0927478736 6.0216547488 5.9473927383 
6.2190157008 6.1501452836 6.0767621038 5.9992719463 0.064169606361 0 6.2134963469 6.1383094565 6.0578962336 
0.19043743361 0.13304002361 0.069688960264 6.2831853072 6.206940195 6.1241815303 0.3108719077 0.26153055843 0.20642320337 
0.14487585072 0.07624511221 6.2831853072 6.1990255847 0.42269159155 0.38179159818 0.3357925689 0.28391336087 0.22528907359 
0.15900377685 0.084159722458 0 5.6793730533 5.7091357773 5.5901633916 5.743164462 5.6152775188 5.4910209005 
5.7823484065 5.6444075337 5.5096229709 5.3824597928 5.8278025282 5.678536687 5.5314983644 5.3926039573 5.2659633393 
5.8809213739 5.718968232 5.5575666702 5.4046708639 5.2659633393 5.1440684722 5.9434319871 5.7674481418 5.5891129425 
5.4192596322 5.2659633393 5.1329233157 5.0201624502 6.0174235957 5.8263323547 5.6279784266 5.4372443565 5.2659633393 
5.1195510325 4.9978930058 4.8979782167 1.3852070904 1.2852923014 1.2630228569 1.1636342747 1.1502619915 1.139116835 
1.0172219679 1.0172219679 1.0172219679 1.0172219679 0.84594095064 0.86392567495 0.87851444325 0.89058134991 0.90072551443 
0.6552068806 0.69407236469 0.72561863695 0.75168694275 0.77356233629 0.79216440667 0.45685295248 0.51573716537 0.56421707518 
0.60464862014 0.63877777351 0.66790778838 0.69302191562 0.26576171152 0.33975332011 0.40226393329 0.45538277901 0.50083690068 
0.54002084522 0.57404952988 0.60381225391 
_paraPhiHalf 1 1002 double
0 3.1415926536 0 3.1415926536 1.5707963268 1.5707963268 1.5707963268 1.5707963268 2.5880182947 
0.5535743589 2.5880182947 0.5535743589 0 0 0 0 3.1415926536 3.1415926536 
3.1415926536 3.1415926536 3.1415926536 0.17788134 0.38438696014 0.60631181711 0.82323535693 1.0172219679 1.1799687454 
1.3118704726 1.4175000338 1.5022335207 0.17788134 0.38438696014 0.60631181711 0.82323535693 1.0172219679 1.1799687454 
1.3118704726 1.4175000338 1.5022335207 0.093902416448 0.17615329733 0.2478725152 0.31035131605 0.36486382811 0.41257334776 
0.45449736604 0.4915044461 0.52432611754 0.093902416448 0.17615329733 0.2478725152 0.31035131605 0.36486382811 0.41257334776 
0.45449736604 0.4915044461 0.52432611754 2.9637113136 2.7572056934 2.5352808365 2.3183572967 2.1243706857 1.9616239082 
1.829722181 1.7240926197 1.6393591329 2.9637113136 2.7572056934 2.5352808365 2.3183572967 2.1243706857 1.9616239082 
1.829722181 1.7240926197 1.6393591329 3.0476902371 2.9654393563 2.8937201384 2.8312413375 2.7767288255 2.7290193058 
2.6870952876 2.6500882075 2.617266536 3.0476902371 2.9654393563 2.8937201384 2.8312413375 2.7767288255 2.7290193058 
2.6870952876 2.6500882075 2.617266536 0 0 0 0 3.1415926536 3.1415926536 
3.1415926536 3.1415926536 3.1415926536 0.17788134 0.38438696014 0.60631181711 0.82323535693 1.0172219679 1.1799687454 
1.3118704726 1.4175000338 1.5022335207 0.17788134 0.38438696014 0.60631181711 0.82323535693 1.0172219679 1.1799687454 
1.3118704726 1.4175000338 1.5022335207 0.093902416448 0.17615329733 0.2478725152 0.31035131605 0.36486382811 0.41257334776 
0.45449736604 0.4915044461 0.52432611754 0.093902416448 0.17615329733 0.2478725152 0.31035131605 0.36486382811 0.41257334776 
0.45449736604 0.4915044461 0.52432611754 2.9637113136 2.7572056934 2.5352808365 2.3183572967 2.1243706857 1.9616239082 
1.829722181 1.7240926197 1.6393591329 2.9637113136 2.7572056934 2.5352808365 2.3183572967 2.1243706857 1.9616239082 
1.829722181 1.7240926197 1.6393591329 3.0476902371 2.9654393563 2.8937201384 2.8312413375 2.7767288255 2.7290193058 
2.6870952876 2.6500882075 2.617266536 3.0476902371 2.9654393563 2.8937201384 2.8312413375 2.7767288255 2.7290193058 
2.6870952876 2.6500882075 2.617266536 1.5707963268 1.5707963268 1.5707963268 1.5707963268 1.5707963268 1.5707963268 
1.5707963268 1.5707963268 1.5707963268 1.6743954455 1.7840462375 1.8974821136 2.0119052671 2.1243706857 2.232221744 
2.3334263672 2.426721652 2.5115728246 1.4671972081 1.3575464161 1.24411054 1.1296873865 1.0172219679 0.90937090954 
0.80816628637 0.71487100155 0.63001982895 1.6743954455 1.7840462375 1.8974821136 2.0119052671 2.1243706857 2.232221744 
2.3334263672 2.426721652 2.5115728246 1.4671972081 1.3575464161 1.24411054 1.1296873865 1.0172219679 0.90937090954 
0.80816628637 0.71487100155 0.63001982895 1.5707963268 1.5707963268 1.5707963268 1.5707963268 1.5707963268 1.5707963268 
1.5707963268 1.5707963268 1.5707963268 1.6743954455 1.7840462375 1.8974821136 2.0119052671 2.1243706857 2.232221744 
2.3334263672 2.426721652 2.5115728246 1.4671972081 1.3575464161 1.24411054 1.1296873865 1.0172219679 0.90937090954 
0.80816628637 0.71487100155 0.63001982895 1.6743954455 1.7840462375 1.8974821136 2.0119052671 2.1243706857 2.232221744 
2.3334263672 2.426721652 2.5115728246 1.4671972081 1.3575464161 1.24411054 1.1296873865 1.0172219679 0.90937090954 
0.80816628637 0.71487100155 0.63001982895 2.6824132222 2.7864913217 2.8992382033 3.0186096618 3.1415926536 3.0186096618 
2.8992382033 2.7864913217 2.6824132222 0.45917943135 0.35510133185 0.2423544503 0.12298299178 0 0.12298299178 
0.2423544503 0.35510133185 0.45917943135 0.22715816343 0.49462574053 0.3129712797 0.77059342779 0.68021497688 0.49462574053 
1.0172219679 1.0172219679 1.0172219679 1.0172219679 1.2156949949 1.271087727 1.3676273807 1.5707963268 2.1243706857 
1.3676273807 1.447813335 1.5707963268 1.7739652728 2.1243706857 2.6469669131 1.4827341049 1.5707963268 1.6937793186 
1.8705049266 2.1243706857 2.4613776767 2.8286213739 1.5707963268 1.6588585487 1.7739652728 1.9258976586 2.1243706857 
2.3709992258 2.6469669131 2.9144344902 0.26576171152 0.33975332011 0.45685295248 0.40226393329 0.51573716537 0.6552068806 
0.45538277901 0.56421707518 0.69407236469 0.84594095064 0.50083690068 0.60464862014 0.72561863695 0.86392567495 1.0172219679 
0.54002084522 0.63877777351 0.75168694275 0.87851444325 1.0172219679 1.1636342747 0.57404952988 0.66790778838 0.77356233629 
0.89058134991 1.0172219679 1.1502619915 1.2852923014 0.60381225391 0.69302191562 0.79216440667 0.90072551443 1.0172219679 
1.139116835 1.2630228569 1.3852070904 0.71487100155 0.80816628637 0.80816628637 0.90937090954 0.90937090954 0.90937090954 
1.0172219679 1.0172219679 1.0172219679 1.0172219679 1.1296873865 1.1296873865 1.1296873865 1.1296873865 1.1296873865 
1.24411054 1.24411054 1.24411054 1.24411054 1.24411054 1.24411054 1.3575464161 1.3575464161 1.3575464161 
1.3575464161 1.3575464161 1.3575464161 1.3575464161 1.4671972081 1.4671972081 1.4671972081 1.4671972081 1.4671972081 
1.4671972081 1.4671972081 1.4671972081 1.6743954455 1.6743954455 1.7840462375 1.6743954455 1.7840462375 1.8974821136 
1.6743954455 1.7840462375 1.8974821136 2.0119052671 1.6743954455 1.7840462375 1.8974821136 2.0119052671 2.1243706857 
1.6743954455 1.7840462375 1.8974821136 2.0119052671 2.1243706857 2.232221744 1.6743954455 1.7840462375 1.8974821136 
2.0119052671 2.1243706857 2.232221744 2.3334263672 1.6743954455 1.7840462375 1.8974821136 2.0119052671 2.1243706857 
2.232221744 2.3334263672 2.426721652 1.7563855631 1.8785697967 1.8563003522 2.0024758186 1.9913306621 1.9779583789 
2.1243706857 2.1243706857 2.1243706857 2.1243706857 2.2408671392 2.2510113037 2.2630782103 2.2776669786 2.295651703 
2.3494282469 2.3680303173 2.3899057108 2.4159740166 2.4475202889 2.486385773 2.448570738 2.4736848652 2.5028148801 
2.5369440334 2.5773755784 2.6258554882 2.6847397011 2.5377803997 2.5675431237 2.6015718084 2.6407557529 2.6862098746 
2.7393287203 2.8018393335 2.8758309421 2.718901062 2.8307207459 2.7598010554 2.95115522 2.8800620952 2.8058000847 
3.0774230472 3.00855263 2.9351694502 2.8576792927 3.0774230472 3.1415926536 3.0719036933 2.9967168029 2.91630358 
2.95115522 3.00855263 3.0719036933 3.1415926536 3.0653475414 2.9825888767 2.8307207459 2.8800620952 2.9351694502 
2.9967168029 3.0653475414 3.1415926536 3.0574329311 2.718901062 2.7598010554 2.8058000847 2.8576792927 2.91630358 
2.9825888767 3.0574329311 3.1415926536 2.718901062 2.7598010554 2.8307207459 2.8058000847 2.8800620952 2.95115522 
2.8576792927 2.9351694502 3.00855263 3.0774230472 2.91630358 2.9967168029 3.0719036933 3.1415926536 3.0774230472 
2.9825888767 3.0653475414 3.1415926536 3.0719036933 3.00855263 2.95115522 3.0574329311 3.1415926536 3.0653475414 