# vtk DataFile Version 5.1
vtk output
ASCII
DATASET POLYDATA
POINTS 1002 float
17.8238 36.3356 13.9268 10.5578 29.4366 17.7097 19.5775 33.066 9.99249 
14.5137 24.9436 12.3817 10.2648 34.8744 11.5574 13.0139 30.9252 7.99867 
18.9141 31.8332 19.3472 19.7279 28.1941 16.3527 7.20368 25.4859 13.549 
18.3968 38.9871 7.84547 12.8643 23.1905 20.9548 25.2632 36.0565 14.4387 
17.4538 35.6939 13.9836 16.8257 35.1403 14.2654 15.9904 34.6551 14.7882 
15.0975 34.1566 15.433 14.2075 33.5869 16.0668 13.2999 32.9025 16.6183 
12.426 32.0703 17.0475 11.6731 31.1418 17.3461 11.0596 30.2357 17.5523 
17.3132 36.2297 13.5666 16.5941 36.2139 13.3116 15.5957 36.3127 13.1987 
14.5083 36.4308 13.1362 13.5836 36.4112 13.0021 12.7623 36.1397 12.7809 
11.866 35.6804 12.5288 11.0148 35.2631 12.2569 10.4674 35.0249 11.933 
18.1463 35.9807 14.2972 18.5036 35.5211 14.7261 18.8039 35.0753 15.3139 
18.9594 34.7877 16.0888 19.0068 34.5834 16.9027 19.0398 34.1643 17.5274 
19.0643 33.4416 17.9291 19.0401 32.6996 18.306 18.9768 32.1835 18.8014 
17.7732 36.9306 13.66 17.6854 37.4776 13.2035 17.6273 37.9391 12.5523 
17.6569 38.367 11.8937 17.7872 38.7904 11.2983 17.9921 39.1006 10.5725 
18.2097 39.2019 9.67434 18.3614 39.164 8.8626 18.413 39.0913 8.28867 
18.2862 36.872 14.2296 18.8994 37.3431 14.5304 19.7323 37.4708 14.6602 
20.6074 37.2652 14.6385 21.423 37.1017 14.6518 22.4129 37.1817 14.7599 
23.6515 37.2347 14.8334 24.722 36.9918 14.7845 25.2401 36.531 14.639 
10.2673 29.9211 17.3685 10.0273 30.552 17.0797 9.8591 31.1867 16.7812 
9.83258 31.6728 16.2408 10.0703 32.0434 15.3288 10.5051 32.4894 14.264 
10.7855 33.1159 13.3654 10.6885 33.829 12.6935 10.4051 34.4516 12.1179 
11.1957 29.5485 17.9468 11.9315 29.7498 18.0973 12.7796 29.9389 18.1222 
13.7502 30.0108 18.0434 14.7661 30.0525 17.9807 15.7202 30.2909 18.1174 
16.6151 30.7683 18.5067 17.485 31.2799 18.9656 18.2729 31.6417 19.2672 
9.89141 28.9518 17.6071 9.15039 28.5115 17.506 8.31272 28.1398 17.4847 
7.50806 27.7977 17.4377 7.01657 27.4123 17.0886 6.93517 26.9646 16.3657 
7.01264 26.5055 15.5257 7.02324 26.0896 14.7825 7.035 25.7442 14.1346 
10.4906 28.7404 18.0319 10.4924 28.0132 18.3275 10.5645 27.1892 18.5537 
10.6865 26.2891 18.7934 10.8538 25.4447 19.131 11.0687 24.7659 19.5765 
11.3436 24.242 20.1398 11.7354 23.8043 20.7274 12.2702 23.4367 21.0676 
19.2208 32.2301 10.0584 18.9106 31.2703 10.0967 18.559 30.2744 10.2628 
18.075 29.3489 10.6248 17.4342 28.5534 11.065 16.7133 27.8648 11.4589 
16.0476 27.1956 11.8094 15.4973 26.471 12.116 15.006 25.6969 12.3133 
19.1128 33.0921 9.77094 18.5929 33.0717 9.51505 18.0431 32.9185 9.15514 
17.494 32.5951 8.71136 16.8792 32.2441 8.34451 16.0973 32.0297 8.18058 
15.2132 31.873 8.13668 14.3899 31.5974 8.07171 13.6737 31.2253 7.99411 
19.7838 32.5664 10.3553 19.9922 32.1178 10.8739 20.1433 31.7238 11.5123 
20.2322 31.2871 12.1762 20.3519 30.7131 12.8192 20.4791 30.0607 13.4761 
20.4109 29.4892 14.1869 20.1103 29.0498 14.9436 19.817 28.6465 15.6909 
19.7397 33.8761 9.69924 19.9449 34.6766 9.30119 20.0601 35.4208 8.86511 
20.0151 36.1724 8.46795 19.9397 36.9804 7.97264 19.9113 37.7573 7.28641 
19.7536 38.3786 6.76854 19.3501 38.7874 6.81893 18.8442 38.9764 7.31281 
20.1599 33.4944 10.0389 20.839 33.8797 10.1235 21.482 34.2406 10.4259 
21.9916 34.6071 10.9894 22.4705 34.964 11.596 23.0752 35.2376 12.0669 
23.7617 35.3964 12.5128 24.3824 35.5258 13.0894 24.8824 35.7392 13.768 
14.3261 25.3769 12.0527 14.139 25.9292 11.6434 13.8916 26.4251 11.0774 
13.5848 26.8219 10.4189 13.3188 27.2903 9.80292 13.1652 27.909 9.24475 
13.0892 28.5579 8.71881 13.0429 29.2156 8.31387 13.0193 29.9999 8.09889 
15.0537 25.1494 12.7843 15.6434 25.4574 13.3358 16.2781 25.6492 13.8738 
16.9993 25.6906 14.2669 17.791 25.8453 14.6117 18.4705 26.2287 15.067 
18.8831 26.6307 15.575 19.123 26.979 15.9677 19.383 27.4674 16.2028 
13.8397 24.4729 12.2446 13.092 24.1194 12.2146 12.299 23.8637 12.2779 
11.4196 23.6287 12.3681 10.4523 23.4383 12.4397 9.52975 23.4498 12.5212 
8.75177 23.7646 12.6858 8.0941 24.304 12.9588 7.55775 24.9096 13.2752 
14.3341 24.3071 12.5883 14.1658 23.7742 12.9089 13.996 23.431 13.5975 
13.7809 23.2716 14.7264 13.511 23.2001 15.9795 13.26 23.1168 17.0526 
13.1008 23.0109 18.0863 13.0158 22.9518 19.2612 12.9446 23.0057 20.3374 
10.2516 34.9066 10.9347 10.2604 34.7588 10.259 10.2802 34.4231 9.58895 
10.4198 34.0123 8.98821 10.7601 33.6257 8.52096 11.2126 33.2199 8.22646 
11.6656 32.7011 8.0835 12.1189 32.0772 8.02597 12.5829 31.4513 8.00113 
10.384 34.3498 11.506 10.699 33.3464 11.5734 10.7105 31.9527 11.9627 
10.0807 30.6935 12.6054 9.06055 29.9142 13.0894 8.16375 29.2811 13.1683 
7.59029 28.3578 13.0851 7.26715 27.2428 13.1468 7.14278 26.2555 13.3507 
10.6102 35.2363 11.2026 11.5336 35.6702 10.7605 12.5204 36.4759 10.2412 
12.9278 37.6164 9.60067 13.0054 38.5883 8.81906 13.6711 38.9718 8.14647 
15.0981 38.8999 7.90978 16.5801 38.7732 8.01305 17.6428 38.8085 8.05512 
12.3338 30.205 8.19172 11.6115 29.7131 8.53423 10.9419 29.3221 9.02443 
10.3928 28.7681 9.68646 9.89997 28.0226 10.489 9.33952 27.3164 11.2621 
8.68606 26.7459 11.8659 8.03194 26.2332 12.3703 7.50694 25.7857 12.9209 
13.4367 32.1499 7.8829 13.8956 33.4876 7.7685 14.3691 34.6444 7.60363 
14.8568 35.4986 7.30603 15.388 36.2449 6.88713 15.992 37.0671 6.59893 
16.6503 37.8457 6.70921 17.302 38.39 7.13062 17.8929 38.7213 7.55581 
19.236 31.6381 19.6616 19.572 31.2591 19.8774 19.8888 30.7495 19.7914 
20.087 30.3127 19.3072 20.1353 30.0615 18.624 20.1528 29.8431 18.0537 
20.2023 29.4632 17.6567 20.1712 28.9532 17.2742 19.9837 28.4913 16.8219 
18.4957 31.3247 19.7393 18.035 30.4611 19.7217 17.4518 29.2008 19.3455 
16.6472 27.8425 18.988 15.6931 26.6921 18.9554 14.8485 25.7226 19.2636 
14.2537 24.8135 19.8271 13.7939 24.0376 20.4832 13.3315 23.5039 20.933 
19.5376 32.1826 18.8896 20.261 32.7027 18.3731 21.2219 33.5008 18.1055 
22.4824 34.451 18.1145 23.8268 35.3391 18.0796 24.8803 36.034 17.722 
25.4625 36.4222 17.0514 25.6488 36.4459 16.206 25.5592 36.2452 15.3029 
19.6762 27.077 16.8122 19.9078 25.7962 17.1256 20.0628 24.7227 17.3207 
19.6185 24.2518 17.4448 18.4892 24.3041 17.5392 17.1178 24.336 17.8274 
15.8705 24.0197 18.5799 14.7727 23.5554 19.6405 13.7707 23.2555 20.5231 
20.2243 29.3421 16.0807 20.9363 30.4247 15.819 21.7488 31.2612 15.668 
22.5576 31.9256 15.5942 23.2726 32.7217 15.4711 23.8445 33.7367 15.2719 
24.3395 34.6804 15.0777 24.8233 35.3136 14.9066 25.1901 35.7099 14.702 
7.27572 24.9603 14.0957 7.5521 24.4554 14.7802 7.91713 23.8864 15.7415 
8.19564 23.2923 17.0408 8.46124 22.8942 18.4064 9.02059 22.8252 19.4184 
9.95901 22.94 20.0149 11.0301 23.04 20.4484 12.0096 23.0982 20.8092 
19.1547 39.3796 7.78299 20.0592 39.8778 7.83888 21.0281 40.2284 8.26867 
21.7892 40.1329 9.13383 22.2111 39.5171 10.2145 22.5495 38.5912 11.2478 
23.1388 37.632 12.1468 23.977 36.8354 12.9557 24.7729 36.3101 13.7211 
16.7414 35.694 13.7848 15.7776 35.7619 13.7331 15.8753 35.2037 14.2193 
14.6795 35.8189 13.7337 14.7876 35.208 14.2476 14.918 34.669 14.8135 
13.7154 35.7764 13.6214 13.8117 35.0937 14.1813 13.8972 34.5159 14.7878 
14.0384 34.0733 15.4813 12.9133 35.5844 13.3718 13.0579 34.9166 13.941 
13.079 34.2851 14.608 13.08 33.8504 15.4384 13.1662 33.456 16.1692 
12.0517 35.2444 13.0977 12.3271 34.692 13.6393 12.3755 34.0893 14.3202 
12.2234 33.6233 15.2712 12.1527 33.2549 16.202 12.2512 32.7415 16.763 
11.1694 34.8792 12.8342 11.5276 34.3924 13.3695 11.6707 33.8405 14.0285 
11.4593 33.3633 15.0016 11.2246 32.989 16.0756 11.2342 32.5156 16.8022 
11.427 31.8413 17.1282 10.5808 34.6279 12.5139 10.9152 34.0888 13.0721 
11.084 33.4839 13.7291 10.8666 32.9561 14.6623 10.5239 32.5637 15.7597 
10.406 32.1526 16.6133 10.5378 31.5537 17.0467 10.7819 30.8452 17.2842 
17.2569 36.7561 13.1507 17.0676 37.288 12.5764 16.4797 36.7192 12.7588 
16.8107 37.8598 11.9818 16.1453 37.3078 12.1526 15.4026 36.8714 12.5717 
16.6589 38.4627 11.5052 15.7112 38.0362 11.7288 15.0114 37.5767 12.0452 
14.3209 37.0683 12.5116 16.762 38.91 10.9318 15.463 38.74 11.3843 
14.5748 38.4247 11.7776 14.0568 37.8517 12.0735 13.4747 37.0364 12.4036 
17.0782 39.0261 10.0395 15.5838 39.0739 10.6338 14.3291 39.083 11.3102 
13.7686 38.6651 11.7286 13.4124 37.7316 11.9123 12.7035 36.617 12.1639 
17.4059 38.9286 9.09972 15.96 38.9999 9.48696 14.396 39.2361 10.1716 
13.5259 39.1368 10.8798 13.3023 38.3313 11.2732 12.8222 37.0914 11.5058 
11.8569 35.9958 11.8512 17.5926 38.8452 8.45798 16.338 38.8396 8.52824 
14.7078 39.0641 8.80628 13.4635 39.1474 9.4442 13.1055 38.6002 10.1458 
12.9331 37.4489 10.6522 12.1592 36.2782 11.0781 11.1012 35.5055 11.5318 
16.9742 38.6828 7.68575 16.1906 38.4189 7.22213 15.6924 38.7445 7.53248 
15.4226 37.7898 6.87537 14.8329 38.431 7.15284 14.2034 38.7804 7.42116 
14.8008 36.8359 6.8501 14.2339 37.6046 7.07484 13.6597 38.1932 7.32551 
13.1869 38.4665 7.81306 14.3273 35.8563 7.04914 13.8844 36.436 7.21516 
13.4954 37.072 7.60668 13.1407 37.4513 8.02392 12.9416 37.5827 8.66293 
13.9017 34.9514 7.27289 13.5375 35.2959 7.32671 13.3021 35.7591 7.82665 
13.0967 36.1554 8.41527 12.8897 36.3539 8.92043 12.7062 36.4396 9.51253 
13.4597 33.9183 7.49983 13.0665 34.2634 7.43423 12.7899 34.6106 7.7995 
12.5844 34.9611 8.4478 12.3733 35.246 9.05117 12.1269 35.4577 9.56133 
11.8329 35.6067 10.1233 13.0094 32.6827 7.75634 12.5621 33.1918 7.68564 
12.1554 33.6393 7.82709 11.793 34.0227 8.23673 11.4692 34.3717 8.78769 
11.21 34.7191 9.3512 10.993 35.0284 9.93262 10.7767 35.21 10.5634 
10.2675 34.2738 10.8604 10.0713 33.9873 10.1636 10.4722 33.0803 11.0275 
9.9404 33.5789 9.47535 10.1386 32.7209 10.4331 10.4082 31.585 11.6168 
10.1011 33.1938 8.91729 10.0008 32.4183 9.8006 10.0963 31.3358 11.1294 
9.80606 30.3971 12.3515 10.5233 32.8134 8.60766 10.2179 32.1629 9.27861 
10.0711 31.1997 10.4489 9.64553 30.2565 11.7836 8.91033 29.6407 12.7095 
10.971 32.284 8.50373 10.5491 31.7597 9.00705 10.272 30.9454 9.81447 
9.75178 30.0376 10.9485 8.93246 29.343 11.9962 8.1435 28.8374 12.6488 
[...]
POINT_DATA 1002
FIELD FieldData 4
_paraPhi 1 1002 double
6.2831853072 3.1415926536 6.2831853072 3.1415926536 4.7123889804 4.7123889804 1.5707963268 1.5707963268 3.6951670125 
5.7296109483 2.5880182947 0.5535743589 6.2831853072 6.2831853072 6.2831853072 6.2831853072 3.1415926536 3.1415926536 
3.1415926536 3.1415926536 3.1415926536 6.1053039672 5.898798347 5.6768734901 5.4599499503 5.2659633393 5.1032165617 
4.9713148346 4.8656852733 4.7809517865 0.17788134 0.38438696014 0.60631181711 0.82323535693 1.0172219679 1.1799687454 
1.3118704726 1.4175000338 1.5022335207 6.1892828907 6.1070320098 6.035312792 5.9728339911 5.9183214791 5.8706119594 
5.8286879411 5.7916808611 5.7588591896 0.093902416448 0.17615329733 0.2478725152 0.31035131605 0.36486382811 0.41257334776 
0.45449736604 0.4915044461 0.52432611754 3.3194739936 3.5259796137 3.7479044707 3.9648280105 4.1588146215 4.321561399 
4.4534631262 4.5590926874 4.6438261743 2.9637113136 2.7572056934 2.5352808365 2.3183572967 2.1243706857 1.9616239082 
1.829722181 1.7240926197 1.6393591329 3.23549507 3.3177459509 3.3894651688 3.4519439696 3.5064564817 3.5541660013 
3.5960900196 3.6330970997 3.6659187711 3.0476902371 2.9654393563 2.8937201384 2.8312413375 2.7767288255 2.7290193058 
2.6870952876 2.6500882075 2.617266536 6.2831853072 6.2831853072 6.2831853072 6.2831853072 3.1415926536 3.1415926536 
3.1415926536 3.1415926536 3.1415926536 6.1053039672 5.898798347 5.6768734901 5.4599499503 5.2659633393 5.1032165617 
4.9713148346 4.8656852733 4.7809517865 0.17788134 0.38438696014 0.60631181711 0.82323535693 1.0172219679 1.1799687454 
1.3118704726 1.4175000338 1.5022335207 6.1892828907 6.1070320098 6.035312792 5.9728339911 5.9183214791 5.8706119594 
5.8286879411 5.7916808611 5.7588591896 0.093902416448 0.17615329733 0.2478725152 0.31035131605 0.36486382811 0.41257334776 
0.45449736604 0.4915044461 0.52432611754 3.3194739936 3.5259796137 3.7479044707 3.9648280105 4.1588146215 4.321561399 
4.4534631262 4.5590926874 4.6438261743 2.9637113136 2.7572056934 2.5352808365 2.3183572967 2.1243706857 1.9616239082 
1.829722181 1.7240926197 1.6393591329 3.23549507 3.3177459509 3.3894651688 3.4519439696 3.5064564817 3.5541660013 
3.5960900196 3.6330970997 3.6659187711 3.0476902371 2.9654393563 2.8937201384 2.8312413375 2.7767288255 2.7290193058 
2.6870952876 2.6500882075 2.617266536 4.7123889804 4.7123889804 4.7123889804 4.7123889804 4.7123889804 4.7123889804 
4.7123889804 4.7123889804 4.7123889804 4.6087898617 4.4991390697 4.3857031936 4.2712800401 4.1588146215 4.0509635631 
3.94975894 3.8564636551 3.7716124825 4.8159880991 4.9256388911 5.0390747672 5.1534979207 5.2659633393 5.3738143976 
5.4750190208 5.5683143056 5.6531654782 4.6087898617 4.4991390697 4.3857031936 4.2712800401 4.1588146215 4.0509635631 
3.94975894 3.8564636551 3.7716124825 4.8159880991 4.9256388911 5.0390747672 5.1534979207 5.2659633393 5.3738143976 
5.4750190208 5.5683143056 5.6531654782 1.5707963268 1.5707963268 1.5707963268 1.5707963268 1.5707963268 1.5707963268 
1.5707963268 1.5707963268 1.5707963268 1.6743954455 1.7840462375 1.8974821136 2.0119052671 2.1243706857 2.232221744 
2.3334263672 2.426721652 2.5115728246 1.4671972081 1.3575464161 1.24411054 1.1296873865 1.0172219679 0.90937090954 
0.80816628637 0.71487100155 0.63001982895 1.6743954455 1.7840462375 1.8974821136 2.0119052671 2.1243706857 2.232221744 
2.3334263672 2.426721652 2.5115728246 1.4671972081 1.3575464161 1.24411054 1.1296873865 1.0172219679 0.90937090954 
0.80816628637 0.71487100155 0.63001982895 3.6007720849 3.4966939854 3.3839471039 3.2645756454 3.1415926536 3.0186096618 
2.8992382033 2.7864913217 2.6824132222 5.8240058758 5.9280839753 6.0408308569 6.1602023154 6.2831853072 0.12298299178 
0.2423544503 0.35510133185 0.45917943135 6.0560271438 5.7885595667 5.9702140275 5.5125918794 5.6029703303 5.7885595667 
5.2659633393 5.2659633393 5.2659633393 5.2659633393 5.0674903122 5.0120975802 4.9155579264 4.7123889804 4.1588146215 
4.9155579264 4.8353719722 4.7123889804 4.5092200343 4.1588146215 3.6362183941 4.8004512023 4.7123889804 4.5894059886 
4.4126803806 4.1588146215 3.8218076305 3.4545639333 4.7123889804 4.6243267584 4.5092200343 4.3572876485 4.1588146215 
3.9121860814 3.6362183941 3.368750817 6.0174235957 5.9434319871 5.8263323547 5.8809213739 5.7674481418 5.6279784266 
5.8278025282 5.718968232 5.5891129425 5.4372443565 5.7823484065 5.678536687 5.5575666702 5.4192596322 5.2659633393 
5.743164462 5.6444075337 5.5314983644 5.4046708639 5.2659633393 5.1195510325 5.7091357773 5.6152775188 5.5096229709 
5.3926039573 5.2659633393 5.1329233157 4.9978930058 5.6793730533 5.5901633916 5.4910209005 5.3824597928 5.2659633393 
5.1440684722 5.0201624502 4.8979782167 5.5683143056 5.4750190208 5.4750190208 5.3738143976 5.3738143976 5.3738143976 
5.2659633393 5.2659633393 5.2659633393 5.2659633393 5.1534979207 5.1534979207 5.1534979207 5.1534979207 5.1534979207 
5.0390747672 5.0390747672 5.0390747672 5.0390747672 5.0390747672 5.0390747672 4.9256388911 4.9256388911 4.9256388911 
4.9256388911 4.9256388911 4.9256388911 4.9256388911 4.8159880991 4.8159880991 4.8159880991 4.8159880991 4.8159880991 
4.8159880991 4.8159880991 4.8159880991 4.6087898617 4.6087898617 4.4991390697 4.6087898617 4.4991390697 4.3857031936 
4.6087898617 4.4991390697 4.3857031936 4.2712800401 4.6087898617 4.4991390697 4.3857031936 4.2712800401 4.1588146215 
4.6087898617 4.4991390697 4.3857031936 4.2712800401 4.1588146215 4.0509635631 4.6087898617 4.4991390697 4.3857031936 
4.2712800401 4.1588146215 4.0509635631 3.94975894 4.6087898617 4.4991390697 4.3857031936 4.2712800401 4.1588146215 
4.0509635631 3.94975894 3.8564636551 4.526799744 4.4046155105 4.426884955 4.2807094886 4.2918546451 4.3052269283 
4.1588146215 4.1588146215 4.1588146215 4.1588146215 4.042318168 4.0321740035 4.0201070968 4.0055183285 3.9875336042 
3.9337570603 3.9151549899 3.8932795963 3.8672112905 3.8356650183 3.7967995342 3.8346145692 3.809500442 3.7803704271 
3.7462412737 3.7058097288 3.657329819 3.5984456061 3.7454049075 3.7156421835 3.6816134988 3.6424295543 3.5969754326 
3.5438565869 3.4813459737 3.4073543651 3.5642842451 3.4524645613 3.5233842518 3.3320300872 3.403123212 3.4773852225 
3.20576226 3.2746326772 3.348015857 3.4255060145 3.0774230472 3.1415926536 3.2112816139 3.2864685043 3.3668817272 
2.95115522 3.00855263 3.0719036933 3.1415926536 3.2178377658 3.3005964304 2.8307207459 2.8800620952 2.9351694502 
2.9967168029 3.0653475414 3.1415926536 3.225752376 2.718901062 2.7598010554 2.8058000847 2.8576792927 2.91630358 
2.9825888767 3.0574329311 3.1415926536 3.5642842451 3.5233842518 3.4524645613 3.4773852225 3.403123212 3.3320300872 
3.4255060145 3.348015857 3.2746326772 3.20576226 3.3668817272 3.2864685043 3.2112816139 3.1415926536 3.0774230472 
3.3005964304 3.2178377658 3.1415926536 3.0719036933 3.00855263 2.95115522 3.225752376 3.1415926536 3.0653475414 
2.9967168029 2.9351694502 2.8800620952 2.8307207459 3.1415926536 3.0574329311 2.9825888767 2.91630358 2.8576792927 
2.8058000847 2.7598010554 2.718901062 4.526799744 4.426884955 4.4046155105 4.3052269283 4.2918546451 4.2807094886 
4.1588146215 4.1588146215 4.1588146215 4.1588146215 3.9875336042 4.0055183285 4.0201070968 4.0321740035 4.042318168 
3.7967995342 3.8356650183 3.8672112905 3.8932795963 3.9151549899 3.9337570603 3.5984456061 3.657329819 3.7058097288 
3.7462412737 3.7803704271 3.809500442 3.8346145692 3.4073543651 3.4813459737 3.5438565869 3.5969754326 3.6424295543 
3.6816134988 3.7156421835 3.7454049075 4.7123889804 4.8004512023 4.6243267584 4.9155579264 4.7123889804 4.5092200343 
5.0674903122 4.8353719722 4.5894059886 4.3572876485 5.2659633393 5.0120975802 4.7123889804 4.4126803806 4.1588146215 
5.5125918794 5.2659633393 4.9155579264 4.5092200343 4.1588146215 3.9121860814 5.7885595667 5.6029703303 5.2659633393 
4.7123889804 4.1588146215 3.8218076305 3.6362183941 6.0560271438 5.9702140275 5.7885595667 5.2659633393 4.1588146215 
3.6362183941 3.4545639333 3.368750817 0.22715816343 0.49462574053 0.3129712797 0.77059342779 0.68021497688 0.49462574053 
1.0172219679 1.0172219679 1.0172219679 1.0172219679 1.2156949949 1.271087727 1.3676273807 1.5707963268 2.1243706857 
1.3676273807 1.447813335 1.5707963268 1.7739652728 2.1243706857 2.6469669131 1.4827341049 1.5707963268 1.6937793186 
1.8705049266 2.1243706857 2.4613776767 2.8286213739 1.5707963268 1.6588585487 1.7739652728 1.9258976586 2.1243706857 
2.3709992258 2.6469669131 2.9144344902 1.7563855631 1.8785697967 1.8563003522 2.0024758186 1.9913306621 1.9779583789 
2.1243706857 2.1243706857 2.1243706857 2.1243706857 2.2408671392 2.2510113037 2.2630782103 2.2776669786 2.295651703 
2.3494282469 2.3680303173 2.3899057108 2.4159740166 2.4475202889 2.486385773 2.448570738 2.4736848652 2.5028148801 
2.5369440334 2.5773755784 2.6258554882 2.6847397011 2.5377803997 2.5675431237 2.6015718084 2.6407557529 2.6862098746 
2.7393287203 2.8018393335 2.8758309421 1.6743954455 1.6743954455 1.7840462375 1.6743954455 1.7840462375 1.8974821136 
1.6743954455 1.7840462375 1.8974821136 2.0119052671 1.6743954455 1.7840462375 1.8974821136 2.0119052671 2.1243706857 
1.6743954455 1.7840462375 1.8974821136 2.0119052671 2.1243706857 2.232221744 1.6743954455 1.7840462375 1.8974821136 
2.0119052671 2.1243706857 2.232221744 2.3334263672 1.6743954455 1.7840462375 1.8974821136 2.0119052671 2.1243706857 
2.232221744 2.3334263672 2.426721652 1.4671972081 1.3575464161 1.4671972081 1.24411054 1.3575464161 1.4671972081 
1.1296873865 1.24411054 1.3575464161 1.4671972081 1.0172219679 1.1296873865 1.24411054 1.3575464161 1.4671972081 
0.90937090954 1.0172219679 1.1296873865 1.24411054 1.3575464161 1.4671972081 0.80816628637 0.90937090954 1.0172219679 
1.1296873865 1.24411054 1.3575464161 1.4671972081 0.71487100155 0.80816628637 0.90937090954 1.0172219679 1.1296873865 
1.24411054 1.3575464161 1.4671972081 0.60381225391 0.57404952988 0.69302191562 0.54002084522 0.66790778838 0.79216440667 
0.50083690068 0.63877777351 0.77356233629 0.90072551443 0.45538277901 0.60464862014 0.75168694275 0.89058134991 1.0172219679 
0.40226393329 0.56421707518 0.72561863695 0.87851444325 1.0172219679 1.139116835 0.33975332011 0.51573716537 0.69407236469 
0.86392567495 1.0172219679 1.1502619915 1.2630228569 0.26576171152 0.45685295248 0.6552068806 0.84594095064 1.0172219679 
1.1636342747 1.2852923014 1.3852070904 0.22715816343 0.3129712797 0.49462574053 0.49462574053 0.68021497688 0.77059342779 
1.0172219679 1.0172219679 1.0172219679 1.0172219679 2.1243706857 1.5707963268 1.3676273807 1.271087727 1.2156949949 
2.6469669131 2.1243706857 1.7739652728 1.5707963268 1.447813335 1.3676273807 2.8286213739 2.4613776767 2.1243706857 
1.8705049266 1.6937793186 1.5707963268 1.4827341049 2.9144344902 2.6469669131 2.3709992258 2.1243706857 1.9258976586 
1.7739652728 1.6588585487 1.5707963268 1.7563855631 1.8563003522 1.8785697967 1.9779583789 1.9913306621 2.0024758186 
2.1243706857 2.1243706857 2.1243706857 2.1243706857 2.295651703 2.2776669786 2.2630782103 2.2510113037 2.2408671392 
2.486385773 2.4475202889 2.4159740166 2.3899057108 2.3680303173 2.3494282469 2.6847397011 2.6258554882 2.5773755784 
2.5369440334 2.5028148801 2.4736848652 2.448570738 2.8758309421 2.8018393335 2.7393287203 2.6862098746 2.6407557529 
2.6015718084 2.5675431237 2.5377803997 5.8604937156 5.901393709 5.9723133995 5.9473927383 6.0216547488 6.0927478736 
5.9992719463 6.0767621038 6.1501452836 6.2190157008 6.0578962336 6.1383094565 6.2134963469 0 0.064169606361 
6.1241815303 6.206940195 6.2831853072 0.069688960264 0.13304002361 0.19043743361 6.1990255847 0 0.07624511221 
0.14487585072 0.20642320337 0.26153055843 0.3108719077 0 0.084159722458 0.15900377685 0.22528907359 0.28391336087 
0.3357925689 0.38179159818 0.42269159155 5.8604937156 5.9723133995 5.901393709 6.0927478736 6.0216547488 5.9473927383 
6.2190157008 6.1501452836 6.0767621038 5.9992719463 0.064169606361 0 6.2134963469 6.1383094565 6.0578962336 
0.19043743361 0.13304002361 0.069688960264 6.2831853072 6.206940195 6.1241815303 0.3108719077 0.26153055843 0.20642320337 
0.14487585072 0.07624511221 6.2831853072 6.1990255847 0.42269159155 0.38179159818 0.3357925689 0.28391336087 0.22528907359 
0.15900377685 0.084159722458 0 5.6793730533 5.7091357773 5.5901633916 5.743164462 5.6152775188 5.4910209005 
5.7823484065 5.6444075337 5.5096229709 5.3824597928 5.8278025282 5.678536687 5.5314983644 5.3926039573 5.2659633393 
5.8809213739 5.718968232 5.5575666702 5.4046708639 5.2659633393 5.1440684722 5.9434319871 5.7674481418 5.5891129425 
5.4192596322 5.2659633393 5.1329233157 5.0201624502 6.0174235957 5.8263323547 5.6279784266 5.4372443565 5.2659633393 
5.1195510325 4.9978930058 4.8979782167 1.3852070904 1.2852923014 1.2630228569 1.1636342747 1.1502619915 1.139116835 
1.0172219679 1.0172219679 1.0172219679 1.0172219679 0.84594095064 0.86392567495 0.87851444325 0.89058134991 0.90072551443 
0.6552068806 0.69407236469 0.72561863695 0.75168694275 0.77356233629 0.79216440667 0.45685295248 0.51573716537 0.56421707518 
0.60464862014 0.63877777351 0.66790778838 0.69302191562 0.26576171152 0.33975332011 0.40226393329 0.45538277901 0.50083690068 
0.54002084522 0.57404952988 0.60381225391 
_paraPhiHalf 1 1002 double
0 3.1415926536 0 3.1415926536 1.5707963268 1.5707963268 1.5707963268 1.5707963268 2.5880182947 
0.5535743589 2.5880182947 0.5535743589 0 0 0 0 3.1415926536 3.1415926536 
3.1415926536 3.1415926536 3.1415926536 0.17788134 0.38438696014 0.60631181711 0.82323535693 1.0172219679 1.1799687454 
1.3118704726 1.4175000338 1.5022335207 0.17788134 0.38438696014 0.60631181711 0.82323535693 1.0172219679 1.1799687454 
1.3118704726 1.4175000338 1.5022335207 0.093902416448 0.17615329733 0.2478725152 0.31035131605 0.36486382811 0.41257334776 
0.45449736604 0.4915044461 0.52432611754 0.093902416448 0.17615329733 0.2478725152 0.31035131605 0.36486382811 0.41257334776 
0.45449736604 0.4915044461 0.52432611754 2.9637113136 2.7572056934 2.5352808365 2.3183572967 2.1243706857 1.9616239082 
1.829722181 1.7240926197 1.6393591329 2.9637113136 2.7572056934 2.5352808365 2.3183572967 2.1243706857 1.9616239082 
1.829722181 1.7240926197 1.6393591329 3.0476902371 2.9654393563 2.8937201384 2.8312413375 2.7767288255 2.7290193058 
2.6870952876 2.6500882075 2.617266536 3.0476902371 2.9654393563 2.8937201384 2.8312413375 2.7767288255 2.7290193058 
2.6870952876 2.6500882075 2.617266536 0 0 0 0 3.1415926536 3.1415926536 
3.1415926536 3.1415926536 3.1415926536 0.17788134 0.38438696014 0.60631181711 0.82323535693 1.0172219679 1.1799687454 
1.3118704726 1.4175000338 1.5022335207 0.17788134 0.38438696014 0.60631181711 0.82323535693 1.0172219679 1.1799687454 
1.3118704726 1.4175000338 1.5022335207 0.093902416448 0.17615329733 0.2478725152 0.31035131605 0.36486382811 0.41257334776 
0.45449736604 0.4915044461 0.52432611754 0.093902416448 0.17615329733 0.2478725152 0.31035131605 0.36486382811 0.41257334776 
0.45449736604 0.4915044461 0.52432611754 2.9637113136 2.7572056934 2.5352808365 2.3183572967 2.1243706857 1.9616239082 
1.829722181 1.7240926197 1.6393591329 2.9637113136 2.7572056934 2.5352808365 2.3183572967 2.1243706857 1.9616239082 
1.829722181 1.7240926197 1.6393591329 3.0476902371 2.9654393563 2.8937201384 2.8312413375 2.7767288255 2.7290193058 
2.6870952876 2.6500882075 2.617266536 3.0476902371 2.9654393563 2.8937201384 2.8312413375 2.7767288255 2.7290193058 
2.6870952876 2.6500882075 2.617266536 1.5707963268 1.5707963268 1.5707963268 1.5707963268 1.5707963268 1.5707963268 
1.5707963268 1.5707963268 1.5707963268 1.6743954455 1.7840462375 1.8974821136 2.0119052671 2.1243706857 2.232221744 
2.3334263672 2.426721652 2.5115728246 1.4671972081 1.3575464161 1.24411054 1.1296873865 1.0172219679 0.90937090954 
0.80816628637 0.71487100155 0.63001982895 1.6743954455 1.7840462375 1.8974821136 2.0119052671 2.1243706857 2.232221744 
2.3334263672 2.426721652 2.5115728246 1.4671972081 1.3575464161 1.24411054 1.1296873865 1.0172219679 0.90937090954 
0.80816628637 0.71487100155 0.63001982895 1.5707963268 1.5707963268 1.5707963268 1.5707963268 1.5707963268 1.5707963268 
1.5707963268 1.5707963268 1.5707963268 1.6743954455 1.7840462375 1.8974821136 2.0119052671 2.1243706857 2.232221744 
2.3334263672 2.426721652 2.5115728246 1.4671972081 1.3575464161 1.24411054 1.1296873865 1.0172219679 0.90937090954 
0.80816628637 0.71487100155 0.63001982895 1.6743954455 1.7840462375 1.8974821136 2.0119052671 2.1243706857 2.232221744 
2.3334263672 2.426721652 2.5115728246 1.4671972081 1.3575464161 1.24411054 1.1296873865 1.0172219679 0.90937090954 
0.80816628637 0.71487100155 0.63001982895 2.6824132222 2.7864913217 2.8992382033 3.0186096618 3.1415926536 3.0186096618 
2.8992382033 2.7864913217 2.6824132222 0.45917943135 0.35510133185 0.2423544503 0.12298299178 0 0.12298299178 
0.2423544503 0.35510133185 0.45917943135 0.22715816343 0.49462574053 0.3129712797 0.77059342779 0.68021497688 0.49462574053 
1.0172219679 1.0172219679 1.0172219679 1.0172219679 1.2156949949 1.271087727 1.3676273807 1.5707963268 2.1243706857 
1.3676273807 1.447813335 1.5707963268 1.7739652728 2.1243706857 2.6469669131 1.4827341049 1.5707963268 1.6937793186 
1.8705049266 2.1243706857 2.4613776767 2.8286213739 1.5707963268 1.6588585487 1.7739652728 1.9258976586 2.1243706857 
2.3709992258 2.6469669131 2.9144344902 0.26576171152 0.33975332011 0.45685295248 0.40226393329 0.51573716537 0.6552068806 
0.45538277901 0.56421707518 0.69407236469 0.84594095064 0.50083690068 0.60464862014 0.72561863695 0.86392567495 1.0172219679 
0.54002084522 0.63877777351 0.75168694275 0.87851444325 1.0172219679 1.1636342747 0.57404952988 0.66790778838 0.77356233629 
0.89058134991 1.0172219679 1.1502619915 1.2852923014 0.60381225391 0.69302191562 0.79216440667 0.90072551443 1.0172219679 
1.139116835 1.2630228569 1.3852070904 0.71487100155 0.80816628637 0.80816628637 0.90937090954 0.90937090954 0.90937090954 
1.0172219679 1.0172219679 1.0172219679 1.0172219679 1.1296873865 1.1296873865 1.1296873865 1.1296873865 1.1296873865 
1.24411054 1.24411054 1.24411054 1.24411054 1.24411054 1.24411054 1.3575464161 1.3575464161 1.3575464161 
1.3575464161 1.3575464161 1.3575464161 1.3575464161 1.4671972081 1.4671972081 1.4671972081 1.4671972081 1.4671972081 
1.4671972081 1.4671972081 1.4671972081 1.6743954455 1.6743954455 1.7840462375 1.6743954455 1.7840462375 1.8974821136 
1.6743954455 1.7840462375 1.8974821136 2.0119052671 1.6743954455 1.7840462375 1.8974821136 2.0119052671 2.1243706857 
1.6743954455 1.7840462375 1.8974821136 2.0119052671 2.1243706857 2.232221744 1.6743954455 1.7840462375 1.8974821136 
2.0119052671 2.1243706857 2.232221744 2.3334263672 1.6743954455 1.7840462375 1.8974821136 2.0119052671 2.1243706857 
2.232221744 2.3334263672 2.426721652 1.7563855631 1.8785697967 1.8563003522 2.0024758186 1.9913306621 1.9779583789 
2.1243706857 2.1243706857 2.1243706857 2.1243706857 2.2408671392 2.2510113037 2.2630782103 2.2776669786 2.295651703 
2.3494282469 2.3680303173 2.3899057108 2.4159740166 2.4475202889 2.486385773 2.448570738 2.4736848652 2.5028148801 
2.5369440334 2.5773755784 2.6258554882 2.6847397011 2.5377803997 2.5675431237 2.6015718084 2.6407557529 2.6862098746 
2.7393287203 2.8018393335 2.8758309421 2.718901062 2.8307207459 2.7598010554 2.95115522 2.8800620952 2.8058000847 
3.0774230472 3.00855263 2.9351694502 2.8576792927 3.0774230472 3.1415926536 3.0719036933 2.9967168029 2.91630358 
2.95115522 3.00855263 3.0719036933 3.1415926536 3.0653475414 2.9825888767 2.8307207459 2.8800620952 2.9351694502 
2.9967168029 3.0653475414 3.1415926536 3.0574329311 2.718901062 2.7598010554 2.8058000847 2.8576792927 2.91630358 
2.9825888767 3.0574329311 3.1415926536 2.718901062 2.7598010554 2.8307207459 2.8058000847 2.8800620952 2.95115522 
2.8576792927 2.9351694502 3.00855263 3.0774230472 2.91630358 2.9967168029 3.0719036933 3.1415926536 3.0774230472 
2.9825888767 3.0653475414 3.1415926536 3.0719036933 3.00855263 2.95115522 3.0574329311 3.1415926536 3.0653475414 