# vtk DataFile Version 5.1
vtk output
ASCII
DATASET POLYDATA
POINTS 1002 float
-5.78938 -0.113263 -5.16495 4.91084 -0.0179965 -3.74288 -5.08747 0.0796689 5.49617 
5.24823 -0.0938695 2.75939 0.519523 8.09604 -3.90942 -0.138321 6.92464 1.6928 
1.45813 -8.22464 -3.86777 1.08334 -7.03048 1.54631 9.67163 5.61514 0.723202 
-8.716 3.80964 0.841086 9.18687 -5.42323 0.958496 -11.8593 -3.84062 1.52462 
-4.75723 -0.124406 -5.39642 -3.60978 -0.204769 -5.62662 -2.36885 -0.322423 -5.73643 
-1.13838 -0.368274 -5.5753 0.0100947 -0.304009 -5.17269 1.14699 -0.225197 -4.78709 
2.32171 -0.200892 -4.59976 3.41166 -0.186874 -4.48434 4.27457 -0.12656 -4.21476 
-5.46875 0.471351 -5.09869 -4.9359 1.1699 -4.88613 -4.2596 2.03491 -4.63197 
-3.58173 2.97781 -4.47033 -2.90853 3.86102 -4.36549 -2.13783 4.7495 -4.21342 
-1.32109 5.78073 -4.0661 -0.615523 6.82727 -4.01185 -0.0355363 7.62245 -3.99443 
-5.32661 -0.743725 -5.30371 -4.77199 -1.54697 -5.47782 -4.21855 -2.42202 -5.6372 
-3.59731 -3.22339 -5.61877 -2.75943 -3.98221 -5.34443 -1.75951 -4.84086 -4.97805 
-0.810347 -5.77971 -4.70571 0.0115215 -6.67054 -4.49718 0.763594 -7.47884 -4.2292 
-6.62738 0.203473 -4.9425 -7.39083 0.547989 -4.60089 -7.99559 0.993954 -3.96924 
-8.4589 1.47022 -3.11306 -8.86753 1.82229 -2.32142 -9.20091 2.08504 -1.68537 
-9.31955 2.44768 -1.04127 -9.18905 2.94385 -0.345579 -8.94399 3.43354 0.293302 
-6.57056 -0.470735 -4.96708 -7.44249 -0.832505 -4.6737 -8.4014 -1.1939 -4.32076 
-9.34446 -1.55402 -3.85996 -10.1354 -1.87976 -3.17197 -10.7551 -2.14603 -2.23718 
-11.2714 -2.42433 -1.18274 -11.6777 -2.82276 -0.147385 -11.8898 -3.33546 0.778444 
4.58478 0.741489 -3.6963 4.11576 1.62183 -3.5134 3.6408 2.56961 -3.40082 
3.31011 3.46969 -3.57625 3.07419 4.27591 -4.01132 2.7187 5.10314 -4.45613 
2.15672 6.04767 -4.6919 1.51984 6.98164 -4.64466 0.961798 7.68652 -4.35045 
4.74316 -0.812804 -3.94423 4.41804 -1.63423 -3.96738 3.99148 -2.53264 -3.96648 
3.59334 -3.56178 -4.1077 3.25576 -4.61105 -4.25107 2.87875 -5.49683 -4.15502 
2.4342 -6.23581 -3.92746 2.02529 -6.96174 -3.83809 1.71528 -7.66406 -3.8859 
5.32425 0.577637 -3.15532 5.83535 1.18671 -2.55745 6.51588 1.73815 -2.17145 
7.27751 2.29051 -1.96848 7.95995 2.96238 -1.65867 8.54903 3.71556 -1.15706 
9.10874 4.39407 -0.689919 9.56173 4.93297 -0.324589 9.7587 5.34521 0.120944 
5.37847 -0.38162 -3.28652 5.84319 -0.775597 -2.72063 6.39671 -1.23312 -2.19535 
7.07378 -1.77693 -1.77784 7.78525 -2.38939 -1.4613 8.38947 -3.02522 -1.25453 
8.81264 -3.66369 -1.0603 9.06752 -4.30585 -0.647097 9.18748 -4.91628 0.0774108 
-3.96394 0.094055 5.56645 -2.93197 0.118636 5.30722 -2.21267 0.282068 4.50611 
-1.6403 0.525822 3.34747 -0.732226 0.585574 2.45435 0.657122 0.363937 2.212 
2.13426 0.085006 2.3517 3.35571 -0.0542639 2.48519 4.34797 -0.0834695 2.57894 
-4.58746 0.697816 5.76378 -4.13107 1.44316 5.96213 -3.6945 2.2869 5.92845 
-3.18577 3.12558 5.6555 -2.61075 3.92707 5.3268 -2.09038 4.72041 4.94482 
-1.64645 5.43406 4.25228 -1.17649 5.985 3.23797 -0.648881 6.44297 2.2784 
-4.90234 -0.499023 5.23614 -4.61651 -1.176 4.74921 -4.1974 -1.88726 4.07785 
-3.70717 -2.48238 3.38798 -3.15506 -2.96622 2.76237 -2.38069 -3.57974 2.10823 
-1.32256 -4.46066 1.4554 -0.236968 -5.44635 1.08113 0.578609 -6.3215 1.15898 
-5.84803 0.364352 5.39811 -6.55716 0.634125 5.10518 -7.23245 0.96824 4.73781 
-7.93578 1.40952 4.45777 -8.59245 1.88464 4.23407 -9.01545 2.32876 3.80586 
-9.14795 2.77973 3.0573 -9.09333 3.24051 2.19457 -8.94141 3.61036 1.44401 
-6.10136 -0.363834 5.27299 -7.10926 -0.95907 5.13654 -8.03204 -1.65283 4.94342 
-8.9282 -2.25836 4.49027 -9.92951 -2.682 3.91479 -11.009 -3.07308 3.55926 
-11.9069 -3.52933 3.39019 -12.3547 -3.88176 3.04622 -12.293 -3.9648 2.37184 
4.88011 0.518393 2.54119 4.40931 1.16985 2.39906 3.82186 1.9082 2.27562 
3.18696 2.74223 2.09234 2.58028 3.56995 1.86411 1.96736 4.30377 1.64862 
1.31165 4.9956 1.47482 0.702904 5.69853 1.3983 0.230604 6.35958 1.4814 
5.03323 -0.732866 2.84803 4.80313 -1.47377 2.82959 4.50022 -2.30436 2.62785 
4.07605 -3.19076 2.33325 3.62384 -4.08184 2.11525 3.26635 -4.91292 1.98931 
2.91805 -5.63814 1.85457 2.40635 -6.24218 1.70749 1.74324 -6.70951 1.60943 
5.96618 0.28434 2.8793 6.70201 0.734013 3.04038 7.34287 1.29941 3.1514 
7.92522 1.9757 3.17019 8.57888 2.67806 3.20582 9.23024 3.3226 3.30121 
9.63861 3.9208 3.21049 9.75237 4.52561 2.66527 9.72797 5.11869 1.73203 
6.03684 -0.509431 3.1543 6.89688 -0.976248 3.65248 7.7274 -1.45917 3.94324 
8.37233 -2.00603 3.69697 8.77606 -2.73651 3.05248 9.04885 -3.63269 2.55197 
9.2948 -4.47317 2.37899 9.45969 -5.05509 2.16864 9.42979 -5.34559 1.65054 
0.632895 8.42787 -3.46074 0.750687 8.72731 -2.89734 0.801493 9.17206 -2.26679 
0.671328 9.74727 -1.52374 0.367618 10.1031 -0.564494 0.0878754 9.90776 0.500012 
-0.0212612 9.23496 1.30487 -0.0314224 8.39898 1.63869 -0.0648291 7.61058 1.66954 
1.45029 8.25546 -4.02873 2.50313 8.46039 -4.03692 3.42889 8.64795 -3.85961 
4.18924 8.5244 -3.39684 5.11148 8.02108 -2.68966 6.39964 7.53807 -1.99632 
7.74406 7.31426 -1.46693 8.73247 7.05066 -0.922326 9.31003 6.45285 -0.167536 
-0.196002 8.10592 -3.46215 -0.86343 7.93928 -2.91074 -1.61403 7.52338 -2.26267 
-2.61037 6.92253 -1.60462 -3.81967 6.35104 -1.09254 -5.03886 5.90889 -0.738915 
-6.14978 5.4668 -0.384004 -7.14907 4.92311 0.0409441 -8.01465 4.34112 0.462064 
0.564179 7.15966 1.33409 1.38864 7.38952 1.31125 2.50941 7.36593 1.40239 
3.8944 6.99951 1.3245 5.21939 6.61114 1.11265 6.28821 6.56178 0.9913 
7.26276 6.72963 0.974883 8.25801 6.70027 0.9307 9.11546 6.2859 0.829915 
-0.876372 7.15038 2.23381 -1.86445 7.39304 2.73679 -2.99423 7.4797 2.93935 
-3.97797 7.18622 2.82099 -4.76283 6.58603 2.603 -5.6144 6.0313 2.38256 
-6.59807 5.628 2.05424 -7.47259 5.14703 1.60811 -8.13493 4.48666 1.17697 
1.70374 -8.97199 -3.4403 1.87339 -9.71373 -2.73017 1.86594 -10.3302 -1.79537 
1.70293 -10.6695 -0.836505 1.48699 -10.5975 0.0261837 1.2552 -10.0767 0.825265 
1.02761 -9.24598 1.49282 0.904519 -8.36747 1.82382 0.948321 -7.6269 1.7751 
2.23545 -8.57481 -3.46555 2.93902 -8.68553 -2.93987 3.6688 -8.53505 -2.35966 
4.56493 -8.26861 -1.78764 5.52626 -7.95982 -1.22935 6.30875 -7.48849 -0.672689 
6.95372 -6.8511 -0.138869 7.68581 -6.26327 0.32759 8.49486 -5.82773 0.6922 
0.68851 -8.12695 -3.91636 -0.311482 -7.79398 -3.78993 -1.52147 -7.27121 -3.54183 
-2.95893 -6.59561 -3.156 -4.65187 -5.82003 -2.52594 -6.4416 -5.09547 -1.68769 
-8.05922 -4.57219 -0.837499 -9.44716 -4.24787 -0.0494603 -10.7146 -4.0273 0.740507 
1.86572 -7.45146 2.05809 2.73505 -7.75136 2.568 3.72536 -7.99677 3.10298 
4.72003 -8.16495 3.65064 5.60093 -8.06545 3.95291 6.42075 -7.64041 3.75796 
7.25723 -7.10602 3.17696 8.04787 -6.61123 2.466 8.69643 -6.07768 1.71834 
0.175114 -6.78497 1.15862 -0.88762 -6.39705 0.748429 -2.18752 -6.1316 0.507396 
-3.7085 -6.2391 0.625482 -5.31433 -6.51046 1.0258 -6.8954 -6.4145 1.3927 
-8.41016 -5.81664 1.55713 -9.78856 -5.06505 1.60922 -10.9475 -4.41549 1.61989 
10.1012 4.57908 1.17512 10.6109 3.58701 1.42648 11.3212 2.73892 1.4462 
12.0409 1.88824 1.4399 12.2849 0.83261 1.46122 11.85 -0.466195 1.25471 
11.0885 -1.91997 0.811177 10.3887 -3.35619 0.532834 9.79065 -4.55798 0.644109 
-9.53685 3.19483 0.925925 -10.5012 2.75639 1.10987 -11.4891 2.30225 1.33291 
-12.3484 1.50198 1.41276 -13.1032 0.341722 1.31537 -13.7879 -0.851003 1.31335 
-14.1368 -1.85409 1.56609 -13.8429 -2.66756 1.8239 -12.9736 -3.32242 1.80532 
-4.37351 0.525142 -5.24567 -3.78736 1.28445 -4.9829 -3.14142 0.48843 -5.42217 
-3.08625 2.18763 -4.77101 -2.50254 1.30601 -5.17803 -1.84359 0.423859 -5.54571 
-2.40063 3.14452 -4.68369 -1.78127 2.2695 -5.04094 -1.19289 1.3345 -5.36945 
-0.610899 0.455212 -5.43145 -1.73015 4.08319 -4.60082 -1.0902 3.28014 -4.96402 
-0.477952 2.38185 -5.23577 0.0150195 1.45205 -5.26507 0.540823 0.565856 -5.05305 
-1.02166 5.08091 -4.47466 -0.440813 4.2681 -4.82766 0.210177 3.41509 -5.0408 
0.700967 2.52293 -5.00428 1.1372 1.5749 -4.80262 1.70355 0.636476 -4.64868 
-0.31712 6.13447 -4.40813 0.209549 5.25546 -4.70191 0.858553 4.35057 -4.81643 
1.38051 3.49533 -4.67435 1.76128 2.60251 -4.39927 2.23266 1.62116 -4.27639 
2.84681 0.653085 -4.37428 0.337146 7.04732 -4.40515 0.870418 6.19596 -4.67108 
1.50974 5.22438 -4.70995 2.05278 4.32851 -4.4738 2.40321 3.50423 -4.07252 
2.74317 2.60855 -3.80955 3.24927 1.62514 -3.87496 3.82556 0.68146 -4.10425 
-6.16124 0.820559 -4.83237 -6.74009 1.22993 -4.38248 -5.47577 1.63029 -4.57129 
-7.21341 1.71417 -3.63209 -5.9333 2.1379 -4.0491 -4.73219 2.61933 -4.30977 
-7.63966 2.1245 -2.77139 -6.35892 2.61808 -3.27548 -5.15035 3.16189 -3.77759 
-4.01745 3.58249 -4.13558 -8.00797 2.38654 -2.06453 -6.75438 2.96785 -2.48502 
-5.52022 3.59872 -3.02741 -4.31884 4.07865 -3.56701 -3.18319 4.43662 -3.94628 
-8.2119 2.69715 -1.46056 -7.03231 3.29536 -1.84098 -5.81677 3.9905 -2.26911 
-4.51957 4.5203 -2.78647 -3.24968 4.94655 -3.29344 -2.19033 5.39484 -3.70775 
-8.21327 3.21895 -0.807746 -7.14175 3.79073 -1.23855 -6.00543 4.47479 -1.61418 
-4.70788 5.0134 -1.99874 -3.31482 5.46138 -2.48177 -2.1376 5.99152 -3.02819 
-1.30374 6.51599 -3.55079 -8.11296 3.83294 -0.142078 -7.1515 4.40152 -0.596771 
-6.09925 5.02164 -1.00105 -4.89613 5.52433 -1.32655 -3.53297 5.96716 -1.71378 
-2.2654 6.51556 -2.27444 -1.34566 7.09905 -2.91685 -0.685143 7.49803 -3.50761 
-7.35593 5.13434 0.792405 -6.54186 5.73985 1.18789 -6.35827 5.67948 0.351945 
-5.56175 6.18822 1.57636 -5.40264 6.18512 0.698138 -5.22503 6.10038 -0.089319 
-4.66779 6.81161 1.87148 -4.45546 6.80284 0.994018 -4.25032 6.70178 0.155589 
-4.06058 6.57597 -0.521696 -3.9463 7.63036 2.1066 -3.72965 7.8168 1.20768 
-3.45811 7.74262 0.272358 -3.21036 7.53321 -0.490427 -2.93177 7.2647 -1.06852 
-3.08139 8.15552 2.3041 -3.00897 8.73878 1.43715 -2.79789 9.00464 0.393722 
-2.52989 8.84763 -0.55468 -2.23981 8.42623 -1.23645 -1.91162 7.96493 -1.75511 
-1.95221 8.13915 2.31631 -2.00148 8.9844 1.67581 -1.9469 9.68497 0.703677 
-1.75781 9.87034 -0.397087 -1.50608 9.47451 -1.29088 -1.25698 8.86446 -1.91305 
[...]
POINT_DATA 1002
FIELD FieldData 4
_paraPhi 1 1002 double
6.2831853072 3.1415926536 6.2831853072 3.1415926536 4.7123889804 4.7123889804 1.5707963268 1.5707963268 3.6951670125 
5.7296109483 2.5880182947 0.5535743589 6.2831853072 6.2831853072 6.2831853072 6.2831853072 3.1415926536 3.1415926536 
3.1415926536 3.1415926536 3.1415926536 6.1053039672 5.898798347 5.6768734901 5.4599499503 5.2659633393 5.1032165617 
4.9713148346 4.8656852733 4.7809517865 0.17788134 0.38438696014 0.60631181711 0.82323535693 1.0172219679 1.1799687454 
1.3118704726 1.4175000338 1.5022335207 6.1892828907 6.1070320098 6.035312792 5.9728339911 5.9183214791 5.8706119594 
5.8286879411 5.7916808611 5.7588591896 0.093902416448 0.17615329733 0.2478725152 0.31035131605 0.36486382811 0.41257334776 
0.45449736604 0.4915044461 0.52432611754 3.3194739936 3.5259796137 3.7479044707 3.9648280105 4.1588146215 4.321561399 
4.4534631262 4.5590926874 4.6438261743 2.9637113136 2.7572056934 2.5352808365 2.3183572967 2.1243706857 1.9616239082 
1.829722181 1.7240926197 1.6393591329 3.23549507 3.3177459509 3.3894651688 3.4519439696 3.5064564817 3.5541660013 
3.5960900196 3.6330970997 3.6659187711 3.0476902371 2.9654393563 2.8937201384 2.8312413375 2.7767288255 2.7290193058 
2.6870952876 2.6500882075 2.617266536 6.2831853072 6.2831853072 6.2831853072 6.2831853072 3.1415926536 3.1415926536 
3.1415926536 3.1415926536 3.1415926536 6.1053039672 5.898798347 5.6768734901 5.4599499503 5.2659633393 5.1032165617 
4.9713148346 4.8656852733 4.7809517865 0.17788134 0.38438696014 0.60631181711 0.82323535693 1.0172219679 1.1799687454 
1.3118704726 1.4175000338 1.5022335207 6.1892828907 6.1070320098 6.035312792 5.9728339911 5.9183214791 5.8706119594 
5.8286879411 5.7916808611 5.7588591896 0.093902416448 0.17615329733 0.2478725152 0.31035131605 0.36486382811 0.41257334776 
0.45449736604 0.4915044461 0.52432611754 3.3194739936 3.5259796137 3.7479044707 3.9648280105 4.1588146215 4.321561399 
4.4534631262 4.5590926874 4.6438261743 2.9637113136 2.7572056934 2.5352808365 2.3183572967 2.1243706857 1.9616239082 
1.829722181 1.7240926197 1.6393591329 3.23549507 3.3177459509 3.3894651688 3.4519439696 3.5064564817 3.5541660013 
3.5960900196 3.6330970997 3.6659187711 3.0476902371 2.9654393563 2.8937201384 2.8312413375 2.7767288255 2.7290193058 
2.6870952876 2.6500882075 2.617266536 4.7123889804 4.7123889804 4.7123889804 4.7123889804 4.7123889804 4.7123889804 
4.7123889804 4.7123889804 4.7123889804 4.6087898617 4.4991390697 4.3857031936 4.2712800401 4.1588146215 4.0509635631 
3.94975894 3.8564636551 3.7716124825 4.8159880991 4.9256388911 5.0390747672 5.1534979207 5.2659633393 5.3738143976 
5.4750190208 5.5683143056 5.6531654782 4.6087898617 4.4991390697 4.3857031936 4.2712800401 4.1588146215 4.0509635631 
3.94975894 3.8564636551 3.7716124825 4.8159880991 4.9256388911 5.0390747672 5.1534979207 5.2659633393 5.3738143976 
5.4750190208 5.5683143056 5.6531654782 1.5707963268 1.5707963268 1.5707963268 1.5707963268 1.5707963268 1.5707963268 
1.5707963268 1.5707963268 1.5707963268 1.6743954455 1.7840462375 1.8974821136 2.0119052671 2.1243706857 2.232221744 
2.3334263672 2.426721652 2.5115728246 1.4671972081 1.3575464161 1.24411054 1.1296873865 1.0172219679 0.90937090954 
0.80816628637 0.71487100155 0.63001982895 1.6743954455 1.7840462375 1.8974821136 2.0119052671 2.1243706857 2.232221744 
2.3334263672 2.426721652 2.5115728246 1.4671972081 1.3575464161 1.24411054 1.1296873865 1.0172219679 0.90937090954 
0.80816628637 0.71487100155 0.63001982895 3.6007720849 3.4966939854 3.3839471039 3.2645756454 3.1415926536 3.0186096618 
2.8992382033 2.7864913217 2.6824132222 5.8240058758 5.9280839753 6.0408308569 6.1602023154 6.2831853072 0.12298299178 
0.2423544503 0.35510133185 0.45917943135 6.0560271438 5.7885595667 5.9702140275 5.5125918794 5.6029703303 5.7885595667 
5.2659633393 5.2659633393 5.2659633393 5.2659633393 5.0674903122 5.0120975802 4.9155579264 4.7123889804 4.1588146215 
4.9155579264 4.8353719722 4.7123889804 4.5092200343 4.1588146215 3.6362183941 4.8004512023 4.7123889804 4.5894059886 
4.4126803806 4.1588146215 3.8218076305 3.4545639333 4.7123889804 4.6243267584 4.5092200343 4.3572876485 4.1588146215 
3.9121860814 3.6362183941 3.368750817 6.0174235957 5.9434319871 5.8263323547 5.8809213739 5.7674481418 5.6279784266 
5.8278025282 5.718968232 5.5891129425 5.4372443565 5.7823484065 5.678536687 5.5575666702 5.4192596322 5.2659633393 
5.743164462 5.6444075337 5.5314983644 5.4046708639 5.2659633393 5.1195510325 5.7091357773 5.6152775188 5.5096229709 
5.3926039573 5.2659633393 5.1329233157 4.9978930058 5.6793730533 5.5901633916 5.4910209005 5.3824597928 5.2659633393 
5.1440684722 5.0201624502 4.8979782167 5.5683143056 5.4750190208 5.4750190208 5.3738143976 5.3738143976 5.3738143976 
5.2659633393 5.2659633393 5.2659633393 5.2659633393 5.1534979207 5.1534979207 5.1534979207 5.1534979207 5.1534979207 
5.0390747672 5.0390747672 5.0390747672 5.0390747672 5.0390747672 5.0390747672 4.9256388911 4.9256388911 4.9256388911 
4.9256388911 4.9256388911 4.9256388911 4.9256388911 4.8159880991 4.8159880991 4.8159880991 4.8159880991 4.8159880991 
4.8159880991 4.8159880991 4.8159880991 4.6087898617 4.6087898617 4.4991390697 4.6087898617 4.4991390697 4.3857031936 
4.6087898617 4.4991390697 4.3857031936 4.2712800401 4.6087898617 4.4991390697 4.3857031936 4.2712800401 4.1588146215 
4.6087898617 4.4991390697 4.3857031936 4.2712800401 4.1588146215 4.0509635631 4.6087898617 4.4991390697 4.3857031936 
4.2712800401 4.1588146215 4.0509635631 3.94975894 4.6087898617 4.4991390697 4.3857031936 4.2712800401 4.1588146215 
4.0509635631 3.94975894 3.8564636551 4.526799744 4.4046155105 4.426884955 4.2807094886 4.2918546451 4.3052269283 
4.1588146215 4.1588146215 4.1588146215 4.1588146215 4.042318168 4.0321740035 4.0201070968 4.0055183285 3.9875336042 
3.9337570603 3.9151549899 3.8932795963 3.8672112905 3.8356650183 3.7967995342 3.8346145692 3.809500442 3.7803704271 
3.7462412737 3.7058097288 3.657329819 3.5984456061 3.7454049075 3.7156421835 3.6816134988 3.6424295543 3.5969754326 
3.5438565869 3.4813459737 3.4073543651 3.5642842451 3.4524645613 3.5233842518 3.3320300872 3.403123212 3.4773852225 
3.20576226 3.2746326772 3.348015857 3.4255060145 3.0774230472 3.1415926536 3.2112816139 3.2864685043 3.3668817272 
2.95115522 3.00855263 3.0719036933 3.1415926536 3.2178377658 3.3005964304 2.8307207459 2.8800620952 2.9351694502 
2.9967168029 3.0653475414 3.1415926536 3.225752376 2.718901062 2.7598010554 2.8058000847 2.8576792927 2.91630358 
2.9825888767 3.0574329311 3.1415926536 3.5642842451 3.5233842518 3.4524645613 3.4773852225 3.403123212 3.3320300872 
3.4255060145 3.348015857 3.2746326772 3.20576226 3.3668817272 3.2864685043 3.2112816139 3.1415926536 3.0774230472 
3.3005964304 3.2178377658 3.1415926536 3.0719036933 3.00855263 2.95115522 3.225752376 3.1415926536 3.0653475414 
2.9967168029 2.9351694502 2.8800620952 2.8307207459 3.1415926536 3.0574329311 2.9825888767 2.91630358 2.8576792927 
2.8058000847 2.7598010554 2.718901062 4.526799744 4.426884955 4.4046155105 4.3052269283 4.2918546451 4.2807094886 
4.1588146215 4.1588146215 4.1588146215 4.1588146215 3.9875336042 4.0055183285 4.0201070968 4.0321740035 4.042318168 
3.7967995342 3.8356650183 3.8672112905 3.8932795963 3.9151549899 3.9337570603 3.5984456061 3.657329819 3.7058097288 
3.7462412737 3.7803704271 3.809500442 3.8346145692 3.4073543651 3.4813459737 3.5438565869 3.5969754326 3.6424295543 
3.6816134988 3.7156421835 3.7454049075 4.7123889804 4.8004512023 4.6243267584 4.9155579264 4.7123889804 4.5092200343 
5.0674903122 4.8353719722 4.5894059886 4.3572876485 5.2659633393 5.0120975802 4.7123889804 4.4126803806 4.1588146215 
5.5125918794 5.2659633393 4.9155579264 4.5092200343 4.1588146215 3.9121860814 5.7885595667 5.6029703303 5.2659633393 
4.7123889804 4.1588146215 3.8218076305 3.6362183941 6.0560271438 5.9702140275 5.7885595667 5.2659633393 4.1588146215 
3.6362183941 3.4545639333 3.368750817 0.22715816343 0.49462574053 0.3129712797 0.77059342779 0.68021497688 0.49462574053 
1.0172219679 1.0172219679 1.0172219679 1.0172219679 1.2156949949 1.271087727 1.3676273807 1.5707963268 2.1243706857 
1.3676273807 1.447813335 1.5707963268 1.7739652728 2.1243706857 2.6469669131 1.4827341049 1.5707963268 1.6937793186 
1.8705049266 2.1243706857 2.4613776767 2.8286213739 1.5707963268 1.6588585487 1.7739652728 1.9258976586 2.1243706857 
2.3709992258 2.6469669131 2.9144344902 1.7563855631 1.8785697967 1.8563003522 2.0024758186 1.9913306621 1.9779583789 
2.1243706857 2.1243706857 2.1243706857 2.1243706857 2.2408671392 2.2510113037 2.2630782103 2.2776669786 2.295651703 
2.3494282469 2.3680303173 2.3899057108 2.4159740166 2.4475202889 2.486385773 2.448570738 2.4736848652 2.5028148801 
2.5369440334 2.5773755784 2.6258554882 2.6847397011 2.5377803997 2.5675431237 2.6015718084 2.6407557529 2.6862098746 
2.7393287203 2.8018393335 2.8758309421 1.6743954455 1.6743954455 1.7840462375 1.6743954455 1.7840462375 1.8974821136 
1.6743954455 1.7840462375 1.8974821136 2.0119052671 1.6743954455 1.7840462375 1.8974821136 2.0119052671 2.1243706857 
1.6743954455 1.7840462375 1.8974821136 2.0119052671 2.1243706857 2.232221744 1.6743954455 1.7840462375 1.8974821136 
2.0119052671 2.1243706857 2.232221744 2.3334263672 1.6743954455 1.7840462375 1.8974821136 2.0119052671 2.1243706857 
2.232221744 2.3334263672 2.426721652 1.4671972081 1.3575464161 1.4671972081 1.24411054 1.3575464161 1.4671972081 
1.1296873865 1.24411054 1.3575464161 1.4671972081 1.0172219679 1.1296873865 1.24411054 1.3575464161 1.4671972081 
0.90937090954 1.0172219679 1.1296873865 1.24411054 1.3575464161 1.4671972081 0.80816628637 0.90937090954 1.0172219679 
1.1296873865 1.24411054 1.3575464161 1.4671972081 0.71487100155 0.80816628637 0.90937090954 1.0172219679 1.1296873865 
1.24411054 1.3575464161 1.4671972081 0.60381225391 0.57404952988 0.69302191562 0.54002084522 0.66790778838 0.79216440667 
0.50083690068 0.63877777351 0.77356233629 0.90072551443 0.45538277901 0.60464862014 0.75168694275 0.89058134991 1.0172219679 
0.40226393329 0.56421707518 0.72561863695 0.87851444325 1.0172219679 1.139116835 0.33975332011 0.51573716537 0.69407236469 
0.86392567495 1.0172219679 1.1502619915 1.2630228569 0.26576171152 0.45685295248 0.6552068806 0.84594095064 1.0172219679 
1.1636342747 1.2852923014 1.3852070904 0.22715816343 0.3129712797 0.49462574053 0.49462574053 0.68021497688 0.77059342779 
1.0172219679 1.0172219679 1.0172219679 1.0172219679 2.1243706857 1.5707963268 1.3676273807 1.271087727 1.2156949949 
2.6469669131 2.1243706857 1.7739652728 1.5707963268 1.447813335 1.3676273807 2.8286213739 2.4613776767 2.1243706857 
1.8705049266 1.6937793186 1.5707963268 1.4827341049 2.9144344902 2.6469669131 2.3709992258 2.1243706857 1.9258976586 
1.7739652728 1.6588585487 1.5707963268 1.7563855631 1.8563003522 1.8785697967 1.9779583789 1.9913306621 2.0024758186 
2.1243706857 2.1243706857 2.1243706857 2.1243706857 2.295651703 2.2776669786 2.2630782103 2.2510113037 2.2408671392 
2.486385773 2.4475202889 2.4159740166 2.3899057108 2.3680303173 2.3494282469 2.6847397011 2.6258554882 2.5773755784 
2.5369440334 2.5028148801 2.4736848652 2.448570738 2.8758309421 2.8018393335 2.7393287203 2.6862098746 2.6407557529 
2.6015718084 2.5675431237 2.5377803997 5.8604937156 5.901393709 5.9723133995 5.9473927383 6.0216547488 6.0927478736 
5.9992719463 6.0767621038 6.1501452836 6.2190157008 6.0578962336 6.1383094565 6.2134963469 0 0.064169606361 
6.1241815303 6.206940195 6.2831853072 0.069688960264 0.13304002361 0.19043743361 6.1990255847 0 0.07624511221 
0.14487585072 0.20642320337 0.26153055843 0.3108719077 0 0.084159722458 0.15900377685 0.22528907359 0.28391336087 
0.3357925689 0.38179159818 0.42269159155 5.8604937156 5.9723133995 5.901393709 6.0927478736 6.0216547488 5.9473927383 
6.2190157008 6.1501452836 6.0767621038 5.9992719463 0.064169606361 0 6.2134963469 6.1383094565 6.0578962336 
0.19043743361 0.13304002361 0.069688960264 6.2831853072 6.206940195 6.1241815303 0.3108719077 0.26153055843 0.20642320337 
0.14487585072 0.07624511221 6.2831853072 6.1990255847 0.42269159155 0.38179159818 0.3357925689 0.28391336087 0.22528907359 
0.15900377685 0.084159722458 0 5.6793730533 5.7091357773 5.5901633916 5.743164462 5.6152775188 5.4910209005 
5.7823484065 5.6444075337 5.5096229709 5.3824597928 5.8278025282 5.678536687 5.5314983644 5.3926039573 5.2659633393 
5.8809213739 5.718968232 5.5575666702 5.4046708639 5.2659633393 5.1440684722 5.9434319871 5.7674481418 5.5891129425 
5.4192596322 5.2659633393 5.1329233157 5.0201624502 6.0174235957 5.8263323547 5.6279784266 5.4372443565 5.2659633393 
5.1195510325 4.9978930058 4.8979782167 1.3852070904 1.2852923014 1.2630228569 1.1636342747 1.1502619915 1.139116835 
1.0172219679 1.0172219679 1.0172219679 1.0172219679 0.84594095064 0.86392567495 0.87851444325 0.89058134991 0.90072551443 
0.6552068806 0.69407236469 0.72561863695 0.75168694275 0.77356233629 0.79216440667 0.45685295248 0.51573716537 0.56421707518 
0.60464862014 0.63877777351 0.66790778838 0.69302191562 0.26576171152 0.33975332011 0.40226393329 0.45538277901 0.50083690068 
0.54002084522 0.57404952988 0.60381225391 
_paraPhiHalf 1 1002 double
0 3.1415926536 0 3.1415926536 1.5707963268 1.5707963268 1.5707963268 1.5707963268 2.5880182947 
0.5535743589 2.5880182947 0.5535743589 0 0 0 0 3.1415926536 3.1415926536 
3.1415926536 3.1415926536 3.1415926536 0.17788134 0.38438696014 0.60631181711 0.82323535693 1.0172219679 1.1799687454 
1.3118704726 1.4175000338 1.5022335207 0.17788134 0.38438696014 0.60631181711 0.82323535693 1.0172219679 1.1799687454 
1.3118704726 1.4175000338 1.5022335207 0.093902416448 0.17615329733 0.2478725152 0.31035131605 0.36486382811 0.41257334776 
0.45449736604 0.4915044461 0.52432611754 0.093902416448 0.17615329733 0.2478725152 0.31035131605 0.36486382811 0.41257334776 
0.45449736604 0.4915044461 0.52432611754 2.9637113136 2.7572056934 2.5352808365 2.3183572967 2.1243706857 1.9616239082 
1.829722181 1.7240926197 1.6393591329 2.9637113136 2.7572056934 2.5352808365 2.3183572967 2.1243706857 1.9616239082 
1.829722181 1.7240926197 1.6393591329 3.0476902371 2.9654393563 2.8937201384 2.8312413375 2.7767288255 2.7290193058 
2.6870952876 2.6500882075 2.617266536 3.0476902371 2.9654393563 2.8937201384 2.8312413375 2.7767288255 2.7290193058 
2.6870952876 2.6500882075 2.617266536 0 0 0 0 3.1415926536 3.1415926536 
3.1415926536 3.1415926536 3.1415926536 0.17788134 0.38438696014 0.60631181711 0.82323535693 1.0172219679 1.1799687454 
1.3118704726 1.4175000338 1.5022335207 0.17788134 0.38438696014 0.60631181711 0.82323535693 1.0172219679 1.1799687454 
1.3118704726 1.4175000338 1.5022335207 0.093902416448 0.17615329733 0.2478725152 0.31035131605 0.36486382811 0.41257334776 
0.45449736604 0.4915044461 0.52432611754 0.093902416448 0.17615329733 0.2478725152 0.31035131605 0.36486382811 0.41257334776 
0.45449736604 0.4915044461 0.52432611754 2.9637113136 2.7572056934 2.5352808365 2.3183572967 2.1243706857 1.9616239082 
1.829722181 1.7240926197 1.6393591329 2.9637113136 2.7572056934 2.5352808365 2.3183572967 2.1243706857 1.9616239082 
1.829722181 1.7240926197 1.6393591329 3.0476902371 2.9654393563 2.8937201384 2.8312413375 2.7767288255 2.7290193058 
2.6870952876 2.6500882075 2.617266536 3.0476902371 2.9654393563 2.8937201384 2.8312413375 2.7767288255 2.7290193058 
2.6870952876 2.6500882075 2.617266536 1.5707963268 1.5707963268 1.5707963268 1.5707963268 1.5707963268 1.5707963268 
1.5707963268 1.5707963268 1.5707963268 1.6743954455 1.7840462375 1.8974821136 2.0119052671 2.1243706857 2.232221744 
2.3334263672 2.426721652 2.5115728246 1.4671972081 1.3575464161 1.24411054 1.1296873865 1.0172219679 0.90937090954 
0.80816628637 0.71487100155 0.63001982895 1.6743954455 1.7840462375 1.8974821136 2.0119052671 2.1243706857 2.232221744 
2.3334263672 2.426721652 2.5115728246 1.4671972081 1.3575464161 1.24411054 1.1296873865 1.0172219679 0.90937090954 
0.80816628637 0.71487100155 0.63001982895 1.5707963268 1.5707963268 1.5707963268 1.5707963268 1.5707963268 1.5707963268 
1.5707963268 1.5707963268 1.5707963268 1.6743954455 1.7840462375 1.8974821136 2.0119052671 2.1243706857 2.232221744 
2.3334263672 2.426721652 2.5115728246 1.4671972081 1.3575464161 1.24411054 1.1296873865 1.0172219679 0.90937090954 
0.80816628637 0.71487100155 0.63001982895 1.6743954455 1.7840462375 1.8974821136 2.0119052671 2.1243706857 2.232221744 
2.3334263672 2.426721652 2.5115728246 1.4671972081 1.3575464161 1.24411054 1.1296873865 1.0172219679 0.90937090954 
0.80816628637 0.71487100155 0.63001982895 2.6824132222 2.7864913217 2.8992382033 3.0186096618 3.1415926536 3.0186096618 
2.8992382033 2.7864913217 2.6824132222 0.45917943135 0.35510133185 0.2423544503 0.12298299178 0 0.12298299178 
0.2423544503 0.35510133185 0.45917943135 0.22715816343 0.49462574053 0.3129712797 0.77059342779 0.68021497688 0.49462574053 
1.0172219679 1.0172219679 1.0172219679 1.0172219679 1.2156949949 1.271087727 1.3676273807 1.5707963268 2.1243706857 
1.3676273807 1.447813335 1.5707963268 1.7739652728 2.1243706857 2.6469669131 1.4827341049 1.5707963268 1.6937793186 
1.8705049266 2.1243706857 2.4613776767 2.8286213739 1.5707963268 1.6588585487 1.7739652728 1.9258976586 2.1243706857 
2.3709992258 2.6469669131 2.9144344902 0.26576171152 0.33975332011 0.45685295248 0.40226393329 0.51573716537 0.6552068806 
0.45538277901 0.56421707518 0.69407236469 0.84594095064 0.50083690068 0.60464862014 0.72561863695 0.86392567495 1.0172219679 
0.54002084522 0.63877777351 0.75168694275 0.87851444325 1.0172219679 1.1636342747 0.57404952988 0.66790778838 0.77356233629 
0.89058134991 1.0172219679 1.1502619915 1.2852923014 0.60381225391 0.69302191562 0.79216440667 0.90072551443 1.0172219679 
1.139116835 1.2630228569 1.3852070904 0.71487100155 0.80816628637 0.80816628637 0.90937090954 0.90937090954 0.90937090954 
1.0172219679 1.0172219679 1.0172219679 1.0172219679 1.1296873865 1.1296873865 1.1296873865 1.1296873865 1.1296873865 
1.24411054 1.24411054 1.24411054 1.24411054 1.24411054 1.24411054 1.3575464161 1.3575464161 1.3575464161 
1.3575464161 1.3575464161 1.3575464161 1.3575464161 1.4671972081 1.4671972081 1.4671972081 1.4671972081 1.4671972081 
1.4671972081 1.4671972081 1.4671972081 1.6743954455 1.6743954455 1.7840462375 1.6743954455 1.7840462375 1.8974821136 
1.6743954455 1.7840462375 1.8974821136 2.0119052671 1.6743954455 1.7840462375 1.8974821136 2.0119052671 2.1243706857 
1.6743954455 1.7840462375 1.8974821136 2.0119052671 2.1243706857 2.232221744 1.6743954455 1.7840462375 1.8974821136 
2.0119052671 2.1243706857 2.232221744 2.3334263672 1.6743954455 1.7840462375 1.8974821136 2.0119052671 2.1243706857 
2.232221744 2.3334263672 2.426721652 1.7563855631 1.8785697967 1.8563003522 2.0024758186 1.9913306621 1.9779583789 
2.1243706857 2.1243706857 2.1243706857 2.1243706857 2.2408671392 2.2510113037 2.2630782103 2.2776669786 2.295651703 
2.3494282469 2.3680303173 2.3899057108 2.4159740166 2.4475202889 2.486385773 2.448570738 2.4736848652 2.5028148801 
2.5369440334 2.5773755784 2.6258554882 2.6847397011 2.5377803997 2.5675431237 2.6015718084 2.6407557529 2.6862098746 
2.7393287203 2.8018393335 2.8758309421 2.718901062 2.8307207459 2.7598010554 2.95115522 2.8800620952 2.8058000847 
3.0774230472 3.00855263 2.9351694502 2.8576792927 3.0774230472 3.1415926536 3.0719036933 2.9967168029 2.91630358 
2.95115522 3.00855263 3.0719036933 3.1415926536 3.0653475414 2.9825888767 2.8307207459 2.8800620952 2.9351694502 
2.9967168029 3.0653475414 3.1415926536 3.0574329311 2.718901062 2.7598010554 2.8058000847 2.8576792927 2.91630358 
2.9825888767 3.0574329311 3.1415926536 2.718901062 2.7598010554 2.8307207459 2.8058000847 2.8800620952 2.95115522 
2.8576792927 2.9351694502 3.00855263 3.0774230472 2.91630358 2.9967168029 3.0719036933 3.1415926536 3.0774230472 
2.9825888767 3.0653475414 3.1415926536 3.0719036933 3.00855263 2.95115522 3.0574329311 3.1415926536 3.0653475414 