# vtk DataFile Version 5.1
vtk output
ASCII
DATASET POLYDATA
POINTS 1002 float
13.5053 38.0248 17.5929 24.2535 41.0049 15.6095 15.6315 33.2531 7.94655 
25.0212 38.965 9.31471 22.1866 33.3108 18.6296 23.9107 30.9307 12.0561 
16.6514 44.895 12.6963 18.2228 44.1403 6.1593 31.0976 37.9859 15.0003 
11.5224 29.8365 14.7245 26.2396 45.6034 12.1076 10.302 38.9127 11.0168 
14.0854 38.175 17.3506 15.0341 38.2349 16.8513 16.3127 38.3713 16.3365 
17.6384 38.7323 16.0857 18.785 39.2726 16.1173 19.8326 39.8112 16.1784 
20.941 40.2409 16.0926 22.0967 40.5681 15.9163 23.2119 40.8174 15.75 
13.8038 37.3666 17.6917 14.2015 36.4654 17.4505 14.8142 35.4798 17.0651 
15.6791 34.7174 16.8933 16.749 34.3113 16.9734 18.0148 34.0826 16.9965 
19.4172 33.8471 16.9538 20.6986 33.6174 17.2175 21.6155 33.4459 17.8893 
13.5129 38.6739 17.1817 13.6145 39.3779 16.6515 13.9047 40.2791 16.2017 
14.3629 41.2992 15.9192 14.8396 42.2252 15.6541 15.242 43.0182 15.2411 
15.6067 43.7387 14.6876 15.9695 44.3137 14.0537 16.3183 44.6704 13.3696 
13.2711 37.3276 17.737 13.0467 36.3359 17.6691 12.7682 35.1772 17.4321 
12.4461 34.068 17.094 12.0984 33.0627 16.7322 11.7024 32.0539 16.4662 
11.3173 31.0675 16.3014 11.1143 30.313 16.0271 11.1989 29.9242 15.4751 
13.0528 38.1492 17.2967 12.4877 38.1394 16.7075 11.709 38.111 16.1217 
10.8555 38.1962 15.7046 10.255 38.3894 15.2005 10.0348 38.6039 14.3278 
10.0011 38.7947 13.2344 9.99316 38.9294 12.2541 10.0663 38.9671 11.5284 
24.2698 40.4309 15.8514 24.2641 39.7473 16.0875 24.2378 38.9271 16.306 
24.1367 38.0188 16.5629 23.9245 37.1242 16.9187 23.6359 36.2835 17.3572 
23.3059 35.4667 17.8247 22.9347 34.6766 18.2591 22.5439 33.9536 18.5579 
23.547 41.4374 15.4535 22.7778 41.8416 15.2486 22.0039 42.1617 14.8903 
21.2056 42.3867 14.3203 20.2772 42.6144 13.6991 19.2414 42.9756 13.2854 
18.3207 43.4904 13.1199 17.652 44.0557 13.0315 17.1409 44.5463 12.8926 
25.3413 40.8141 15.6183 26.4918 40.6117 15.6325 27.6204 40.4568 15.6909 
28.721 40.3382 15.9216 29.8217 40.1273 16.3918 30.7905 39.7172 16.8405 
31.3703 39.1915 16.8598 31.4893 38.7144 16.3745 31.3318 38.3298 15.6623 
24.8694 41.4682 15.3751 25.4927 42.0018 15.1342 26.0555 42.5944 14.9165 
26.5051 43.2281 14.7366 26.8549 43.9249 14.5491 27.1085 44.6661 14.2653 
27.1746 45.2837 13.8399 26.9868 45.6096 13.3035 26.6271 45.6678 12.7117 
16.6582 33.7487 8.07666 17.6502 34.4015 8.26858 18.5941 35.1001 8.41358 
19.5809 35.7245 8.42247 20.6433 36.2727 8.36803 21.6687 36.8367 8.41867 
22.5803 37.4464 8.61478 23.4323 38.0359 8.86131 24.2618 38.5443 9.0925 
16.2137 32.6979 8.12729 16.7228 32.2565 8.37383 17.2533 31.9093 8.68265 
18.0413 31.642 9.11104 19.1273 31.4561 9.66677 20.2753 31.2964 10.222 
21.3223 31.1032 10.6679 22.2919 30.9291 11.0621 23.1809 30.8676 11.5172 
15.7134 34.2147 7.88395 15.9161 35.3298 7.86083 16.2184 36.4725 7.83755 
16.5615 37.608 7.76212 16.9156 38.8182 7.58892 17.2577 40.0736 7.28034 
17.5348 41.2079 6.8738 17.7462 42.1919 6.50119 17.9634 43.1532 6.26402 
15.0065 32.5116 7.98985 14.4582 31.8896 8.171 13.9368 31.3636 8.52779 
13.2953 30.8381 9.01477 12.5173 30.3442 9.58654 11.819 30.0412 10.3155 
11.4016 29.9474 11.3161 11.2658 29.9139 12.5364 11.3242 29.8617 13.7433 
14.5471 33.4647 7.86989 13.439 33.8265 7.92075 12.6067 34.2712 8.12103 
12.1928 34.7399 8.5246 12.0219 35.2175 9.13923 11.8149 35.738 9.80229 
11.4675 36.3855 10.2983 11.0414 37.2024 10.587 10.6301 38.0968 10.7875 
24.95 38.3032 9.54259 24.8219 37.4731 9.7946 24.7916 36.4842 9.96013 
24.8648 35.3995 10.0204 24.8063 34.3768 10.1968 24.4796 33.5931 10.6962 
24.0956 33.0066 11.3372 23.9059 32.3875 11.7646 23.899 31.6485 11.9264 
24.5276 39.3048 8.93793 23.9451 39.6951 8.42658 23.3725 40.2596 7.81716 
22.8086 40.9928 7.32386 22.0811 41.6944 7.06494 21.1154 42.2289 6.82293 
20.119 42.7097 6.40526 19.3166 43.2542 6.00606 18.7187 43.778 5.91494 
25.7478 38.957 9.67056 26.5441 38.8867 10.0798 27.454 38.7879 10.5644 
28.4781 38.6905 11.0296 29.4944 38.5589 11.3878 30.3203 38.3684 11.7934 
30.858 38.179 12.462 31.1247 38.0534 13.3366 31.183 37.9943 14.2123 
25.3999 39.5787 9.39578 25.5909 40.2303 9.66195 25.6313 40.9406 10.0923 
25.7508 41.7348 10.472 26.099 42.5881 10.6111 26.4915 43.3883 10.6264 
26.6477 44.0398 10.7827 26.5515 44.58 11.152 26.3787 45.0994 11.6276 
22.3114 32.7957 18.8589 22.5763 32.193 18.7054 23.0032 31.5974 18.1592 
23.487 31.1278 17.4536 23.8816 30.8381 16.7653 24.1469 30.6728 15.9455 
24.317 30.5614 14.8341 24.3645 30.5313 13.6313 24.225 30.6542 12.67 
22.8158 33.6075 19.1388 23.5342 33.9884 19.1518 24.5717 34.4108 18.7155 
25.8959 34.9226 18.2143 27.1627 35.6406 17.8322 28.1386 36.4845 17.3765 
28.9436 37.1541 16.767 29.7476 37.5129 16.156 30.5122 37.7246 15.5923 
21.4911 32.7931 18.0522 20.6159 32.2276 17.3918 19.5898 31.5087 17.0961 
18.4535 30.7133 17.389 17.24 30.1557 17.7635 15.999 30.0066 17.4996 
14.7755 30.0488 16.6541 13.5833 30.0197 15.8253 12.4652 29.9101 15.2481 
24.5246 31.4878 12.5353 25.0976 32.088 12.9883 25.6957 32.7437 13.3159 
26.3966 33.5768 13.587 27.2186 34.5691 13.9398 28.0976 35.4895 14.3168 
28.9594 36.2142 14.5531 29.7693 36.8359 14.6683 30.4967 37.4305 14.8037 
23.394 30.2708 11.973 22.582 29.8756 12.0946 21.3765 29.8527 12.388 
19.8064 30.0029 12.7271 18.0928 30.0605 13.0497 16.5133 30.0449 13.3539 
15.132 30.0691 13.6292 13.8276 30.0562 13.918 12.5788 29.9376 14.291 
16.5265 45.2023 12.1277 16.3825 45.5596 11.5085 16.2823 45.9512 10.8338 
16.3086 46.254 10.0059 16.5348 46.352 8.99918 16.9595 46.2469 8.00977 
17.453 45.9749 7.25741 17.8462 45.5204 6.75427 18.0815 44.8846 6.40297 
17.371 44.9686 12.2285 18.3017 45.2045 11.929 19.404 45.5966 11.855 
20.5264 45.9453 11.9106 21.6445 46.167 11.9588 22.8691 46.4229 11.9758 
24.0967 46.7036 12.0296 25.051 46.7021 12.1311 25.6947 46.2693 12.1865 
15.8932 44.9776 12.874 14.9961 44.842 12.9517 14.0306 44.4287 12.7997 
13.1897 43.8175 12.453 12.5265 43.1199 12.098 11.8411 42.3905 11.8154 
11.0623 41.6554 11.5307 10.4545 40.8813 11.245 10.2353 39.9738 11.0622 
18.8182 44.994 5.9768 19.4384 45.7464 6.06887 20.0667 46.1037 6.54463 
20.8179 46.0605 7.37758 21.8308 46.0014 8.30914 23.0122 46.1724 9.09089 
24.0782 46.348 9.80237 24.8899 46.2619 10.6221 25.5578 45.9565 11.4633 
17.5402 43.7389 6.68004 16.7864 43.2355 7.32657 15.9738 42.6439 7.91113 
15.0811 41.9982 8.38829 14.092 41.3966 8.81874 13.0573 40.9132 9.23226 
12.0745 40.4917 9.65004 11.2447 40.0302 10.1022 10.6483 39.4969 10.5698 
31.6047 38.6106 14.6829 31.7962 39.4804 14.3046 31.6759 40.5976 14.0052 
31.5081 41.8561 13.7416 31.427 43.0105 13.2547 31.0615 43.786 12.5634 
30.0287 44.1756 12.1014 28.5628 44.4885 12.0752 27.2111 44.9781 12.1897 
10.5559 29.9225 14.5702 9.94403 30.3914 14.2014 9.66543 31.2775 13.6076 
9.39589 32.3022 12.9672 9.04126 33.1771 12.4754 8.99518 33.995 12.1462 
9.43923 35.0426 11.8788 9.97089 36.3601 11.6027 10.2299 37.7254 11.306 
14.5283 37.5099 17.2864 15.1171 36.7157 17.0221 15.6609 37.6761 16.801 
15.9152 35.935 16.8299 16.4233 37.1583 16.8188 17.063 38.0416 16.5465 
16.9449 35.3212 16.8723 17.3678 36.657 16.9693 17.9197 37.8279 16.9419 
18.4224 38.6201 16.5987 18.2234 34.8605 16.9439 18.5613 36.0902 17.067 
18.9715 37.4652 17.2088 19.3402 38.5094 17.0862 19.6129 39.2108 16.6813 
19.6929 34.4701 16.923 19.9952 35.4642 16.9849 20.2722 36.8014 17.1257 
20.4821 38.0633 17.1569 20.6289 38.9775 16.9423 20.7669 39.654 16.5475 
21.0636 34.1805 17.1263 21.4042 34.9629 17.0243 21.6438 36.065 16.9822 
21.7694 37.3022 16.9553 21.8271 38.3952 16.8358 21.879 39.2628 16.5944 
21.9698 39.9701 16.2708 22.0163 34.0317 17.766 22.4097 34.7299 17.5066 
22.7122 35.605 17.2185 22.9014 36.6181 16.9661 23.0101 37.6609 16.738 
23.0694 38.6426 16.5172 23.1096 39.5046 16.2869 23.16 40.2224 16.0259 
13.5305 36.4726 17.829 13.3105 35.3246 17.8214 13.9368 35.3805 17.5791 
13.1084 34.1638 17.6986 13.8109 34.2479 17.7359 14.6455 34.3903 17.2778 
12.9099 33.1508 17.4168 13.7706 33.2818 17.8385 14.6645 33.4932 17.684 
15.6167 33.8426 17.2422 12.6716 32.1935 17.017 13.7198 32.4051 17.6837 
14.7457 32.7117 18.0067 15.703 33.1569 17.7574 16.7333 33.6524 17.2917 
12.3863 31.2333 16.6725 13.5894 31.4812 17.3227 14.7577 31.7938 17.993 
15.7991 32.2951 18.0977 16.813 32.9428 17.622 18.0141 33.4845 17.124 
12.1835 30.453 16.3738 13.444 30.6685 16.9418 14.7016 30.8646 17.7403 
15.8461 31.2119 18.1571 16.9238 31.8892 17.814 18.0887 32.6671 17.2218 
19.4004 33.2318 17.0096 12.2088 30.0256 15.9166 13.4246 30.1879 16.4814 
14.6855 30.2695 17.324 15.8977 30.3666 17.9912 17.0645 30.8039 17.8961 
18.2385 31.6089 17.3167 19.4481 32.411 17.0551 20.6196 32.9874 17.36 
13.6326 30.0003 14.8632 14.9004 30.0278 14.4937 14.7833 30.0116 15.5852 
16.252 29.9742 14.1469 16.1131 29.9478 15.2335 16.0417 29.9432 16.5081 
17.833 29.9727 13.8543 17.6782 29.911 14.821 17.5691 29.9103 16.0567 
17.4227 29.9401 17.1734 19.6376 29.9963 13.6534 19.4921 29.9626 14.5674 
19.3447 29.9762 15.5678 19.1182 30.0522 16.5581 18.7962 30.2429 17.1971 
21.36 29.9064 13.4452 21.2626 29.9801 14.5112 21.0889 30.0456 15.4143 
20.8109 30.1746 16.1734 20.4204 30.4275 16.7567 19.9831 30.8642 17.0495 
22.7113 29.8431 13.1268 22.6777 29.9505 14.37 22.5003 30.0723 15.4532 
22.2049 30.2142 16.2015 21.803 30.4932 16.7543 21.3485 30.9594 17.186 
20.9349 31.5684 17.4024 23.6371 30.086 12.8119 23.6838 30.0947 14.0121 
23.5456 30.2031 15.2714 23.2837 30.3316 16.2278 22.9174 30.5513 16.8872 
22.4654 30.968 17.4777 22.0242 31.558 17.9745 21.6962 32.2032 18.1763 
23.0281 33.0414 19.1491 23.451 32.4412 18.6799 23.9568 33.3897 18.8318 
23.9998 31.9462 17.9137 24.5329 32.8799 18.1586 25.1525 33.8512 18.2187 
24.4662 31.6173 17.1478 25.0436 32.5705 17.4289 25.6388 33.5164 17.6145 
26.3555 34.4994 17.732 24.7341 31.3916 16.3668 25.3236 32.3568 16.7269 
25.8816 33.3745 17.0354 26.5209 34.3391 17.2082 27.3095 35.3692 17.2676 
24.8632 31.2135 15.3477 25.4155 32.1075 15.8212 25.9552 33.1761 16.2753 
26.5387 34.2493 16.5727 27.2656 35.256 16.607 28.1034 36.245 16.5874 
[...]
POINT_DATA 1002
FIELD FieldData 4
_paraPhi 1 1002 double
6.2831853072 3.1415926536 6.2831853072 3.1415926536 4.7123889804 4.7123889804 1.5707963268 1.5707963268 3.6951670125 
5.7296109483 2.5880182947 0.5535743589 6.2831853072 6.2831853072 6.2831853072 6.2831853072 3.1415926536 3.1415926536 
3.1415926536 3.1415926536 3.1415926536 6.1053039672 5.898798347 5.6768734901 5.4599499503 5.2659633393 5.1032165617 
4.9713148346 4.8656852733 4.7809517865 0.17788134 0.38438696014 0.60631181711 0.82323535693 1.0172219679 1.1799687454 
1.3118704726 1.4175000338 1.5022335207 6.1892828907 6.1070320098 6.035312792 5.9728339911 5.9183214791 5.8706119594 
5.8286879411 5.7916808611 5.7588591896 0.093902416448 0.17615329733 0.2478725152 0.31035131605 0.36486382811 0.41257334776 
0.45449736604 0.4915044461 0.52432611754 3.3194739936 3.5259796137 3.7479044707 3.9648280105 4.1588146215 4.321561399 
4.4534631262 4.5590926874 4.6438261743 2.9637113136 2.7572056934 2.5352808365 2.3183572967 2.1243706857 1.9616239082 
1.829722181 1.7240926197 1.6393591329 3.23549507 3.3177459509 3.3894651688 3.4519439696 3.5064564817 3.5541660013 
3.5960900196 3.6330970997 3.6659187711 3.0476902371 2.9654393563 2.8937201384 2.8312413375 2.7767288255 2.7290193058 
2.6870952876 2.6500882075 2.617266536 6.2831853072 6.2831853072 6.2831853072 6.2831853072 3.1415926536 3.1415926536 
3.1415926536 3.1415926536 3.1415926536 6.1053039672 5.898798347 5.6768734901 5.4599499503 5.2659633393 5.1032165617 
4.9713148346 4.8656852733 4.7809517865 0.17788134 0.38438696014 0.60631181711 0.82323535693 1.0172219679 1.1799687454 
1.3118704726 1.4175000338 1.5022335207 6.1892828907 6.1070320098 6.035312792 5.9728339911 5.9183214791 5.8706119594 
5.8286879411 5.7916808611 5.7588591896 0.093902416448 0.17615329733 0.2478725152 0.31035131605 0.36486382811 0.41257334776 
0.45449736604 0.4915044461 0.52432611754 3.3194739936 3.5259796137 3.7479044707 3.9648280105 4.1588146215 4.321561399 
4.4534631262 4.5590926874 4.6438261743 2.9637113136 2.7572056934 2.5352808365 2.3183572967 2.1243706857 1.9616239082 
1.829722181 1.7240926197 1.6393591329 3.23549507 3.3177459509 3.3894651688 3.4519439696 3.5064564817 3.5541660013 
3.5960900196 3.6330970997 3.6659187711 3.0476902371 2.9654393563 2.8937201384 2.8312413375 2.7767288255 2.7290193058 
2.6870952876 2.6500882075 2.617266536 4.7123889804 4.7123889804 4.7123889804 4.7123889804 4.7123889804 4.7123889804 
4.7123889804 4.7123889804 4.7123889804 4.6087898617 4.4991390697 4.3857031936 4.2712800401 4.1588146215 4.0509635631 
3.94975894 3.8564636551 3.7716124825 4.8159880991 4.9256388911 5.0390747672 5.1534979207 5.2659633393 5.3738143976 
5.4750190208 5.5683143056 5.6531654782 4.6087898617 4.4991390697 4.3857031936 4.2712800401 4.1588146215 4.0509635631 
3.94975894 3.8564636551 3.7716124825 4.8159880991 4.9256388911 5.0390747672 5.1534979207 5.2659633393 5.3738143976 
5.4750190208 5.5683143056 5.6531654782 1.5707963268 1.5707963268 1.5707963268 1.5707963268 1.5707963268 1.5707963268 
1.5707963268 1.5707963268 1.5707963268 1.6743954455 1.7840462375 1.8974821136 2.0119052671 2.1243706857 2.232221744 
2.3334263672 2.426721652 2.5115728246 1.4671972081 1.3575464161 1.24411054 1.1296873865 1.0172219679 0.90937090954 
0.80816628637 0.71487100155 0.63001982895 1.6743954455 1.7840462375 1.8974821136 2.0119052671 2.1243706857 2.232221744 
2.3334263672 2.426721652 2.5115728246 1.4671972081 1.3575464161 1.24411054 1.1296873865 1.0172219679 0.90937090954 
0.80816628637 0.71487100155 0.63001982895 3.6007720849 3.4966939854 3.3839471039 3.2645756454 3.1415926536 3.0186096618 
2.8992382033 2.7864913217 2.6824132222 5.8240058758 5.9280839753 6.0408308569 6.1602023154 6.2831853072 0.12298299178 
0.2423544503 0.35510133185 0.45917943135 6.0560271438 5.7885595667 5.9702140275 5.5125918794 5.6029703303 5.7885595667 
5.2659633393 5.2659633393 5.2659633393 5.2659633393 5.0674903122 5.0120975802 4.9155579264 4.7123889804 4.1588146215 
4.9155579264 4.8353719722 4.7123889804 4.5092200343 4.1588146215 3.6362183941 4.8004512023 4.7123889804 4.5894059886 
4.4126803806 4.1588146215 3.8218076305 3.4545639333 4.7123889804 4.6243267584 4.5092200343 4.3572876485 4.1588146215 
3.9121860814 3.6362183941 3.368750817 6.0174235957 5.9434319871 5.8263323547 5.8809213739 5.7674481418 5.6279784266 
5.8278025282 5.718968232 5.5891129425 5.4372443565 5.7823484065 5.678536687 5.5575666702 5.4192596322 5.2659633393 
5.743164462 5.6444075337 5.5314983644 5.4046708639 5.2659633393 5.1195510325 5.7091357773 5.6152775188 5.5096229709 
5.3926039573 5.2659633393 5.1329233157 4.9978930058 5.6793730533 5.5901633916 5.4910209005 5.3824597928 5.2659633393 
5.1440684722 5.0201624502 4.8979782167 5.5683143056 5.4750190208 5.4750190208 5.3738143976 5.3738143976 5.3738143976 
5.2659633393 5.2659633393 5.2659633393 5.2659633393 5.1534979207 5.1534979207 5.1534979207 5.1534979207 5.1534979207 
5.0390747672 5.0390747672 5.0390747672 5.0390747672 5.0390747672 5.0390747672 4.9256388911 4.9256388911 4.9256388911 
4.9256388911 4.9256388911 4.9256388911 4.9256388911 4.8159880991 4.8159880991 4.8159880991 4.8159880991 4.8159880991 
4.8159880991 4.8159880991 4.8159880991 4.6087898617 4.6087898617 4.4991390697 4.6087898617 4.4991390697 4.3857031936 
4.6087898617 4.4991390697 4.3857031936 4.2712800401 4.6087898617 4.4991390697 4.3857031936 4.2712800401 4.1588146215 
4.6087898617 4.4991390697 4.3857031936 4.2712800401 4.1588146215 4.0509635631 4.6087898617 4.4991390697 4.3857031936 
4.2712800401 4.1588146215 4.0509635631 3.94975894 4.6087898617 4.4991390697 4.3857031936 4.2712800401 4.1588146215 
4.0509635631 3.94975894 3.8564636551 4.526799744 4.4046155105 4.426884955 4.2807094886 4.2918546451 4.3052269283 
4.1588146215 4.1588146215 4.1588146215 4.1588146215 4.042318168 4.0321740035 4.0201070968 4.0055183285 3.9875336042 
3.9337570603 3.9151549899 3.8932795963 3.8672112905 3.8356650183 3.7967995342 3.8346145692 3.809500442 3.7803704271 
3.7462412737 3.7058097288 3.657329819 3.5984456061 3.7454049075 3.7156421835 3.6816134988 3.6424295543 3.5969754326 
3.5438565869 3.4813459737 3.4073543651 3.5642842451 3.4524645613 3.5233842518 3.3320300872 3.403123212 3.4773852225 
3.20576226 3.2746326772 3.348015857 3.4255060145 3.0774230472 3.1415926536 3.2112816139 3.2864685043 3.3668817272 
2.95115522 3.00855263 3.0719036933 3.1415926536 3.2178377658 3.3005964304 2.8307207459 2.8800620952 2.9351694502 
2.9967168029 3.0653475414 3.1415926536 3.225752376 2.718901062 2.7598010554 2.8058000847 2.8576792927 2.91630358 
2.9825888767 3.0574329311 3.1415926536 3.5642842451 3.5233842518 3.4524645613 3.4773852225 3.403123212 3.3320300872 
3.4255060145 3.348015857 3.2746326772 3.20576226 3.3668817272 3.2864685043 3.2112816139 3.1415926536 3.0774230472 
3.3005964304 3.2178377658 3.1415926536 3.0719036933 3.00855263 2.95115522 3.225752376 3.1415926536 3.0653475414 
2.9967168029 2.9351694502 2.8800620952 2.8307207459 3.1415926536 3.0574329311 2.9825888767 2.91630358 2.8576792927 
2.8058000847 2.7598010554 2.718901062 4.526799744 4.426884955 4.4046155105 4.3052269283 4.2918546451 4.2807094886 
4.1588146215 4.1588146215 4.1588146215 4.1588146215 3.9875336042 4.0055183285 4.0201070968 4.0321740035 4.042318168 
3.7967995342 3.8356650183 3.8672112905 3.8932795963 3.9151549899 3.9337570603 3.5984456061 3.657329819 3.7058097288 
3.7462412737 3.7803704271 3.809500442 3.8346145692 3.4073543651 3.4813459737 3.5438565869 3.5969754326 3.6424295543 
3.6816134988 3.7156421835 3.7454049075 4.7123889804 4.8004512023 4.6243267584 4.9155579264 4.7123889804 4.5092200343 
5.0674903122 4.8353719722 4.5894059886 4.3572876485 5.2659633393 5.0120975802 4.7123889804 4.4126803806 4.1588146215 
5.5125918794 5.2659633393 4.9155579264 4.5092200343 4.1588146215 3.9121860814 5.7885595667 5.6029703303 5.2659633393 
4.7123889804 4.1588146215 3.8218076305 3.6362183941 6.0560271438 5.9702140275 5.7885595667 5.2659633393 4.1588146215 
3.6362183941 3.4545639333 3.368750817 0.22715816343 0.49462574053 0.3129712797 0.77059342779 0.68021497688 0.49462574053 
1.0172219679 1.0172219679 1.0172219679 1.0172219679 1.2156949949 1.271087727 1.3676273807 1.5707963268 2.1243706857 
1.3676273807 1.447813335 1.5707963268 1.7739652728 2.1243706857 2.6469669131 1.4827341049 1.5707963268 1.6937793186 
1.8705049266 2.1243706857 2.4613776767 2.8286213739 1.5707963268 1.6588585487 1.7739652728 1.9258976586 2.1243706857 
2.3709992258 2.6469669131 2.9144344902 1.7563855631 1.8785697967 1.8563003522 2.0024758186 1.9913306621 1.9779583789 
2.1243706857 2.1243706857 2.1243706857 2.1243706857 2.2408671392 2.2510113037 2.2630782103 2.2776669786 2.295651703 
2.3494282469 2.3680303173 2.3899057108 2.4159740166 2.4475202889 2.486385773 2.448570738 2.4736848652 2.5028148801 
2.5369440334 2.5773755784 2.6258554882 2.6847397011 2.5377803997 2.5675431237 2.6015718084 2.6407557529 2.6862098746 
2.7393287203 2.8018393335 2.8758309421 1.6743954455 1.6743954455 1.7840462375 1.6743954455 1.7840462375 1.8974821136 
1.6743954455 1.7840462375 1.8974821136 2.0119052671 1.6743954455 1.7840462375 1.8974821136 2.0119052671 2.1243706857 
1.6743954455 1.7840462375 1.8974821136 2.0119052671 2.1243706857 2.232221744 1.6743954455 1.7840462375 1.8974821136 
2.0119052671 2.1243706857 2.232221744 2.3334263672 1.6743954455 1.7840462375 1.8974821136 2.0119052671 2.1243706857 
2.232221744 2.3334263672 2.426721652 1.4671972081 1.3575464161 1.4671972081 1.24411054 1.3575464161 1.4671972081 
1.1296873865 1.24411054 1.3575464161 1.4671972081 1.0172219679 1.1296873865 1.24411054 1.3575464161 1.4671972081 
0.90937090954 1.0172219679 1.1296873865 1.24411054 1.3575464161 1.4671972081 0.80816628637 0.90937090954 1.0172219679 
1.1296873865 1.24411054 1.3575464161 1.4671972081 0.71487100155 0.80816628637 0.90937090954 1.0172219679 1.1296873865 
1.24411054 1.3575464161 1.4671972081 0.60381225391 0.57404952988 0.69302191562 0.54002084522 0.66790778838 0.79216440667 
0.50083690068 0.63877777351 0.77356233629 0.90072551443 0.45538277901 0.60464862014 0.75168694275 0.89058134991 1.0172219679 
0.40226393329 0.56421707518 0.72561863695 0.87851444325 1.0172219679 1.139116835 0.33975332011 0.51573716537 0.69407236469 
0.86392567495 1.0172219679 1.1502619915 1.2630228569 0.26576171152 0.45685295248 0.6552068806 0.84594095064 1.0172219679 
1.1636342747 1.2852923014 1.3852070904 0.22715816343 0.3129712797 0.49462574053 0.49462574053 0.68021497688 0.77059342779 
1.0172219679 1.0172219679 1.0172219679 1.0172219679 2.1243706857 1.5707963268 1.3676273807 1.271087727 1.2156949949 
2.6469669131 2.1243706857 1.7739652728 1.5707963268 1.447813335 1.3676273807 2.8286213739 2.4613776767 2.1243706857 
1.8705049266 1.6937793186 1.5707963268 1.4827341049 2.9144344902 2.6469669131 2.3709992258 2.1243706857 1.9258976586 
1.7739652728 1.6588585487 1.5707963268 1.7563855631 1.8563003522 1.8785697967 1.9779583789 1.9913306621 2.0024758186 
2.1243706857 2.1243706857 2.1243706857 2.1243706857 2.295651703 2.2776669786 2.2630782103 2.2510113037 2.2408671392 
2.486385773 2.4475202889 2.4159740166 2.3899057108 2.3680303173 2.3494282469 2.6847397011 2.6258554882 2.5773755784 
2.5369440334 2.5028148801 2.4736848652 2.448570738 2.8758309421 2.8018393335 2.7393287203 2.6862098746 2.6407557529 
2.6015718084 2.5675431237 2.5377803997 5.8604937156 5.901393709 5.9723133995 5.9473927383 6.0216547488 6.0927478736 
5.9992719463 6.0767621038 6.1501452836 6.2190157008 6.0578962336 6.1383094565 6.2134963469 0 0.064169606361 
6.1241815303 6.206940195 6.2831853072 0.069688960264 0.13304002361 0.19043743361 6.1990255847 0 0.07624511221 
0.14487585072 0.20642320337 0.26153055843 0.3108719077 0 0.084159722458 0.15900377685 0.22528907359 0.28391336087 
0.3357925689 0.38179159818 0.42269159155 5.8604937156 5.9723133995 5.901393709 6.0927478736 6.0216547488 5.9473927383 
6.2190157008 6.1501452836 6.0767621038 5.9992719463 0.064169606361 0 6.2134963469 6.1383094565 6.0578962336 
0.19043743361 0.13304002361 0.069688960264 6.2831853072 6.206940195 6.1241815303 0.3108719077 0.26153055843 0.20642320337 
0.14487585072 0.07624511221 6.2831853072 6.1990255847 0.42269159155 0.38179159818 0.3357925689 0.28391336087 0.22528907359 
0.15900377685 0.084159722458 0 5.6793730533 5.7091357773 5.5901633916 5.743164462 5.6152775188 5.4910209005 
5.7823484065 5.6444075337 5.5096229709 5.3824597928 5.8278025282 5.678536687 5.5314983644 5.3926039573 5.2659633393 
5.8809213739 5.718968232 5.5575666702 5.4046708639 5.2659633393 5.1440684722 5.9434319871 5.7674481418 5.5891129425 
5.4192596322 5.2659633393 5.1329233157 5.0201624502 6.0174235957 5.8263323547 5.6279784266 5.4372443565 5.2659633393 
5.1195510325 4.9978930058 4.8979782167 1.3852070904 1.2852923014 1.2630228569 1.1636342747 1.1502619915 1.139116835 
1.0172219679 1.0172219679 1.0172219679 1.0172219679 0.84594095064 0.86392567495 0.87851444325 0.89058134991 0.90072551443 
0.6552068806 0.69407236469 0.72561863695 0.75168694275 0.77356233629 0.79216440667 0.45685295248 0.51573716537 0.56421707518 
0.60464862014 0.63877777351 0.66790778838 0.69302191562 0.26576171152 0.33975332011 0.40226393329 0.45538277901 0.50083690068 
0.54002084522 0.57404952988 0.60381225391 
_paraPhiHalf 1 1002 double
0 3.1415926536 0 3.1415926536 1.5707963268 1.5707963268 1.5707963268 1.5707963268 2.5880182947 
0.5535743589 2.5880182947 0.5535743589 0 0 0 0 3.1415926536 3.1415926536 
3.1415926536 3.1415926536 3.1415926536 0.17788134 0.38438696014 0.60631181711 0.82323535693 1.0172219679 1.1799687454 
1.3118704726 1.4175000338 1.5022335207 0.17788134 0.38438696014 0.60631181711 0.82323535693 1.0172219679 1.1799687454 
1.3118704726 1.4175000338 1.5022335207 0.093902416448 0.17615329733 0.2478725152 0.31035131605 0.36486382811 0.41257334776 
0.45449736604 0.4915044461 0.52432611754 0.093902416448 0.17615329733 0.2478725152 0.31035131605 0.36486382811 0.41257334776 
0.45449736604 0.4915044461 0.52432611754 2.9637113136 2.7572056934 2.5352808365 2.3183572967 2.1243706857 1.9616239082 
1.829722181 1.7240926197 1.6393591329 2.9637113136 2.7572056934 2.5352808365 2.3183572967 2.1243706857 1.9616239082 
1.829722181 1.7240926197 1.6393591329 3.0476902371 2.9654393563 2.8937201384 2.8312413375 2.7767288255 2.7290193058 
2.6870952876 2.6500882075 2.617266536 3.0476902371 2.9654393563 2.8937201384 2.8312413375 2.7767288255 2.7290193058 
2.6870952876 2.6500882075 2.617266536 0 0 0 0 3.1415926536 3.1415926536 
3.1415926536 3.1415926536 3.1415926536 0.17788134 0.38438696014 0.60631181711 0.82323535693 1.0172219679 1.1799687454 
1.3118704726 1.4175000338 1.5022335207 0.17788134 0.38438696014 0.60631181711 0.82323535693 1.0172219679 1.1799687454 
1.3118704726 1.4175000338 1.5022335207 0.093902416448 0.17615329733 0.2478725152 0.31035131605 0.36486382811 0.41257334776 
0.45449736604 0.4915044461 0.52432611754 0.093902416448 0.17615329733 0.2478725152 0.31035131605 0.36486382811 0.41257334776 
0.45449736604 0.4915044461 0.52432611754 2.9637113136 2.7572056934 2.5352808365 2.3183572967 2.1243706857 1.9616239082 
1.829722181 1.7240926197 1.6393591329 2.9637113136 2.7572056934 2.5352808365 2.3183572967 2.1243706857 1.9616239082 
1.829722181 1.7240926197 1.6393591329 3.0476902371 2.9654393563 2.8937201384 2.8312413375 2.7767288255 2.7290193058 
2.6870952876 2.6500882075 2.617266536 3.0476902371 2.9654393563 2.8937201384 2.8312413375 2.7767288255 2.7290193058 
2.6870952876 2.6500882075 2.617266536 1.5707963268 1.5707963268 1.5707963268 1.5707963268 1.5707963268 1.5707963268 
1.5707963268 1.5707963268 1.5707963268 1.6743954455 1.7840462375 1.8974821136 2.0119052671 2.1243706857 2.232221744 
2.3334263672 2.426721652 2.5115728246 1.4671972081 1.3575464161 1.24411054 1.1296873865 1.0172219679 0.90937090954 
0.80816628637 0.71487100155 0.63001982895 1.6743954455 1.7840462375 1.8974821136 2.0119052671 2.1243706857 2.232221744 
2.3334263672 2.426721652 2.5115728246 1.4671972081 1.3575464161 1.24411054 1.1296873865 1.0172219679 0.90937090954 
0.80816628637 0.71487100155 0.63001982895 1.5707963268 1.5707963268 1.5707963268 1.5707963268 1.5707963268 1.5707963268 
1.5707963268 1.5707963268 1.5707963268 1.6743954455 1.7840462375 1.8974821136 2.0119052671 2.1243706857 2.232221744 
2.3334263672 2.426721652 2.5115728246 1.4671972081 1.3575464161 1.24411054 1.1296873865 1.0172219679 0.90937090954 
0.80816628637 0.71487100155 0.63001982895 1.6743954455 1.7840462375 1.8974821136 2.0119052671 2.1243706857 2.232221744 
2.3334263672 2.426721652 2.5115728246 1.4671972081 1.3575464161 1.24411054 1.1296873865 1.0172219679 0.90937090954 
0.80816628637 0.71487100155 0.63001982895 2.6824132222 2.7864913217 2.8992382033 3.0186096618 3.1415926536 3.0186096618 
2.8992382033 2.7864913217 2.6824132222 0.45917943135 0.35510133185 0.2423544503 0.12298299178 0 0.12298299178 
0.2423544503 0.35510133185 0.45917943135 0.22715816343 0.49462574053 0.3129712797 0.77059342779 0.68021497688 0.49462574053 
1.0172219679 1.0172219679 1.0172219679 1.0172219679 1.2156949949 1.271087727 1.3676273807 1.5707963268 2.1243706857 
1.3676273807 1.447813335 1.5707963268 1.7739652728 2.1243706857 2.6469669131 1.4827341049 1.5707963268 1.6937793186 
1.8705049266 2.1243706857 2.4613776767 2.8286213739 1.5707963268 1.6588585487 1.7739652728 1.9258976586 2.1243706857 
2.3709992258 2.6469669131 2.9144344902 0.26576171152 0.33975332011 0.45685295248 0.40226393329 0.51573716537 0.6552068806 
0.45538277901 0.56421707518 0.69407236469 0.84594095064 0.50083690068 0.60464862014 0.72561863695 0.86392567495 1.0172219679 
0.54002084522 0.63877777351 0.75168694275 0.87851444325 1.0172219679 1.1636342747 0.57404952988 0.66790778838 0.77356233629 
0.89058134991 1.0172219679 1.1502619915 1.2852923014 0.60381225391 0.69302191562 0.79216440667 0.90072551443 1.0172219679 
1.139116835 1.2630228569 1.3852070904 0.71487100155 0.80816628637 0.80816628637 0.90937090954 0.90937090954 0.90937090954 
1.0172219679 1.0172219679 1.0172219679 1.0172219679 1.1296873865 1.1296873865 1.1296873865 1.1296873865 1.1296873865 
1.24411054 1.24411054 1.24411054 1.24411054 1.24411054 1.24411054 1.3575464161 1.3575464161 1.3575464161 
1.3575464161 1.3575464161 1.3575464161 1.3575464161 1.4671972081 1.4671972081 1.4671972081 1.4671972081 1.4671972081 
1.4671972081 1.4671972081 1.4671972081 1.6743954455 1.6743954455 1.7840462375 1.6743954455 1.7840462375 1.8974821136 
1.6743954455 1.7840462375 1.8974821136 2.0119052671 1.6743954455 1.7840462375 1.8974821136 2.0119052671 2.1243706857 
1.6743954455 1.7840462375 1.8974821136 2.0119052671 2.1243706857 2.232221744 1.6743954455 1.7840462375 1.8974821136 
2.0119052671 2.1243706857 2.232221744 2.3334263672 1.6743954455 1.7840462375 1.8974821136 2.0119052671 2.1243706857 
2.232221744 2.3334263672 2.426721652 1.7563855631 1.8785697967 1.8563003522 2.0024758186 1.9913306621 1.9779583789 
2.1243706857 2.1243706857 2.1243706857 2.1243706857 2.2408671392 2.2510113037 2.2630782103 2.2776669786 2.295651703 
2.3494282469 2.3680303173 2.3899057108 2.4159740166 2.4475202889 2.486385773 2.448570738 2.4736848652 2.5028148801 
2.5369440334 2.5773755784 2.6258554882 2.6847397011 2.5377803997 2.5675431237 2.6015718084 2.6407557529 2.6862098746 
2.7393287203 2.8018393335 2.8758309421 2.718901062 2.8307207459 2.7598010554 2.95115522 2.8800620952 2.8058000847 
3.0774230472 3.00855263 2.9351694502 2.8576792927 3.0774230472 3.1415926536 3.0719036933 2.9967168029 2.91630358 
2.95115522 3.00855263 3.0719036933 3.1415926536 3.0653475414 2.9825888767 2.8307207459 2.8800620952 2.9351694502 
2.9967168029 3.0653475414 3.1415926536 3.0574329311 2.718901062 2.7598010554 2.8058000847 2.8576792927 2.91630358 
2.9825888767 3.0574329311 3.1415926536 2.718901062 2.7598010554 2.8307207459 2.8058000847 2.8800620952 2.95115522 
2.8576792927 2.9351694502 3.00855263 3.0774230472 2.91630358 2.9967168029 3.0719036933 3.1415926536 3.0774230472 
2.9825888767 3.0653475414 3.1415926536 3.0719036933 3.00855263 2.95115522 3.0574329311 3.1415926536 3.0653475414 