# vtk DataFile Version 5.1
vtk output
ASCII
DATASET POLYDATA
POINTS 100 float
6.04556 29.9329 16.676 6.0594 29.945 16.6759 6.10107 29.9763 16.6715 
6.16888 30.0256 16.6634 6.26018 30.0912 16.6521 6.37167 30.1708 16.6382 
6.49967 30.262 16.6222 6.64053 30.3622 16.6048 6.79096 30.4689 16.5861 
6.94833 30.58 16.5659 7.11089 30.6937 16.5438 7.27785 30.8085 16.5189 
7.44946 30.9236 16.4901 7.62679 31.0381 16.4561 7.81161 31.1517 16.4154 
8.00604 31.2639 16.3668 8.21227 31.3746 16.3093 8.43223 31.4834 16.2424 
8.66731 31.5898 16.1659 8.91813 31.6934 16.0802 9.18445 31.7936 15.9863 
9.46512 31.8902 15.8855 9.75817 31.9829 15.7793 10.061 32.0717 15.6697 
10.3706 32.1571 15.5584 10.684 32.24 15.4469 10.998 32.3216 15.3367 
11.3104 32.4034 15.2287 11.6192 32.4873 15.1234 11.9234 32.5748 15.021 
12.2227 32.6677 14.9213 12.5178 32.767 14.8237 12.8098 32.8734 14.7278 
13.1005 32.9868 14.6329 13.3916 33.1066 14.5387 13.6851 33.2314 14.4449 
13.9826 33.3592 14.3516 14.2853 33.4879 14.2592 14.594 33.615 14.1683 
14.9086 33.7382 14.0798 15.2288 33.8557 13.9946 15.5535 33.966 13.9135 
15.8814 34.0686 13.8376 16.2109 34.1637 13.7673 16.5405 34.252 13.7029 
16.8689 34.3354 13.6445 17.1947 34.4157 13.5919 17.5172 34.4953 13.5444 
17.836 34.5767 13.5015 18.151 34.662 13.4623 18.4623 34.7531 13.4262 
18.7702 34.8512 13.3924 19.0752 34.9571 13.3604 19.3776 35.0711 13.3299 
19.6775 35.1929 13.3008 19.9748 35.3219 13.2729 20.2692 35.4574 13.2465 
20.5602 35.5986 13.2216 20.847 35.7448 13.1983 21.1288 35.8957 13.1764 
21.405 36.0511 13.1559 21.6748 36.2111 13.1362 21.938 36.376 13.1169 
22.1945 36.5461 13.0974 22.4447 36.7218 13.0771 22.6893 36.9029 13.0555 
22.9292 37.0893 13.0324 23.1655 37.2803 13.0079 23.3994 37.4747 12.9823 
23.632 37.671 12.9565 23.8643 37.8674 12.9316 24.0968 38.0621 12.9092 
24.3297 38.253 12.8909 24.5627 38.4384 12.8783 24.7952 38.617 12.8731 
25.0263 38.7877 12.8765 25.2549 38.9502 12.8892 25.4795 39.1043 12.9115 
25.699 39.2504 12.9428 25.9124 39.3892 12.9819 26.1188 39.5215 13.0271 
26.3179 39.6479 13.0757 26.5097 39.769 13.1252 26.6944 39.8849 13.1725 
26.8726 39.9955 13.2147 27.045 40.1003 13.249 27.2125 40.1983 13.2733 
27.3754 40.2886 13.2859 27.534 40.37 13.2862 27.6881 40.4418 13.2743 
27.837 40.5031 13.251 27.9793 40.5538 13.2182 28.1133 40.594 13.1783 
28.2368 40.6245 13.1343 28.3471 40.6463 13.0893 28.4417 40.6608 13.0468 
28.518 40.6694 13.0096 28.574 40.6737 12.9806 28.6077 40.6748 12.9618 
28.6183 40.6736 12.9544 
LINES 2 100
OFFSETS vtktypeint64
0 100 
CONNECTIVITY vtktypeint64
0 1 2 3 4 5 6 7 8 
9 10 11 12 13 14 15 16 17 
18 19 20 21 22 23 24 25 26 
27 28 29 30 31 32 33 34 35 
36 37 38 39 40 41 42 43 44 
45 46 47 48 49 50 51 52 53 
54 55 56 57 58 59 60 61 62 
63 64 65 66 67 68 69 70 71 
72 73 74 75 76 77 78 79 80 
81 82 83 84 85 86 87 88 89 
90 91 92 93 94 95 96 97 98 
99 
POINT_DATA 100
FIELD FieldData 3
_theta 1 100 double
0 0.031733259127 0.063466518254 0.095199777382 0.12693303651 0.15866629564 0.19039955476 0.22213281389 0.25386607302 
0.28559933214 0.31733259127 0.3490658504 0.38079910953 0.41253236865 0.44426562778 0.47599888691 0.50773214603 0.53946540516 
0.57119866429 0.60293192342 0.63466518254 0.66639844167 0.6981317008 0.72986495992 0.76159821905 0.79333147818 0.82506473731 
0.85679799643 0.88853125556 0.92026451469 0.95199777382 0.98373103294 1.0154642921 1.0471975512 1.0789308103 1.1106640695 
1.1423973286 1.1741305877 1.2058638468 1.237597106 1.2693303651 1.3010636242 1.3327968833 1.3645301425 1.3962634016 
1.4279966607 1.4597299198 1.491463179 1.5231964381 1.5549296972 1.5866629564 1.6183962155 1.6501294746 1.6818627337 
1.7135959929 1.745329252 1.7770625111 1.8087957702 1.8405290294 1.8722622885 1.9039955476 1.9357288068 1.9674620659 
1.999195325 2.0309285841 2.0626618433 2.0943951024 2.1261283615 2.1578616206 2.1895948798 2.2213281389 2.253061398 
2.2847946572 2.3165279163 2.3482611754 2.3799944345 2.4117276937 2.4434609528 2.4751942119 2.506927471 2.5386607302 
2.5703939893 2.6021272484 2.6338605076 2.6655937667 2.6973270258 2.7290602849 2.7607935441 2.7925268032 2.8242600623 
2.8559933214 2.8877265806 2.9194598397 2.9511930988 2.982926358 3.0146596171 3.0463928762 3.0781261353 3.1098593945 
3.1415926536 
_radius 1 100 double
3.0158856472e-14 0.28582537035 0.56912955103 0.84789319619 1.1208097373 1.3873025623 1.6473060777 1.9009135291 2.1480248114 
2.3881042735 2.620106585 2.8425734687 3.0538603928 3.2524267539 3.4371183205 3.6073850656 3.7634033719 3.9060977408 
4.037074536 4.158486363 4.2728443591 4.3827939995 4.4908733144 4.5992801583 4.7096806965 4.8230872406 4.9398193425 
5.059544739 5.1813838825 5.3040548949 5.4260324795 5.5456946491 5.6614381193 5.7717571337 5.8752951769 5.9708858919 
6.0575947648 6.1347609739 6.2020281752 6.2593514105 6.3069760329 6.345397684 6.3753204946 6.3976272424 6.4133616211 
6.4237077665 6.4299456803 6.433367802 6.4351586366 6.4362573776 6.4372334844 6.4382027205 6.4387990575 6.4382031749 
6.4352169901 6.4283683586 6.4160309895 6.3965503941 6.3683739047 6.330186188 6.2810471454 6.2205184963 6.1487569945 
6.0665539058 5.9753113684 5.876958228 5.7738140014 5.6684104941 5.5632817805 5.4607376476 5.3626403071 5.2702049212 
5.1838420252 5.1030594213 5.0264440041 4.9517435957 4.8760567747 4.7961143608 4.7086093479 4.61051626 4.4993448585 
4.3732952033 4.2313101601 4.0730437846 3.8987714989 3.7092625562 3.5056265872 3.2891441095 3.0610982085 2.8226328847 
2.5746615142 2.3178362581 2.0525777144 1.779160306 1.4978459686 1.2090482352 0.91349310554 0.61233290858 0.30717402444 
7.7087988888e-14 
_area 1 100 double
0 0.24673641568 0.98286134864 2.1959391744 3.8643766905 5.9559181517 8.4265444683 11.221670705 14.280641413 
17.543314539 20.955713107 24.471856585 28.051088492 31.653028211 35.23375262 38.746101372 42.144808665 45.394891431 
48.480400433 51.410552202 54.221124095 56.970332992 59.729884066 62.573286076 65.564489506 68.749708481 72.153757288 
75.780337464 79.6146229 83.626420693 87.772693744 91.999062184 96.24088803 100.42506179 104.47297205 108.30373413 
111.83605409 114.98817814 117.67772243 119.82542758 121.36730551 122.27534565 122.57922616 122.37829827 121.83670162 
121.15998314 120.55687833 120.1955674 120.16829164 120.47703434 121.04389166 121.73890234 122.41338229 122.92887059 
123.17631848 123.08403512 122.61573421 121.7620868 120.52950145 118.92866092 116.96707619 114.65161817 111.99810671 
109.03711736 105.81267881 102.37988857 98.805805934 95.171111422 91.567485254 88.088258975 84.813814979 81.795869767 
79.045408636 76.528096682 74.169407138 71.869158896 69.521303985 67.032345947 64.333125185 61.382412412 58.164261345 
54.682936637 50.958926979 47.02758147 42.939390882 38.759135617 34.561168138 30.420264983 26.400800127 22.549330358 
18.894692394 15.455442261 12.250439446 9.3077043628 6.668669497 4.3872450664 2.5245932109 1.1412244545 0.28830471535 
3.9790393203e-13 
