# vtk DataFile Version 5.1
vtk output
ASCII
DATASET POLYDATA
POINTS 1002 float
13.6609 33.5705 10.8503 20.96 39.9814 7.1084 13.2447 38.0943 17.6106 
20.7805 43.2319 12.4735 14.0384 40.8885 8.46522 13.4193 43.7226 12.9665 
21.3183 34.4281 11.9322 20.6157 37.0938 16.3788 20.3453 47.1215 7.40238 
7.92583 35.7896 14.4728 25.8456 42.9305 11.0689 13.2227 31.9166 17.274 
14.2707 34.0356 10.4236 15.033 34.5279 9.9687 15.8586 35.0211 9.5135 
16.619 35.6177 9.08482 17.3733 36.4176 8.70645 18.2659 37.2888 8.37416 
19.2068 38.0194 8.04142 19.9755 38.6254 7.68284 20.5257 39.2628 7.34763 
13.5775 34.0971 10.7399 13.5176 34.642 10.5295 13.4002 35.2889 10.225 
13.2776 36.1028 9.89271 13.3301 36.9672 9.62584 13.6 37.7308 9.4615 
13.8912 38.4469 9.32952 14.0329 39.2391 9.12223 14.0484 40.0869 8.81168 
14.2371 33.3082 10.6722 15.0778 33.0526 10.5147 16.117 32.8792 10.4188 
17.2146 32.8421 10.431 18.2909 32.8805 10.5522 19.2869 32.9437 10.7259 
20.083 33.1303 10.9297 20.6236 33.5131 11.205 20.9973 33.9907 11.5606 
13.0544 33.4927 11.2531 12.3834 33.4915 11.7282 11.5264 33.5385 12.2163 
10.5403 33.5728 12.6445 9.66051 33.6173 13.0166 9.02552 33.7767 13.3903 
8.57645 34.1082 13.755 8.24148 34.5921 14.0503 8.02072 35.1781 14.2732 
13.416 32.9657 11.1278 13.196 32.4112 11.409 12.9864 32.0464 11.8583 
12.7988 31.9288 12.6732 12.6748 31.9819 13.7673 12.6224 32.0686 14.7397 
12.6301 32.0926 15.3863 12.7269 32.0366 15.9275 12.9368 31.9523 16.5819 
20.4039 40.0971 7.11111 19.7354 40.3237 7.29325 18.9774 40.5301 7.45241 
18.1003 40.5974 7.35306 17.1201 40.5929 7.05228 16.1938 40.6551 6.93482 
15.4728 40.764 7.24233 14.9361 40.8269 7.77505 14.4751 40.851 8.21016 
21.1947 39.4669 7.38022 21.4112 38.911 7.73447 21.6074 38.2721 8.10359 
21.8451 37.5246 8.44688 22.124 36.7276 8.83048 22.25 36.0302 9.34957 
22.0675 35.5238 9.98533 21.7208 35.144 10.6501 21.4516 34.7857 11.302 
21.0996 40.8052 6.86772 21.2724 41.7487 6.67718 21.3615 42.7707 6.53497 
21.2681 43.7277 6.32763 21.0824 44.5112 6.03087 21.0069 45.2076 5.86322 
21.0631 45.9239 6.00939 21.0441 46.5622 6.39287 20.7882 46.9644 6.87125 
21.4985 40.5036 7.19074 21.9983 41.1249 7.48615 22.4922 41.64 7.81675 
23.0582 41.9248 8.08333 23.7249 42.0727 8.45229 24.4082 42.2408 9.02295 
24.9822 42.4591 9.58911 25.3888 42.6715 10.0212 25.6572 42.8338 10.4692 
13.9992 38.5401 17.302 14.9045 39.0572 16.9619 15.8503 39.7342 16.5924 
16.7333 40.4899 16.1757 17.6056 41.1099 15.6379 18.5138 41.5171 14.9081 
19.3066 41.8531 14.0621 19.8652 42.2586 13.303 20.3023 42.7391 12.7742 
13.0463 38.6125 17.4417 12.9964 39.177 17.2535 13.0494 39.7083 16.9569 
13.0929 40.2055 16.4692 13.1042 40.7707 15.8573 13.1554 41.4408 15.26 
13.2615 42.1028 14.6883 13.3604 42.6715 14.0873 13.4094 43.1928 13.4903 
14.0008 37.9289 17.6243 14.8598 37.8071 17.6501 15.6715 37.6405 17.5989 
16.3931 37.3858 17.4145 17.1832 37.1819 17.1456 18.1094 37.1718 16.9139 
18.9542 37.2554 16.7914 19.5565 37.2528 16.721 20.0487 37.1618 16.5954 
12.4277 37.9154 17.8262 11.6771 37.6245 17.9934 11.0232 37.1224 17.8375 
10.4457 36.4619 17.2626 9.89883 35.9192 16.6536 9.34263 35.7222 16.375 
8.77787 35.7821 16.1923 8.28081 35.8596 15.7293 7.97276 35.8492 15.0566 
13.0126 37.463 17.8991 12.7484 36.7022 18.1773 12.3556 35.8533 18.3823 
11.906 34.9828 18.4559 11.6306 34.114 18.4745 11.6751 33.276 18.5767 
11.9768 32.5792 18.6712 12.3929 32.1347 18.4907 12.8225 31.9435 17.9627 
20.237 43.4006 12.5237 19.7241 43.6895 12.8119 19.1476 44.1179 13.2785 
18.4672 44.4922 13.6492 17.7888 44.452 13.6081 17.1122 43.9839 13.1857 
16.2383 43.5783 12.7888 15.1484 43.5626 12.7144 14.127 43.724 12.8613 
21.0201 42.7492 12.6834 21.2396 42.1794 12.9429 21.4352 41.6006 13.2241 
21.6055 41.0251 13.4952 21.6942 40.3581 13.7569 21.6071 39.5904 14.0732 
21.3485 38.8684 14.5332 21.0458 38.2642 15.1479 20.8004 37.6955 15.8106 
20.9642 43.7659 12.2128 21.1835 44.2484 11.8828 21.4319 44.7493 11.4828 
21.6489 45.3468 11.0971 21.7053 45.9714 10.7651 21.4936 46.4607 10.3417 
21.0851 46.7776 9.66858 20.6963 46.9987 8.82002 20.4617 47.1349 8.01613 
21.5777 43.5196 12.4896 22.514 43.9309 12.7135 23.3253 44.3859 13.0245 
23.9215 44.7588 13.2674 24.5421 44.9268 13.3416 25.3199 44.8093 13.1803 
25.9741 44.4278 12.7516 26.2157 43.9139 12.1447 26.1003 43.3988 11.5404 
13.7753 41.4066 8.38752 13.5299 41.9245 8.39791 13.3447 42.3947 8.61213 
13.2572 42.8259 9.05848 13.2463 43.2463 9.6736 13.2188 43.6306 10.412 
13.1302 43.9032 11.2343 13.0702 44.0031 12.0108 13.1589 43.9265 12.5973 
14.3448 41.6256 7.99343 14.8061 42.3444 7.50477 15.4485 43.0415 6.98722 
16.1717 43.7936 6.44154 16.8649 44.611 6.02864 17.5368 45.3806 6.00109 
18.2424 46.0261 6.35838 18.973 46.5504 6.81014 19.6839 46.9285 7.14583 
13.5834 40.4585 8.89998 13.0232 40.0156 9.45432 12.3595 39.4841 10.1287 
11.717 38.7475 10.883 11.1723 37.9148 11.7911 10.5468 37.2952 12.8064 
9.67654 36.967 13.5592 8.77013 36.6898 13.8666 8.16323 36.2823 14.052 
13.7939 44.3103 12.4753 14.31 44.7463 11.9865 15.0806 44.9487 11.4317 
16.0921 45.0862 10.7411 17.0179 45.4749 9.98238 17.5434 46.13 9.30141 
17.8788 46.7129 8.74401 18.4746 47.0088 8.26159 19.3932 47.1023 7.81626 
12.9513 43.0957 13.2432 12.5487 42.2045 13.407 12.049 41.2477 13.5477 
11.3481 40.3836 13.8342 10.486 39.6216 14.2338 9.56974 38.936 14.4898 
8.74961 38.2879 14.4852 8.20338 37.5655 14.3821 7.97662 36.7059 14.3666 
21.4865 34.4375 12.5544 21.7122 34.4153 13.2003 21.903 34.4746 13.8459 
21.9145 34.7432 14.4538 21.75 35.1727 14.9683 21.5716 35.5886 15.4091 
21.4349 35.9347 15.8491 21.2343 36.2868 16.2387 20.9303 36.6847 16.4301 
21.7309 35.0857 11.8938 22.207 35.883 11.8248 22.7094 36.8425 11.75 
23.2356 37.8619 11.7116 23.8009 38.8247 11.6889 24.3513 39.7528 11.6061 
24.8101 40.6817 11.4463 25.1887 41.5356 11.2713 25.5366 42.2664 11.1391 
21.0138 33.8345 12.3542 20.5778 33.2904 12.804 19.9586 32.8466 13.2388 
19.2793 32.4882 13.7006 18.5847 32.2038 14.3225 17.6831 32.0309 15.102 
16.5063 31.9757 15.8277 15.2791 31.9725 16.3688 14.1872 31.9561 16.8132 
21.4665 37.5034 15.8323 22.4567 38.0988 15.4138 23.3192 38.9013 15.1543 
23.9149 39.7674 14.874 24.4188 40.5182 14.47 24.9854 41.1278 14.0229 
25.4692 41.6645 13.4945 25.7228 42.1482 12.7497 25.8148 42.5674 11.8649 
20.0958 36.4299 17.0145 19.6793 35.6456 17.5252 19.3103 34.8607 17.7398 
18.7992 34.2175 17.6088 18.0387 33.6873 17.3512 17.1216 33.141 17.308 
16.1562 32.6011 17.5215 15.1568 32.2042 17.6877 14.1528 31.9949 17.5825 
21.2669 47.1482 7.33718 22.1079 47.0562 7.46545 22.8577 46.7774 7.92621 
23.583 46.3871 8.56409 24.314 46.0638 9.10623 25.0079 45.7689 9.50807 
25.5742 45.2504 9.87504 25.9059 44.4611 10.2464 25.9687 43.6269 10.6359 
7.81141 34.8973 15.0557 7.43393 34.0662 15.789 6.72212 33.4146 16.3688 
6.1501 32.8875 16.6905 6.40376 32.4045 16.9939 7.58885 32.0351 17.3832 
9.18321 31.862 17.6135 10.712 31.8362 17.5588 12.0479 31.869 17.391 
14.1801 34.5555 10.2276 14.0816 35.0903 9.94773 14.9086 35.0086 9.6977 
13.9281 35.7961 9.61785 14.7359 35.5394 9.36475 15.6903 35.503 9.16581 
13.8492 36.7087 9.31568 14.5478 36.3213 9.02812 15.4851 36.1299 8.79252 
16.4833 36.2304 8.68197 14.0076 37.624 9.11272 14.5267 37.3197 8.76504 
15.3454 37.0393 8.47382 16.3731 37.0525 8.32978 17.3679 37.2217 8.33897 
14.3004 38.422 8.98563 14.7209 38.3004 8.58538 15.3853 38.0855 8.23167 
16.3468 38.0306 8.06163 17.382 38.1556 8.08395 18.3301 38.1811 8.11879 
14.4823 39.2096 8.81971 14.9129 39.1903 8.3955 15.5003 39.0728 7.97967 
16.3713 38.9799 7.78479 17.3859 39.0398 7.84852 18.3348 39.0699 7.93998 
19.1895 38.8918 7.85964 14.5009 40.0456 8.54461 14.9559 40.0409 8.11357 
15.5186 39.9692 7.6363 16.3199 39.8503 7.39777 17.3054 39.8241 7.50386 
18.2652 39.8461 7.69519 19.1029 39.7263 7.68057 19.8574 39.4715 7.48792 
12.9924 34.0583 11.1679 12.2834 34.0952 11.6472 12.8921 34.6663 10.9358 
11.3655 34.1655 12.0846 12.0977 34.7085 11.3612 12.7201 35.3757 10.5824 
10.4246 34.2402 12.4345 11.1787 34.7425 11.7305 11.9104 35.3735 10.9542 
12.6347 36.1939 10.2265 9.72322 34.3932 12.7927 10.4153 34.8596 12.0954 
11.1289 35.3841 11.3248 11.9283 36.1696 10.5947 12.7996 37.0258 9.96856 
9.24812 34.7049 13.2284 9.9358 35.1755 12.6049 10.6018 35.618 11.807 
11.3142 36.2897 11.0044 12.1891 37.1145 10.3318 13.1226 37.8383 9.78599 
8.83276 35.1604 13.6304 9.56267 35.6474 13.2032 10.2926 36.0636 12.4767 
10.9318 36.6483 11.5437 11.6426 37.4271 10.7191 12.5257 38.1368 10.0858 
13.3875 38.6962 9.57338 8.44567 35.7051 13.8888 9.15646 36.1654 13.6492 
10.008 36.5316 13.1393 10.7249 37.0195 12.2098 11.3123 37.7666 11.2099 
12.0048 38.5448 10.4187 12.8092 39.128 9.79298 13.5217 39.5975 9.26736 
8.33405 37.1575 14.0492 8.77929 37.9428 14.0694 9.16977 37.4302 13.8223 
9.46535 38.6903 13.993 9.77232 38.1581 13.6002 10.2134 37.6194 13.2747 
10.2217 39.5127 13.6951 10.3852 39.0639 13.1873 10.7724 38.4292 12.7878 
11.0498 38.0332 12.3475 10.9868 40.3651 13.2292 10.9416 40.1453 12.6769 
11.2269 39.5669 12.2866 11.5176 39.0121 11.9096 11.635 38.8135 11.4039 
11.757 41.1845 12.8481 11.5945 41.1453 12.2235 11.7088 40.8227 11.8496 
11.9589 40.2598 11.5709 12.1164 39.8636 11.1192 12.1966 39.7047 10.558 
12.3922 42.0869 12.7057 12.2969 42.0438 11.979 12.3257 41.9086 11.4682 
12.4562 41.5185 11.1526 12.5781 41.0438 10.7436 12.6573 40.7116 10.1735 
12.782 40.4248 9.6917 12.8095 43.0836 12.6832 12.79 43.0303 11.9583 
12.8537 42.9074 11.2436 12.926 42.6284 10.6746 12.967 42.2069 10.164 
13.0081 41.783 9.61073 13.11 41.3979 9.14312 13.3074 40.963 8.91862 
14.1039 42.2025 7.96471 13.8474 42.7888 8.019 14.6006 43.0016 7.64027 
13.6393 43.3037 8.25689 14.3539 43.6307 7.85391 15.2798 43.7752 7.31199 
13.5445 43.7307 8.75847 14.1684 44.0833 8.20715 15.1006 44.3403 7.71411 
16.0297 44.5235 6.84704 13.5109 44.1403 9.54676 14.0877 44.3984 8.82197 
15.0296 44.5827 8.22745 15.9693 44.8945 7.38264 16.7374 45.2278 6.43021 
13.4346 44.5326 10.5245 14.0127 44.7492 9.74068 15.0173 44.7172 8.97175 
16.0531 44.9089 8.08501 16.7549 45.4217 7.09083 17.389 45.8744 6.43568 
[...]
POINT_DATA 1002
FIELD FieldData 4
_paraPhi 1 1002 double
6.2831853072 3.1415926536 6.2831853072 3.1415926536 4.7123889804 4.7123889804 1.5707963268 1.5707963268 3.6951670125 
5.7296109483 2.5880182947 0.5535743589 6.2831853072 6.2831853072 6.2831853072 6.2831853072 3.1415926536 3.1415926536 
3.1415926536 3.1415926536 3.1415926536 6.1053039672 5.898798347 5.6768734901 5.4599499503 5.2659633393 5.1032165617 
4.9713148346 4.8656852733 4.7809517865 0.17788134 0.38438696014 0.60631181711 0.82323535693 1.0172219679 1.1799687454 
1.3118704726 1.4175000338 1.5022335207 6.1892828907 6.1070320098 6.035312792 5.9728339911 5.9183214791 5.8706119594 
5.8286879411 5.7916808611 5.7588591896 0.093902416448 0.17615329733 0.2478725152 0.31035131605 0.36486382811 0.41257334776 
0.45449736604 0.4915044461 0.52432611754 3.3194739936 3.5259796137 3.7479044707 3.9648280105 4.1588146215 4.321561399 
4.4534631262 4.5590926874 4.6438261743 2.9637113136 2.7572056934 2.5352808365 2.3183572967 2.1243706857 1.9616239082 
1.829722181 1.7240926197 1.6393591329 3.23549507 3.3177459509 3.3894651688 3.4519439696 3.5064564817 3.5541660013 
3.5960900196 3.6330970997 3.6659187711 3.0476902371 2.9654393563 2.8937201384 2.8312413375 2.7767288255 2.7290193058 
2.6870952876 2.6500882075 2.617266536 6.2831853072 6.2831853072 6.2831853072 6.2831853072 3.1415926536 3.1415926536 
3.1415926536 3.1415926536 3.1415926536 6.1053039672 5.898798347 5.6768734901 5.4599499503 5.2659633393 5.1032165617 
4.9713148346 4.8656852733 4.7809517865 0.17788134 0.38438696014 0.60631181711 0.82323535693 1.0172219679 1.1799687454 
1.3118704726 1.4175000338 1.5022335207 6.1892828907 6.1070320098 6.035312792 5.9728339911 5.9183214791 5.8706119594 
5.8286879411 5.7916808611 5.7588591896 0.093902416448 0.17615329733 0.2478725152 0.31035131605 0.36486382811 0.41257334776 
0.45449736604 0.4915044461 0.52432611754 3.3194739936 3.5259796137 3.7479044707 3.9648280105 4.1588146215 4.321561399 
4.4534631262 4.5590926874 4.6438261743 2.9637113136 2.7572056934 2.5352808365 2.3183572967 2.1243706857 1.9616239082 
1.829722181 1.7240926197 1.6393591329 3.23549507 3.3177459509 3.3894651688 3.4519439696 3.5064564817 3.5541660013 
3.5960900196 3.6330970997 3.6659187711 3.0476902371 2.9654393563 2.8937201384 2.8312413375 2.7767288255 2.7290193058 
2.6870952876 2.6500882075 2.617266536 4.7123889804 4.7123889804 4.7123889804 4.7123889804 4.7123889804 4.7123889804 
4.7123889804 4.7123889804 4.7123889804 4.6087898617 4.4991390697 4.3857031936 4.2712800401 4.1588146215 4.0509635631 
3.94975894 3.8564636551 3.7716124825 4.8159880991 4.9256388911 5.0390747672 5.1534979207 5.2659633393 5.3738143976 
5.4750190208 5.5683143056 5.6531654782 4.6087898617 4.4991390697 4.3857031936 4.2712800401 4.1588146215 4.0509635631 
3.94975894 3.8564636551 3.7716124825 4.8159880991 4.9256388911 5.0390747672 5.1534979207 5.2659633393 5.3738143976 
5.4750190208 5.5683143056 5.6531654782 1.5707963268 1.5707963268 1.5707963268 1.5707963268 1.5707963268 1.5707963268 
1.5707963268 1.5707963268 1.5707963268 1.6743954455 1.7840462375 1.8974821136 2.0119052671 2.1243706857 2.232221744 
2.3334263672 2.426721652 2.5115728246 1.4671972081 1.3575464161 1.24411054 1.1296873865 1.0172219679 0.90937090954 
0.80816628637 0.71487100155 0.63001982895 1.6743954455 1.7840462375 1.8974821136 2.0119052671 2.1243706857 2.232221744 
2.3334263672 2.426721652 2.5115728246 1.4671972081 1.3575464161 1.24411054 1.1296873865 1.0172219679 0.90937090954 
0.80816628637 0.71487100155 0.63001982895 3.6007720849 3.4966939854 3.3839471039 3.2645756454 3.1415926536 3.0186096618 
2.8992382033 2.7864913217 2.6824132222 5.8240058758 5.9280839753 6.0408308569 6.1602023154 6.2831853072 0.12298299178 
0.2423544503 0.35510133185 0.45917943135 6.0560271438 5.7885595667 5.9702140275 5.5125918794 5.6029703303 5.7885595667 
5.2659633393 5.2659633393 5.2659633393 5.2659633393 5.0674903122 5.0120975802 4.9155579264 4.7123889804 4.1588146215 
4.9155579264 4.8353719722 4.7123889804 4.5092200343 4.1588146215 3.6362183941 4.8004512023 4.7123889804 4.5894059886 
4.4126803806 4.1588146215 3.8218076305 3.4545639333 4.7123889804 4.6243267584 4.5092200343 4.3572876485 4.1588146215 
3.9121860814 3.6362183941 3.368750817 6.0174235957 5.9434319871 5.8263323547 5.8809213739 5.7674481418 5.6279784266 
5.8278025282 5.718968232 5.5891129425 5.4372443565 5.7823484065 5.678536687 5.5575666702 5.4192596322 5.2659633393 
5.743164462 5.6444075337 5.5314983644 5.4046708639 5.2659633393 5.1195510325 5.7091357773 5.6152775188 5.5096229709 
5.3926039573 5.2659633393 5.1329233157 4.9978930058 5.6793730533 5.5901633916 5.4910209005 5.3824597928 5.2659633393 
5.1440684722 5.0201624502 4.8979782167 5.5683143056 5.4750190208 5.4750190208 5.3738143976 5.3738143976 5.3738143976 
5.2659633393 5.2659633393 5.2659633393 5.2659633393 5.1534979207 5.1534979207 5.1534979207 5.1534979207 5.1534979207 
5.0390747672 5.0390747672 5.0390747672 5.0390747672 5.0390747672 5.0390747672 4.9256388911 4.9256388911 4.9256388911 
4.9256388911 4.9256388911 4.9256388911 4.9256388911 4.8159880991 4.8159880991 4.8159880991 4.8159880991 4.8159880991 
4.8159880991 4.8159880991 4.8159880991 4.6087898617 4.6087898617 4.4991390697 4.6087898617 4.4991390697 4.3857031936 
4.6087898617 4.4991390697 4.3857031936 4.2712800401 4.6087898617 4.4991390697 4.3857031936 4.2712800401 4.1588146215 
4.6087898617 4.4991390697 4.3857031936 4.2712800401 4.1588146215 4.0509635631 4.6087898617 4.4991390697 4.3857031936 
4.2712800401 4.1588146215 4.0509635631 3.94975894 4.6087898617 4.4991390697 4.3857031936 4.2712800401 4.1588146215 
4.0509635631 3.94975894 3.8564636551 4.526799744 4.4046155105 4.426884955 4.2807094886 4.2918546451 4.3052269283 
4.1588146215 4.1588146215 4.1588146215 4.1588146215 4.042318168 4.0321740035 4.0201070968 4.0055183285 3.9875336042 
3.9337570603 3.9151549899 3.8932795963 3.8672112905 3.8356650183 3.7967995342 3.8346145692 3.809500442 3.7803704271 
3.7462412737 3.7058097288 3.657329819 3.5984456061 3.7454049075 3.7156421835 3.6816134988 3.6424295543 3.5969754326 
3.5438565869 3.4813459737 3.4073543651 3.5642842451 3.4524645613 3.5233842518 3.3320300872 3.403123212 3.4773852225 
3.20576226 3.2746326772 3.348015857 3.4255060145 3.0774230472 3.1415926536 3.2112816139 3.2864685043 3.3668817272 
2.95115522 3.00855263 3.0719036933 3.1415926536 3.2178377658 3.3005964304 2.8307207459 2.8800620952 2.9351694502 
2.9967168029 3.0653475414 3.1415926536 3.225752376 2.718901062 2.7598010554 2.8058000847 2.8576792927 2.91630358 
2.9825888767 3.0574329311 3.1415926536 3.5642842451 3.5233842518 3.4524645613 3.4773852225 3.403123212 3.3320300872 
3.4255060145 3.348015857 3.2746326772 3.20576226 3.3668817272 3.2864685043 3.2112816139 3.1415926536 3.0774230472 
3.3005964304 3.2178377658 3.1415926536 3.0719036933 3.00855263 2.95115522 3.225752376 3.1415926536 3.0653475414 
2.9967168029 2.9351694502 2.8800620952 2.8307207459 3.1415926536 3.0574329311 2.9825888767 2.91630358 2.8576792927 
2.8058000847 2.7598010554 2.718901062 4.526799744 4.426884955 4.4046155105 4.3052269283 4.2918546451 4.2807094886 
4.1588146215 4.1588146215 4.1588146215 4.1588146215 3.9875336042 4.0055183285 4.0201070968 4.0321740035 4.042318168 
3.7967995342 3.8356650183 3.8672112905 3.8932795963 3.9151549899 3.9337570603 3.5984456061 3.657329819 3.7058097288 
3.7462412737 3.7803704271 3.809500442 3.8346145692 3.4073543651 3.4813459737 3.5438565869 3.5969754326 3.6424295543 
3.6816134988 3.7156421835 3.7454049075 4.7123889804 4.8004512023 4.6243267584 4.9155579264 4.7123889804 4.5092200343 
5.0674903122 4.8353719722 4.5894059886 4.3572876485 5.2659633393 5.0120975802 4.7123889804 4.4126803806 4.1588146215 
5.5125918794 5.2659633393 4.9155579264 4.5092200343 4.1588146215 3.9121860814 5.7885595667 5.6029703303 5.2659633393 
4.7123889804 4.1588146215 3.8218076305 3.6362183941 6.0560271438 5.9702140275 5.7885595667 5.2659633393 4.1588146215 
3.6362183941 3.4545639333 3.368750817 0.22715816343 0.49462574053 0.3129712797 0.77059342779 0.68021497688 0.49462574053 
1.0172219679 1.0172219679 1.0172219679 1.0172219679 1.2156949949 1.271087727 1.3676273807 1.5707963268 2.1243706857 
1.3676273807 1.447813335 1.5707963268 1.7739652728 2.1243706857 2.6469669131 1.4827341049 1.5707963268 1.6937793186 
1.8705049266 2.1243706857 2.4613776767 2.8286213739 1.5707963268 1.6588585487 1.7739652728 1.9258976586 2.1243706857 
2.3709992258 2.6469669131 2.9144344902 1.7563855631 1.8785697967 1.8563003522 2.0024758186 1.9913306621 1.9779583789 
2.1243706857 2.1243706857 2.1243706857 2.1243706857 2.2408671392 2.2510113037 2.2630782103 2.2776669786 2.295651703 
2.3494282469 2.3680303173 2.3899057108 2.4159740166 2.4475202889 2.486385773 2.448570738 2.4736848652 2.5028148801 
2.5369440334 2.5773755784 2.6258554882 2.6847397011 2.5377803997 2.5675431237 2.6015718084 2.6407557529 2.6862098746 
2.7393287203 2.8018393335 2.8758309421 1.6743954455 1.6743954455 1.7840462375 1.6743954455 1.7840462375 1.8974821136 
1.6743954455 1.7840462375 1.8974821136 2.0119052671 1.6743954455 1.7840462375 1.8974821136 2.0119052671 2.1243706857 
1.6743954455 1.7840462375 1.8974821136 2.0119052671 2.1243706857 2.232221744 1.6743954455 1.7840462375 1.8974821136 
2.0119052671 2.1243706857 2.232221744 2.3334263672 1.6743954455 1.7840462375 1.8974821136 2.0119052671 2.1243706857 
2.232221744 2.3334263672 2.426721652 1.4671972081 1.3575464161 1.4671972081 1.24411054 1.3575464161 1.4671972081 
1.1296873865 1.24411054 1.3575464161 1.4671972081 1.0172219679 1.1296873865 1.24411054 1.3575464161 1.4671972081 
0.90937090954 1.0172219679 1.1296873865 1.24411054 1.3575464161 1.4671972081 0.80816628637 0.90937090954 1.0172219679 
1.1296873865 1.24411054 1.3575464161 1.4671972081 0.71487100155 0.80816628637 0.90937090954 1.0172219679 1.1296873865 
1.24411054 1.3575464161 1.4671972081 0.60381225391 0.57404952988 0.69302191562 0.54002084522 0.66790778838 0.79216440667 
0.50083690068 0.63877777351 0.77356233629 0.90072551443 0.45538277901 0.60464862014 0.75168694275 0.89058134991 1.0172219679 
0.40226393329 0.56421707518 0.72561863695 0.87851444325 1.0172219679 1.139116835 0.33975332011 0.51573716537 0.69407236469 
0.86392567495 1.0172219679 1.1502619915 1.2630228569 0.26576171152 0.45685295248 0.6552068806 0.84594095064 1.0172219679 
1.1636342747 1.2852923014 1.3852070904 0.22715816343 0.3129712797 0.49462574053 0.49462574053 0.68021497688 0.77059342779 
1.0172219679 1.0172219679 1.0172219679 1.0172219679 2.1243706857 1.5707963268 1.3676273807 1.271087727 1.2156949949 
2.6469669131 2.1243706857 1.7739652728 1.5707963268 1.447813335 1.3676273807 2.8286213739 2.4613776767 2.1243706857 
1.8705049266 1.6937793186 1.5707963268 1.4827341049 2.9144344902 2.6469669131 2.3709992258 2.1243706857 1.9258976586 
1.7739652728 1.6588585487 1.5707963268 1.7563855631 1.8563003522 1.8785697967 1.9779583789 1.9913306621 2.0024758186 
2.1243706857 2.1243706857 2.1243706857 2.1243706857 2.295651703 2.2776669786 2.2630782103 2.2510113037 2.2408671392 
2.486385773 2.4475202889 2.4159740166 2.3899057108 2.3680303173 2.3494282469 2.6847397011 2.6258554882 2.5773755784 
2.5369440334 2.5028148801 2.4736848652 2.448570738 2.8758309421 2.8018393335 2.7393287203 2.6862098746 2.6407557529 
2.6015718084 2.5675431237 2.5377803997 5.8604937156 5.901393709 5.9723133995 5.9473927383 6.0216547488 6.0927478736 
5.9992719463 6.0767621038 6.1501452836 6.2190157008 6.0578962336 6.1383094565 6.2134963469 0 0.064169606361 
6.1241815303 6.206940195 6.2831853072 0.069688960264 0.13304002361 0.19043743361 6.1990255847 0 0.07624511221 
0.14487585072 0.20642320337 0.26153055843 0.3108719077 0 0.084159722458 0.15900377685 0.22528907359 0.28391336087 
0.3357925689 0.38179159818 0.42269159155 5.8604937156 5.9723133995 5.901393709 6.0927478736 6.0216547488 5.9473927383 
6.2190157008 6.1501452836 6.0767621038 5.9992719463 0.064169606361 0 6.2134963469 6.1383094565 6.0578962336 
0.19043743361 0.13304002361 0.069688960264 6.2831853072 6.206940195 6.1241815303 0.3108719077 0.26153055843 0.20642320337 
0.14487585072 0.07624511221 6.2831853072 6.1990255847 0.42269159155 0.38179159818 0.3357925689 0.28391336087 0.22528907359 
0.15900377685 0.084159722458 0 5.6793730533 5.7091357773 5.5901633916 5.743164462 5.6152775188 5.4910209005 
5.7823484065 5.6444075337 5.5096229709 5.3824597928 5.8278025282 5.678536687 5.5314983644 5.3926039573 5.2659633393 
5.8809213739 5.718968232 5.5575666702 5.4046708639 5.2659633393 5.1440684722 5.9434319871 5.7674481418 5.5891129425 
5.4192596322 5.2659633393 5.1329233157 5.0201624502 6.0174235957 5.8263323547 5.6279784266 5.4372443565 5.2659633393 
5.1195510325 4.9978930058 4.8979782167 1.3852070904 1.2852923014 1.2630228569 1.1636342747 1.1502619915 1.139116835 
1.0172219679 1.0172219679 1.0172219679 1.0172219679 0.84594095064 0.86392567495 0.87851444325 0.89058134991 0.90072551443 
0.6552068806 0.69407236469 0.72561863695 0.75168694275 0.77356233629 0.79216440667 0.45685295248 0.51573716537 0.56421707518 
0.60464862014 0.63877777351 0.66790778838 0.69302191562 0.26576171152 0.33975332011 0.40226393329 0.45538277901 0.50083690068 
0.54002084522 0.57404952988 0.60381225391 
_paraPhiHalf 1 1002 double
0 3.1415926536 0 3.1415926536 1.5707963268 1.5707963268 1.5707963268 1.5707963268 2.5880182947 
0.5535743589 2.5880182947 0.5535743589 0 0 0 0 3.1415926536 3.1415926536 
3.1415926536 3.1415926536 3.1415926536 0.17788134 0.38438696014 0.60631181711 0.82323535693 1.0172219679 1.1799687454 
1.3118704726 1.4175000338 1.5022335207 0.17788134 0.38438696014 0.60631181711 0.82323535693 1.0172219679 1.1799687454 
1.3118704726 1.4175000338 1.5022335207 0.093902416448 0.17615329733 0.2478725152 0.31035131605 0.36486382811 0.41257334776 
0.45449736604 0.4915044461 0.52432611754 0.093902416448 0.17615329733 0.2478725152 0.31035131605 0.36486382811 0.41257334776 
0.45449736604 0.4915044461 0.52432611754 2.9637113136 2.7572056934 2.5352808365 2.3183572967 2.1243706857 1.9616239082 
1.829722181 1.7240926197 1.6393591329 2.9637113136 2.7572056934 2.5352808365 2.3183572967 2.1243706857 1.9616239082 
1.829722181 1.7240926197 1.6393591329 3.0476902371 2.9654393563 2.8937201384 2.8312413375 2.7767288255 2.7290193058 
2.6870952876 2.6500882075 2.617266536 3.0476902371 2.9654393563 2.8937201384 2.8312413375 2.7767288255 2.7290193058 
2.6870952876 2.6500882075 2.617266536 0 0 0 0 3.1415926536 3.1415926536 
3.1415926536 3.1415926536 3.1415926536 0.17788134 0.38438696014 0.60631181711 0.82323535693 1.0172219679 1.1799687454 
1.3118704726 1.4175000338 1.5022335207 0.17788134 0.38438696014 0.60631181711 0.82323535693 1.0172219679 1.1799687454 
1.3118704726 1.4175000338 1.5022335207 0.093902416448 0.17615329733 0.2478725152 0.31035131605 0.36486382811 0.41257334776 
0.45449736604 0.4915044461 0.52432611754 0.093902416448 0.17615329733 0.2478725152 0.31035131605 0.36486382811 0.41257334776 
0.45449736604 0.4915044461 0.52432611754 2.9637113136 2.7572056934 2.5352808365 2.3183572967 2.1243706857 1.9616239082 
1.829722181 1.7240926197 1.6393591329 2.9637113136 2.7572056934 2.5352808365 2.3183572967 2.1243706857 1.9616239082 
1.829722181 1.7240926197 1.6393591329 3.0476902371 2.9654393563 2.8937201384 2.8312413375 2.7767288255 2.7290193058 
2.6870952876 2.6500882075 2.617266536 3.0476902371 2.9654393563 2.8937201384 2.8312413375 2.7767288255 2.7290193058 
2.6870952876 2.6500882075 2.617266536 1.5707963268 1.5707963268 1.5707963268 1.5707963268 1.5707963268 1.5707963268 
1.5707963268 1.5707963268 1.5707963268 1.6743954455 1.7840462375 1.8974821136 2.0119052671 2.1243706857 2.232221744 
2.3334263672 2.426721652 2.5115728246 1.4671972081 1.3575464161 1.24411054 1.1296873865 1.0172219679 0.90937090954 
0.80816628637 0.71487100155 0.63001982895 1.6743954455 1.7840462375 1.8974821136 2.0119052671 2.1243706857 2.232221744 
2.3334263672 2.426721652 2.5115728246 1.4671972081 1.3575464161 1.24411054 1.1296873865 1.0172219679 0.90937090954 
0.80816628637 0.71487100155 0.63001982895 1.5707963268 1.5707963268 1.5707963268 1.5707963268 1.5707963268 1.5707963268 
1.5707963268 1.5707963268 1.5707963268 1.6743954455 1.7840462375 1.8974821136 2.0119052671 2.1243706857 2.232221744 
2.3334263672 2.426721652 2.5115728246 1.4671972081 1.3575464161 1.24411054 1.1296873865 1.0172219679 0.90937090954 
0.80816628637 0.71487100155 0.63001982895 1.6743954455 1.7840462375 1.8974821136 2.0119052671 2.1243706857 2.232221744 
2.3334263672 2.426721652 2.5115728246 1.4671972081 1.3575464161 1.24411054 1.1296873865 1.0172219679 0.90937090954 
0.80816628637 0.71487100155 0.63001982895 2.6824132222 2.7864913217 2.8992382033 3.0186096618 3.1415926536 3.0186096618 
2.8992382033 2.7864913217 2.6824132222 0.45917943135 0.35510133185 0.2423544503 0.12298299178 0 0.12298299178 
0.2423544503 0.35510133185 0.45917943135 0.22715816343 0.49462574053 0.3129712797 0.77059342779 0.68021497688 0.49462574053 
1.0172219679 1.0172219679 1.0172219679 1.0172219679 1.2156949949 1.271087727 1.3676273807 1.5707963268 2.1243706857 
1.3676273807 1.447813335 1.5707963268 1.7739652728 2.1243706857 2.6469669131 1.4827341049 1.5707963268 1.6937793186 
1.8705049266 2.1243706857 2.4613776767 2.8286213739 1.5707963268 1.6588585487 1.7739652728 1.9258976586 2.1243706857 
2.3709992258 2.6469669131 2.9144344902 0.26576171152 0.33975332011 0.45685295248 0.40226393329 0.51573716537 0.6552068806 
0.45538277901 0.56421707518 0.69407236469 0.84594095064 0.50083690068 0.60464862014 0.72561863695 0.86392567495 1.0172219679 
0.54002084522 0.63877777351 0.75168694275 0.87851444325 1.0172219679 1.1636342747 0.57404952988 0.66790778838 0.77356233629 
0.89058134991 1.0172219679 1.1502619915 1.2852923014 0.60381225391 0.69302191562 0.79216440667 0.90072551443 1.0172219679 
1.139116835 1.2630228569 1.3852070904 0.71487100155 0.80816628637 0.80816628637 0.90937090954 0.90937090954 0.90937090954 
1.0172219679 1.0172219679 1.0172219679 1.0172219679 1.1296873865 1.1296873865 1.1296873865 1.1296873865 1.1296873865 
1.24411054 1.24411054 1.24411054 1.24411054 1.24411054 1.24411054 1.3575464161 1.3575464161 1.3575464161 
1.3575464161 1.3575464161 1.3575464161 1.3575464161 1.4671972081 1.4671972081 1.4671972081 1.4671972081 1.4671972081 
1.4671972081 1.4671972081 1.4671972081 1.6743954455 1.6743954455 1.7840462375 1.6743954455 1.7840462375 1.8974821136 
1.6743954455 1.7840462375 1.8974821136 2.0119052671 1.6743954455 1.7840462375 1.8974821136 2.0119052671 2.1243706857 
1.6743954455 1.7840462375 1.8974821136 2.0119052671 2.1243706857 2.232221744 1.6743954455 1.7840462375 1.8974821136 
2.0119052671 2.1243706857 2.232221744 2.3334263672 1.6743954455 1.7840462375 1.8974821136 2.0119052671 2.1243706857 
2.232221744 2.3334263672 2.426721652 1.7563855631 1.8785697967 1.8563003522 2.0024758186 1.9913306621 1.9779583789 
2.1243706857 2.1243706857 2.1243706857 2.1243706857 2.2408671392 2.2510113037 2.2630782103 2.2776669786 2.295651703 
2.3494282469 2.3680303173 2.3899057108 2.4159740166 2.4475202889 2.486385773 2.448570738 2.4736848652 2.5028148801 
2.5369440334 2.5773755784 2.6258554882 2.6847397011 2.5377803997 2.5675431237 2.6015718084 2.6407557529 2.6862098746 
2.7393287203 2.8018393335 2.8758309421 2.718901062 2.8307207459 2.7598010554 2.95115522 2.8800620952 2.8058000847 
3.0774230472 3.00855263 2.9351694502 2.8576792927 3.0774230472 3.1415926536 3.0719036933 2.9967168029 2.91630358 
2.95115522 3.00855263 3.0719036933 3.1415926536 3.0653475414 2.9825888767 2.8307207459 2.8800620952 2.9351694502 
2.9967168029 3.0653475414 3.1415926536 3.0574329311 2.718901062 2.7598010554 2.8058000847 2.8576792927 2.91630358 
2.9825888767 3.0574329311 3.1415926536 2.718901062 2.7598010554 2.8307207459 2.8058000847 2.8800620952 2.95115522 
2.8576792927 2.9351694502 3.00855263 3.0774230472 2.91630358 2.9967168029 3.0719036933 3.1415926536 3.0774230472 
2.9825888767 3.0653475414 3.1415926536 3.0719036933 3.00855263 2.95115522 3.0574329311 3.1415926536 3.0653475414 