# vtk DataFile Version 5.1
vtk output
ASCII
DATASET POLYDATA
POINTS 1002 float
13.8405 33.7854 9.13356 22.1322 38.963 9.90967 10.541 38.0407 16.7213 
21.0432 42.3655 14.9335 15.236 42.5527 5.39959 13.292 44.5764 10.5152 
22.1005 31.4417 14.0929 20.2432 34.3121 18.9769 23.2663 48.0505 10.0998 
7.11975 37.6412 9.90841 27.8386 39.8628 16.3835 9.10603 29.932 15.8948 
14.7679 34.1639 9.00293 15.8051 34.5459 8.85537 16.8695 34.9139 8.69189 
17.8665 35.3556 8.59705 18.7874 35.9898 8.66771 19.6702 36.7285 8.8568 
20.4855 37.3493 9.05319 21.1667 37.8329 9.26936 21.7026 38.3457 9.56672 
13.7606 34.44 8.70828 13.7872 35.1429 8.22643 13.9002 35.9171 7.72392 
14.0259 36.7704 7.17629 14.1407 37.6664 6.55191 14.3092 38.5895 5.9843 
14.5643 39.5764 5.68034 14.8416 40.6226 5.61453 15.0692 41.6426 5.56325 
14.5502 33.3586 9.41365 15.3307 32.9298 9.68091 16.1042 32.5632 10.0908 
16.844 32.2756 10.7328 17.6768 32.0097 11.3756 18.748 31.7113 11.7624 
19.9326 31.4285 12.0774 20.9261 31.2753 12.6378 21.6088 31.2994 13.3939 
12.8686 33.8131 9.00456 11.8871 33.8541 8.87854 10.9952 33.9792 8.85834 
10.2269 34.2989 8.97917 9.49835 34.8122 9.13688 8.74904 35.3602 9.23717 
8.07417 35.8519 9.32356 7.59397 36.3721 9.46864 7.3013 36.9892 9.67217 
13.3829 33.1313 9.47629 12.8866 32.4086 9.85394 12.2947 31.644 10.2201 
11.6181 30.9001 10.5621 10.9222 30.301 10.9919 10.2712 29.9774 11.6738 
9.73962 29.9315 12.6391 9.38677 30.0003 13.7628 9.19399 30.0101 14.8867 
21.7049 39.4789 9.41267 21.1569 39.9851 8.83628 20.5761 40.4092 8.15274 
19.9908 40.8302 7.50306 19.2749 41.3657 7.06399 18.3773 41.9071 6.75986 
17.4663 42.2259 6.38542 16.6744 42.3202 5.94354 15.9536 42.3878 5.59052 
22.2604 38.0694 10.1593 22.4711 37.29 10.3745 22.7892 36.6889 10.6312 
23.0652 36.0072 10.9882 23.0941 35.0034 11.4319 22.8808 33.9407 11.9593 
22.6193 33.1948 12.5766 22.4291 32.6644 13.1951 22.2786 32.0761 13.7019 
22.3122 39.9748 9.88661 22.4886 41.0183 9.76168 22.6617 42.0042 9.63157 
22.8632 42.9885 9.59177 23.0558 44.0839 9.60765 23.1857 45.2706 9.57053 
23.3188 46.3833 9.47905 23.4846 47.2501 9.47331 23.5212 47.7942 9.68337 
22.5777 39.1154 10.4813 23.0001 39.3223 11.1609 23.449 39.4715 11.8842 
23.9864 39.501 12.6057 24.6409 39.5025 13.2952 25.3952 39.598 13.8866 
26.1972 39.7585 14.3646 26.9529 39.8692 14.8669 27.5346 39.8906 15.545 
11.3526 38.3882 16.5672 12.4116 38.6513 16.1339 13.6552 38.8967 15.5849 
14.8693 39.3569 15.3012 15.8829 40.2126 15.4866 16.7839 41.1872 15.792 
17.7936 41.7575 15.7118 18.9604 41.8703 15.2743 20.1095 41.9673 14.9263 
10.5293 38.498 16.2842 10.6517 39.0387 15.6356 10.9157 39.9041 15.0239 
11.2079 41.0134 14.5831 11.4203 41.9819 14.0998 11.6042 42.6517 13.3565 
11.8882 43.2012 12.4864 12.3083 43.7308 11.7159 12.803 44.1886 11.0783 
11.0919 37.7155 16.9081 11.7775 37.2421 16.9433 12.6099 36.6486 16.9439 
13.5759 36.0491 16.9982 14.6957 35.5602 17.0234 16.0636 35.1888 16.944 
17.6091 34.8766 16.9766 18.9597 34.6161 17.4101 19.8121 34.432 18.1878 
9.81706 37.9439 16.4481 9.1266 37.812 15.9481 8.47178 37.6723 15.3466 
7.86131 37.5425 14.7899 7.3383 37.4175 14.2056 6.96734 37.3327 13.3831 
6.78383 37.361 12.3359 6.77407 37.4932 11.3189 6.89939 37.6172 10.5134 
10.1486 37.34 16.7928 9.73383 36.2923 16.6838 9.29195 35.0561 16.6156 
8.87722 33.9343 16.7798 8.45425 32.969 17.1239 7.97507 31.9409 17.4202 
7.65693 30.8854 17.4642 7.79882 30.1441 17.1693 8.37432 29.8816 16.5936 
20.452 42.6596 14.5027 19.7325 43.0595 14.1172 18.848 43.5383 13.7782 
17.8088 43.9857 13.4761 16.7791 44.308 13.127 15.9718 44.4826 12.6087 
15.3658 44.5336 11.963 14.7456 44.525 11.372 14.0199 44.5314 10.9124 
21.09 41.734 15.2704 21.1589 41.0108 15.5836 21.2377 40.1512 15.8938 
21.2518 39.1636 16.2206 21.1518 38.1589 16.5172 20.9855 37.2455 16.7939 
20.8217 36.4138 17.2147 20.6633 35.6226 17.8557 20.4755 34.9052 18.5275 
21.45 43.1937 14.8674 21.7 44.1565 14.8223 21.8246 45.0299 14.6524 
21.9877 45.7362 14.2863 22.2833 46.427 13.8532 22.621 47.1492 13.4517 
22.9093 47.7111 12.9198 23.144 47.9963 12.0874 23.288 48.0813 11.0623 
21.8139 42.6367 15.4682 22.4688 42.9185 16.1635 23.0834 42.92 16.6989 
23.8321 42.6098 16.9393 24.8308 42.2497 17.1474 26.0101 41.9387 17.5214 
27.1274 41.5088 17.7747 27.8789 40.9229 17.5669 28.091 40.342 16.9924 
14.8211 43.2603 5.17958 14.2794 44.0267 4.95514 13.6631 44.7258 4.89648 
13.131 45.2456 5.27974 12.8773 45.5472 6.17628 12.9252 45.6144 7.29138 
13.0739 45.4538 8.30167 13.1542 45.1596 9.14593 13.1959 44.8527 9.88156 
15.8727 43.2838 5.26806 16.6239 44.089 5.25715 17.4597 45.0046 5.49884 
18.2918 45.9366 5.9422 19.0834 46.6843 6.39816 19.9162 47.1851 6.83503 
20.8479 47.5541 7.41785 21.7874 47.8463 8.22459 22.605 48.0136 9.15941 
14.3913 42.2348 5.47048 13.4839 41.8404 5.65768 12.503 41.2878 5.9274 
11.4265 40.5903 6.22034 10.3317 39.8765 6.54745 9.36442 39.2875 7.03301 
8.57469 38.8714 7.74032 7.93578 38.5458 8.53948 7.45124 38.1617 9.26998 
14.1458 45.0114 10.2286 14.8706 45.6688 9.99516 15.5027 46.4642 9.9124 
16.2134 47.1758 10.0117 17.1218 47.6433 10.154 18.2521 47.8892 10.172 
19.5986 48.019 10.0818 21.0365 48.0996 10.0142 22.3165 48.1278 10.0293 
12.2654 44.4237 10.4341 11.2755 44.201 10.2994 10.5161 43.6871 10.1479 
9.93108 42.8146 10.0365 9.25339 41.8371 9.9318 8.41511 41.0521 9.7944 
7.68556 40.4092 9.69634 7.28659 39.6426 9.70516 7.15413 38.6697 9.79097 
22.2673 31.2073 14.7189 22.4461 31.1001 15.4781 22.5627 31.1798 16.4715 
22.5063 31.4144 17.586 22.1826 31.7736 18.535 21.5998 32.2814 19.1859 
20.9472 32.8876 19.591 20.4838 33.454 19.7224 20.2924 33.9141 19.4971 
22.6737 32.0379 14.4578 23.2807 32.7069 14.762 23.9959 33.3767 15.0874 
24.8137 34.0436 15.5126 25.5401 34.8141 15.9702 25.9646 35.7972 16.3127 
26.2043 36.9433 16.4734 26.5937 38.0733 16.4813 27.2197 39.0517 16.4185 
21.5144 30.784 14.0575 20.7425 30.3127 14.025 19.8116 30.0879 14.039 
18.5625 30.0124 14.1386 16.7588 29.983 14.3402 14.6202 30.0115 14.6301 
12.7562 30.093 14.9708 11.3924 30.1253 15.3184 10.2473 30.0492 15.6368 
20.705 34.5733 19.3321 21.3115 34.99 19.3922 22.2022 35.6738 19.3747 
23.2511 36.5716 19.5038 24.2523 37.4019 19.6686 25.189 37.9358 19.5607 
26.1087 38.294 19.0596 26.93 38.7389 18.2595 27.5266 39.3113 17.3131 
19.6829 33.8278 18.6213 18.8217 33.2666 17.8905 17.668 32.6232 17.2211 
16.3662 31.9396 17.141 15.0018 31.2254 17.5893 13.5469 30.5314 17.9504 
12.0794 30.036 17.8332 10.808 29.8531 17.3355 9.83836 29.8772 16.6584 
24.1191 47.8775 10.7219 24.951 47.5044 11.3123 25.5866 46.8562 11.8707 
25.831 45.8549 12.5357 25.8862 44.5208 13.4211 26.2946 43.1308 14.3439 
27.1532 42.0378 15.0111 27.9109 41.2748 15.4408 28.1172 40.6006 15.8675 
6.93048 36.5942 10.4207 6.70173 35.5008 11.0743 6.46241 34.49 11.8123 
6.27292 33.5015 12.4588 6.11226 32.3719 12.9562 5.99775 31.2005 13.4758 
6.17953 30.3415 14.1427 6.87965 29.9597 14.8563 7.96125 29.8965 15.46 
14.7892 34.8643 8.5753 14.8914 35.6408 8.09022 15.9074 35.2776 8.40438 
14.9856 36.513 7.59239 16.0111 36.1406 7.91879 16.9606 35.71 8.22651 
15.0187 37.4438 7.06963 16.0316 37.1295 7.45234 16.9902 36.7133 7.78574 
17.8707 36.3078 8.20118 15.0845 38.3854 6.53158 16.0331 38.1464 7.00353 
17.0052 37.8199 7.37992 17.8655 37.4654 7.85233 18.727 37.1035 8.40486 
15.2788 39.3698 6.11973 16.1502 39.1616 6.61252 17.1293 38.8765 7.00257 
18.0113 38.577 7.45756 18.7821 38.2782 8.09335 19.6106 37.8638 8.68165 
15.5434 40.4224 5.91435 16.3567 40.2398 6.35631 17.3223 39.9436 6.73167 
18.2755 39.5682 7.07348 19.041 39.2556 7.62545 19.7201 38.9285 8.33469 
20.4529 38.4262 8.90395 15.7753 41.4614 5.78343 16.5372 41.3385 6.17362 
17.4351 41.1067 6.57118 18.4193 40.6676 6.86054 19.2721 40.1895 7.22037 
19.9243 39.8246 7.83937 20.5311 39.4432 8.55593 21.1548 38.9162 9.13052 
12.7788 34.4883 8.50958 11.857 34.5705 8.37798 12.8277 35.2149 7.98452 
11.0749 34.8119 8.40213 11.9854 35.3659 7.83154 12.9971 36.0383 7.41548 
10.3584 35.2791 8.51037 11.2612 35.7377 7.8026 12.2135 36.294 7.15595 
13.1991 36.9666 6.73377 9.5743 35.8326 8.57145 10.4865 36.2793 7.81853 
11.4362 36.7635 7.02413 12.4191 37.3283 6.37256 13.3907 37.9476 6.02532 
8.77506 36.3173 8.61709 9.61279 36.7766 7.85506 10.5332 37.2778 7.04683 
11.5389 37.8273 6.29546 12.5984 38.3914 5.77023 13.6209 38.9666 5.58115 
8.14101 36.8125 8.75926 8.8361 37.2248 7.99048 9.64996 37.7023 7.20517 
10.6074 38.2828 6.49198 11.7148 38.9015 5.93211 12.856 39.4925 5.59567 
13.9083 40.0574 5.51069 7.725 37.4474 8.99803 8.29524 37.812 8.24036 
9.00039 38.1939 7.45109 9.86209 38.7137 6.77147 10.9169 39.3697 6.27385 
12.0781 40.0554 5.91794 13.1897 40.6685 5.67634 14.1852 41.1841 5.56123 
7.5454 39.1899 9.0658 7.81012 40.136 8.86781 8.14283 39.5801 8.22662 
8.36377 40.937 8.78426 8.54449 40.6134 7.968 8.91566 39.9821 7.40231 
9.13767 41.7545 8.87023 9.14395 41.6295 7.92735 9.41314 41.2147 7.22413 
9.85399 40.5299 6.80021 9.8935 42.7293 9.02892 9.83233 42.676 8.08982 
9.97607 42.4726 7.28428 10.4119 41.9447 6.71029 10.934 41.2388 6.41337 
10.5547 43.6809 9.19922 10.5385 43.6681 8.29421 10.5764 43.6004 7.44401 
10.9063 43.296 6.68819 11.4625 42.711 6.22134 12.0105 41.9976 6.05212 
11.2944 44.3255 9.42627 11.3224 44.4105 8.52675 11.2991 44.4519 7.62019 
11.4196 44.3419 6.6897 11.8385 43.9767 5.95323 12.417 43.3723 5.65789 
12.9782 42.623 5.65985 12.2163 44.6491 9.68199 12.2251 44.8596 8.83518 
12.1698 45.0281 7.90874 12.1042 45.0623 6.86632 12.2587 44.8777 5.86341 
12.7135 44.4502 5.26752 13.3141 43.8022 5.18709 13.8968 43.0186 5.34132 
15.4781 44.0172 5.00541 14.9212 44.8073 4.86171 16.2862 44.8933 5.09794 
14.2863 45.498 5.03829 15.7381 45.7417 5.15794 17.1505 45.9318 5.49586 
13.8047 45.9732 5.72481 15.0919 46.4123 5.57576 16.5785 46.8092 5.68533 
17.9415 46.9295 5.98094 13.6679 46.1954 6.81237 14.6266 46.7849 6.43916 
15.9024 47.3408 6.20727 17.3294 47.6814 6.18269 18.7065 47.5879 6.41739 
13.7968 46.1262 7.92357 14.5132 46.8494 7.5486 15.4316 47.485 7.16654 
16.6609 47.9409 6.84654 18.1212 48.0859 6.76798 19.6078 47.8874 6.99651 
[...]
POINT_DATA 1002
FIELD FieldData 4
_paraPhi 1 1002 double
6.2831853072 3.1415926536 6.2831853072 3.1415926536 4.7123889804 4.7123889804 1.5707963268 1.5707963268 3.6951670125 
5.7296109483 2.5880182947 0.5535743589 6.2831853072 6.2831853072 6.2831853072 6.2831853072 3.1415926536 3.1415926536 
3.1415926536 3.1415926536 3.1415926536 6.1053039672 5.898798347 5.6768734901 5.4599499503 5.2659633393 5.1032165617 
4.9713148346 4.8656852733 4.7809517865 0.17788134 0.38438696014 0.60631181711 0.82323535693 1.0172219679 1.1799687454 
1.3118704726 1.4175000338 1.5022335207 6.1892828907 6.1070320098 6.035312792 5.9728339911 5.9183214791 5.8706119594 
5.8286879411 5.7916808611 5.7588591896 0.093902416448 0.17615329733 0.2478725152 0.31035131605 0.36486382811 0.41257334776 
0.45449736604 0.4915044461 0.52432611754 3.3194739936 3.5259796137 3.7479044707 3.9648280105 4.1588146215 4.321561399 
4.4534631262 4.5590926874 4.6438261743 2.9637113136 2.7572056934 2.5352808365 2.3183572967 2.1243706857 1.9616239082 
1.829722181 1.7240926197 1.6393591329 3.23549507 3.3177459509 3.3894651688 3.4519439696 3.5064564817 3.5541660013 
3.5960900196 3.6330970997 3.6659187711 3.0476902371 2.9654393563 2.8937201384 2.8312413375 2.7767288255 2.7290193058 
2.6870952876 2.6500882075 2.617266536 6.2831853072 6.2831853072 6.2831853072 6.2831853072 3.1415926536 3.1415926536 
3.1415926536 3.1415926536 3.1415926536 6.1053039672 5.898798347 5.6768734901 5.4599499503 5.2659633393 5.1032165617 
4.9713148346 4.8656852733 4.7809517865 0.17788134 0.38438696014 0.60631181711 0.82323535693 1.0172219679 1.1799687454 
1.3118704726 1.4175000338 1.5022335207 6.1892828907 6.1070320098 6.035312792 5.9728339911 5.9183214791 5.8706119594 
5.8286879411 5.7916808611 5.7588591896 0.093902416448 0.17615329733 0.2478725152 0.31035131605 0.36486382811 0.41257334776 
0.45449736604 0.4915044461 0.52432611754 3.3194739936 3.5259796137 3.7479044707 3.9648280105 4.1588146215 4.321561399 
4.4534631262 4.5590926874 4.6438261743 2.9637113136 2.7572056934 2.5352808365 2.3183572967 2.1243706857 1.9616239082 
1.829722181 1.7240926197 1.6393591329 3.23549507 3.3177459509 3.3894651688 3.4519439696 3.5064564817 3.5541660013 
3.5960900196 3.6330970997 3.6659187711 3.0476902371 2.9654393563 2.8937201384 2.8312413375 2.7767288255 2.7290193058 
2.6870952876 2.6500882075 2.617266536 4.7123889804 4.7123889804 4.7123889804 4.7123889804 4.7123889804 4.7123889804 
4.7123889804 4.7123889804 4.7123889804 4.6087898617 4.4991390697 4.3857031936 4.2712800401 4.1588146215 4.0509635631 
3.94975894 3.8564636551 3.7716124825 4.8159880991 4.9256388911 5.0390747672 5.1534979207 5.2659633393 5.3738143976 
5.4750190208 5.5683143056 5.6531654782 4.6087898617 4.4991390697 4.3857031936 4.2712800401 4.1588146215 4.0509635631 
3.94975894 3.8564636551 3.7716124825 4.8159880991 4.9256388911 5.0390747672 5.1534979207 5.2659633393 5.3738143976 
5.4750190208 5.5683143056 5.6531654782 1.5707963268 1.5707963268 1.5707963268 1.5707963268 1.5707963268 1.5707963268 
1.5707963268 1.5707963268 1.5707963268 1.6743954455 1.7840462375 1.8974821136 2.0119052671 2.1243706857 2.232221744 
2.3334263672 2.426721652 2.5115728246 1.4671972081 1.3575464161 1.24411054 1.1296873865 1.0172219679 0.90937090954 
0.80816628637 0.71487100155 0.63001982895 1.6743954455 1.7840462375 1.8974821136 2.0119052671 2.1243706857 2.232221744 
2.3334263672 2.426721652 2.5115728246 1.4671972081 1.3575464161 1.24411054 1.1296873865 1.0172219679 0.90937090954 
0.80816628637 0.71487100155 0.63001982895 3.6007720849 3.4966939854 3.3839471039 3.2645756454 3.1415926536 3.0186096618 
2.8992382033 2.7864913217 2.6824132222 5.8240058758 5.9280839753 6.0408308569 6.1602023154 6.2831853072 0.12298299178 
0.2423544503 0.35510133185 0.45917943135 6.0560271438 5.7885595667 5.9702140275 5.5125918794 5.6029703303 5.7885595667 
5.2659633393 5.2659633393 5.2659633393 5.2659633393 5.0674903122 5.0120975802 4.9155579264 4.7123889804 4.1588146215 
4.9155579264 4.8353719722 4.7123889804 4.5092200343 4.1588146215 3.6362183941 4.8004512023 4.7123889804 4.5894059886 
4.4126803806 4.1588146215 3.8218076305 3.4545639333 4.7123889804 4.6243267584 4.5092200343 4.3572876485 4.1588146215 
3.9121860814 3.6362183941 3.368750817 6.0174235957 5.9434319871 5.8263323547 5.8809213739 5.7674481418 5.6279784266 
5.8278025282 5.718968232 5.5891129425 5.4372443565 5.7823484065 5.678536687 5.5575666702 5.4192596322 5.2659633393 
5.743164462 5.6444075337 5.5314983644 5.4046708639 5.2659633393 5.1195510325 5.7091357773 5.6152775188 5.5096229709 
5.3926039573 5.2659633393 5.1329233157 4.9978930058 5.6793730533 5.5901633916 5.4910209005 5.3824597928 5.2659633393 
5.1440684722 5.0201624502 4.8979782167 5.5683143056 5.4750190208 5.4750190208 5.3738143976 5.3738143976 5.3738143976 
5.2659633393 5.2659633393 5.2659633393 5.2659633393 5.1534979207 5.1534979207 5.1534979207 5.1534979207 5.1534979207 
5.0390747672 5.0390747672 5.0390747672 5.0390747672 5.0390747672 5.0390747672 4.9256388911 4.9256388911 4.9256388911 
4.9256388911 4.9256388911 4.9256388911 4.9256388911 4.8159880991 4.8159880991 4.8159880991 4.8159880991 4.8159880991 
4.8159880991 4.8159880991 4.8159880991 4.6087898617 4.6087898617 4.4991390697 4.6087898617 4.4991390697 4.3857031936 
4.6087898617 4.4991390697 4.3857031936 4.2712800401 4.6087898617 4.4991390697 4.3857031936 4.2712800401 4.1588146215 
4.6087898617 4.4991390697 4.3857031936 4.2712800401 4.1588146215 4.0509635631 4.6087898617 4.4991390697 4.3857031936 
4.2712800401 4.1588146215 4.0509635631 3.94975894 4.6087898617 4.4991390697 4.3857031936 4.2712800401 4.1588146215 
4.0509635631 3.94975894 3.8564636551 4.526799744 4.4046155105 4.426884955 4.2807094886 4.2918546451 4.3052269283 
4.1588146215 4.1588146215 4.1588146215 4.1588146215 4.042318168 4.0321740035 4.0201070968 4.0055183285 3.9875336042 
3.9337570603 3.9151549899 3.8932795963 3.8672112905 3.8356650183 3.7967995342 3.8346145692 3.809500442 3.7803704271 
3.7462412737 3.7058097288 3.657329819 3.5984456061 3.7454049075 3.7156421835 3.6816134988 3.6424295543 3.5969754326 
3.5438565869 3.4813459737 3.4073543651 3.5642842451 3.4524645613 3.5233842518 3.3320300872 3.403123212 3.4773852225 
3.20576226 3.2746326772 3.348015857 3.4255060145 3.0774230472 3.1415926536 3.2112816139 3.2864685043 3.3668817272 
2.95115522 3.00855263 3.0719036933 3.1415926536 3.2178377658 3.3005964304 2.8307207459 2.8800620952 2.9351694502 
2.9967168029 3.0653475414 3.1415926536 3.225752376 2.718901062 2.7598010554 2.8058000847 2.8576792927 2.91630358 
2.9825888767 3.0574329311 3.1415926536 3.5642842451 3.5233842518 3.4524645613 3.4773852225 3.403123212 3.3320300872 
3.4255060145 3.348015857 3.2746326772 3.20576226 3.3668817272 3.2864685043 3.2112816139 3.1415926536 3.0774230472 
3.3005964304 3.2178377658 3.1415926536 3.0719036933 3.00855263 2.95115522 3.225752376 3.1415926536 3.0653475414 
2.9967168029 2.9351694502 2.8800620952 2.8307207459 3.1415926536 3.0574329311 2.9825888767 2.91630358 2.8576792927 
2.8058000847 2.7598010554 2.718901062 4.526799744 4.426884955 4.4046155105 4.3052269283 4.2918546451 4.2807094886 
4.1588146215 4.1588146215 4.1588146215 4.1588146215 3.9875336042 4.0055183285 4.0201070968 4.0321740035 4.042318168 
3.7967995342 3.8356650183 3.8672112905 3.8932795963 3.9151549899 3.9337570603 3.5984456061 3.657329819 3.7058097288 
3.7462412737 3.7803704271 3.809500442 3.8346145692 3.4073543651 3.4813459737 3.5438565869 3.5969754326 3.6424295543 
3.6816134988 3.7156421835 3.7454049075 4.7123889804 4.8004512023 4.6243267584 4.9155579264 4.7123889804 4.5092200343 
5.0674903122 4.8353719722 4.5894059886 4.3572876485 5.2659633393 5.0120975802 4.7123889804 4.4126803806 4.1588146215 
5.5125918794 5.2659633393 4.9155579264 4.5092200343 4.1588146215 3.9121860814 5.7885595667 5.6029703303 5.2659633393 
4.7123889804 4.1588146215 3.8218076305 3.6362183941 6.0560271438 5.9702140275 5.7885595667 5.2659633393 4.1588146215 
3.6362183941 3.4545639333 3.368750817 0.22715816343 0.49462574053 0.3129712797 0.77059342779 0.68021497688 0.49462574053 
1.0172219679 1.0172219679 1.0172219679 1.0172219679 1.2156949949 1.271087727 1.3676273807 1.5707963268 2.1243706857 
1.3676273807 1.447813335 1.5707963268 1.7739652728 2.1243706857 2.6469669131 1.4827341049 1.5707963268 1.6937793186 
1.8705049266 2.1243706857 2.4613776767 2.8286213739 1.5707963268 1.6588585487 1.7739652728 1.9258976586 2.1243706857 
2.3709992258 2.6469669131 2.9144344902 1.7563855631 1.8785697967 1.8563003522 2.0024758186 1.9913306621 1.9779583789 
2.1243706857 2.1243706857 2.1243706857 2.1243706857 2.2408671392 2.2510113037 2.2630782103 2.2776669786 2.295651703 
2.3494282469 2.3680303173 2.3899057108 2.4159740166 2.4475202889 2.486385773 2.448570738 2.4736848652 2.5028148801 
2.5369440334 2.5773755784 2.6258554882 2.6847397011 2.5377803997 2.5675431237 2.6015718084 2.6407557529 2.6862098746 
2.7393287203 2.8018393335 2.8758309421 1.6743954455 1.6743954455 1.7840462375 1.6743954455 1.7840462375 1.8974821136 
1.6743954455 1.7840462375 1.8974821136 2.0119052671 1.6743954455 1.7840462375 1.8974821136 2.0119052671 2.1243706857 
1.6743954455 1.7840462375 1.8974821136 2.0119052671 2.1243706857 2.232221744 1.6743954455 1.7840462375 1.8974821136 
2.0119052671 2.1243706857 2.232221744 2.3334263672 1.6743954455 1.7840462375 1.8974821136 2.0119052671 2.1243706857 
2.232221744 2.3334263672 2.426721652 1.4671972081 1.3575464161 1.4671972081 1.24411054 1.3575464161 1.4671972081 
1.1296873865 1.24411054 1.3575464161 1.4671972081 1.0172219679 1.1296873865 1.24411054 1.3575464161 1.4671972081 
0.90937090954 1.0172219679 1.1296873865 1.24411054 1.3575464161 1.4671972081 0.80816628637 0.90937090954 1.0172219679 
1.1296873865 1.24411054 1.3575464161 1.4671972081 0.71487100155 0.80816628637 0.90937090954 1.0172219679 1.1296873865 
1.24411054 1.3575464161 1.4671972081 0.60381225391 0.57404952988 0.69302191562 0.54002084522 0.66790778838 0.79216440667 
0.50083690068 0.63877777351 0.77356233629 0.90072551443 0.45538277901 0.60464862014 0.75168694275 0.89058134991 1.0172219679 
0.40226393329 0.56421707518 0.72561863695 0.87851444325 1.0172219679 1.139116835 0.33975332011 0.51573716537 0.69407236469 
0.86392567495 1.0172219679 1.1502619915 1.2630228569 0.26576171152 0.45685295248 0.6552068806 0.84594095064 1.0172219679 
1.1636342747 1.2852923014 1.3852070904 0.22715816343 0.3129712797 0.49462574053 0.49462574053 0.68021497688 0.77059342779 
1.0172219679 1.0172219679 1.0172219679 1.0172219679 2.1243706857 1.5707963268 1.3676273807 1.271087727 1.2156949949 
2.6469669131 2.1243706857 1.7739652728 1.5707963268 1.447813335 1.3676273807 2.8286213739 2.4613776767 2.1243706857 
1.8705049266 1.6937793186 1.5707963268 1.4827341049 2.9144344902 2.6469669131 2.3709992258 2.1243706857 1.9258976586 
1.7739652728 1.6588585487 1.5707963268 1.7563855631 1.8563003522 1.8785697967 1.9779583789 1.9913306621 2.0024758186 
2.1243706857 2.1243706857 2.1243706857 2.1243706857 2.295651703 2.2776669786 2.2630782103 2.2510113037 2.2408671392 
2.486385773 2.4475202889 2.4159740166 2.3899057108 2.3680303173 2.3494282469 2.6847397011 2.6258554882 2.5773755784 
2.5369440334 2.5028148801 2.4736848652 2.448570738 2.8758309421 2.8018393335 2.7393287203 2.6862098746 2.6407557529 
2.6015718084 2.5675431237 2.5377803997 5.8604937156 5.901393709 5.9723133995 5.9473927383 6.0216547488 6.0927478736 
5.9992719463 6.0767621038 6.1501452836 6.2190157008 6.0578962336 6.1383094565 6.2134963469 0 0.064169606361 
6.1241815303 6.206940195 6.2831853072 0.069688960264 0.13304002361 0.19043743361 6.1990255847 0 0.07624511221 
0.14487585072 0.20642320337 0.26153055843 0.3108719077 0 0.084159722458 0.15900377685 0.22528907359 0.28391336087 
0.3357925689 0.38179159818 0.42269159155 5.8604937156 5.9723133995 5.901393709 6.0927478736 6.0216547488 5.9473927383 
6.2190157008 6.1501452836 6.0767621038 5.9992719463 0.064169606361 0 6.2134963469 6.1383094565 6.0578962336 
0.19043743361 0.13304002361 0.069688960264 6.2831853072 6.206940195 6.1241815303 0.3108719077 0.26153055843 0.20642320337 
0.14487585072 0.07624511221 6.2831853072 6.1990255847 0.42269159155 0.38179159818 0.3357925689 0.28391336087 0.22528907359 
0.15900377685 0.084159722458 0 5.6793730533 5.7091357773 5.5901633916 5.743164462 5.6152775188 5.4910209005 
5.7823484065 5.6444075337 5.5096229709 5.3824597928 5.8278025282 5.678536687 5.5314983644 5.3926039573 5.2659633393 
5.8809213739 5.718968232 5.5575666702 5.4046708639 5.2659633393 5.1440684722 5.9434319871 5.7674481418 5.5891129425 
5.4192596322 5.2659633393 5.1329233157 5.0201624502 6.0174235957 5.8263323547 5.6279784266 5.4372443565 5.2659633393 
5.1195510325 4.9978930058 4.8979782167 1.3852070904 1.2852923014 1.2630228569 1.1636342747 1.1502619915 1.139116835 
1.0172219679 1.0172219679 1.0172219679 1.0172219679 0.84594095064 0.86392567495 0.87851444325 0.89058134991 0.90072551443 
0.6552068806 0.69407236469 0.72561863695 0.75168694275 0.77356233629 0.79216440667 0.45685295248 0.51573716537 0.56421707518 
0.60464862014 0.63877777351 0.66790778838 0.69302191562 0.26576171152 0.33975332011 0.40226393329 0.45538277901 0.50083690068 
0.54002084522 0.57404952988 0.60381225391 
_paraPhiHalf 1 1002 double
0 3.1415926536 0 3.1415926536 1.5707963268 1.5707963268 1.5707963268 1.5707963268 2.5880182947 
0.5535743589 2.5880182947 0.5535743589 0 0 0 0 3.1415926536 3.1415926536 
3.1415926536 3.1415926536 3.1415926536 0.17788134 0.38438696014 0.60631181711 0.82323535693 1.0172219679 1.1799687454 
1.3118704726 1.4175000338 1.5022335207 0.17788134 0.38438696014 0.60631181711 0.82323535693 1.0172219679 1.1799687454 
1.3118704726 1.4175000338 1.5022335207 0.093902416448 0.17615329733 0.2478725152 0.31035131605 0.36486382811 0.41257334776 
0.45449736604 0.4915044461 0.52432611754 0.093902416448 0.17615329733 0.2478725152 0.31035131605 0.36486382811 0.41257334776 
0.45449736604 0.4915044461 0.52432611754 2.9637113136 2.7572056934 2.5352808365 2.3183572967 2.1243706857 1.9616239082 
1.829722181 1.7240926197 1.6393591329 2.9637113136 2.7572056934 2.5352808365 2.3183572967 2.1243706857 1.9616239082 
1.829722181 1.7240926197 1.6393591329 3.0476902371 2.9654393563 2.8937201384 2.8312413375 2.7767288255 2.7290193058 
2.6870952876 2.6500882075 2.617266536 3.0476902371 2.9654393563 2.8937201384 2.8312413375 2.7767288255 2.7290193058 
2.6870952876 2.6500882075 2.617266536 0 0 0 0 3.1415926536 3.1415926536 
3.1415926536 3.1415926536 3.1415926536 0.17788134 0.38438696014 0.60631181711 0.82323535693 1.0172219679 1.1799687454 
1.3118704726 1.4175000338 1.5022335207 0.17788134 0.38438696014 0.60631181711 0.82323535693 1.0172219679 1.1799687454 
1.3118704726 1.4175000338 1.5022335207 0.093902416448 0.17615329733 0.2478725152 0.31035131605 0.36486382811 0.41257334776 
0.45449736604 0.4915044461 0.52432611754 0.093902416448 0.17615329733 0.2478725152 0.31035131605 0.36486382811 0.41257334776 
0.45449736604 0.4915044461 0.52432611754 2.9637113136 2.7572056934 2.5352808365 2.3183572967 2.1243706857 1.9616239082 
1.829722181 1.7240926197 1.6393591329 2.9637113136 2.7572056934 2.5352808365 2.3183572967 2.1243706857 1.9616239082 
1.829722181 1.7240926197 1.6393591329 3.0476902371 2.9654393563 2.8937201384 2.8312413375 2.7767288255 2.7290193058 
2.6870952876 2.6500882075 2.617266536 3.0476902371 2.9654393563 2.8937201384 2.8312413375 2.7767288255 2.7290193058 
2.6870952876 2.6500882075 2.617266536 1.5707963268 1.5707963268 1.5707963268 1.5707963268 1.5707963268 1.5707963268 
1.5707963268 1.5707963268 1.5707963268 1.6743954455 1.7840462375 1.8974821136 2.0119052671 2.1243706857 2.232221744 
2.3334263672 2.426721652 2.5115728246 1.4671972081 1.3575464161 1.24411054 1.1296873865 1.0172219679 0.90937090954 
0.80816628637 0.71487100155 0.63001982895 1.6743954455 1.7840462375 1.8974821136 2.0119052671 2.1243706857 2.232221744 
2.3334263672 2.426721652 2.5115728246 1.4671972081 1.3575464161 1.24411054 1.1296873865 1.0172219679 0.90937090954 
0.80816628637 0.71487100155 0.63001982895 1.5707963268 1.5707963268 1.5707963268 1.5707963268 1.5707963268 1.5707963268 
1.5707963268 1.5707963268 1.5707963268 1.6743954455 1.7840462375 1.8974821136 2.0119052671 2.1243706857 2.232221744 
2.3334263672 2.426721652 2.5115728246 1.4671972081 1.3575464161 1.24411054 1.1296873865 1.0172219679 0.90937090954 
0.80816628637 0.71487100155 0.63001982895 1.6743954455 1.7840462375 1.8974821136 2.0119052671 2.1243706857 2.232221744 
2.3334263672 2.426721652 2.5115728246 1.4671972081 1.3575464161 1.24411054 1.1296873865 1.0172219679 0.90937090954 
0.80816628637 0.71487100155 0.63001982895 2.6824132222 2.7864913217 2.8992382033 3.0186096618 3.1415926536 3.0186096618 
2.8992382033 2.7864913217 2.6824132222 0.45917943135 0.35510133185 0.2423544503 0.12298299178 0 0.12298299178 
0.2423544503 0.35510133185 0.45917943135 0.22715816343 0.49462574053 0.3129712797 0.77059342779 0.68021497688 0.49462574053 
1.0172219679 1.0172219679 1.0172219679 1.0172219679 1.2156949949 1.271087727 1.3676273807 1.5707963268 2.1243706857 
1.3676273807 1.447813335 1.5707963268 1.7739652728 2.1243706857 2.6469669131 1.4827341049 1.5707963268 1.6937793186 
1.8705049266 2.1243706857 2.4613776767 2.8286213739 1.5707963268 1.6588585487 1.7739652728 1.9258976586 2.1243706857 
2.3709992258 2.6469669131 2.9144344902 0.26576171152 0.33975332011 0.45685295248 0.40226393329 0.51573716537 0.6552068806 
0.45538277901 0.56421707518 0.69407236469 0.84594095064 0.50083690068 0.60464862014 0.72561863695 0.86392567495 1.0172219679 
0.54002084522 0.63877777351 0.75168694275 0.87851444325 1.0172219679 1.1636342747 0.57404952988 0.66790778838 0.77356233629 
0.89058134991 1.0172219679 1.1502619915 1.2852923014 0.60381225391 0.69302191562 0.79216440667 0.90072551443 1.0172219679 
1.139116835 1.2630228569 1.3852070904 0.71487100155 0.80816628637 0.80816628637 0.90937090954 0.90937090954 0.90937090954 
1.0172219679 1.0172219679 1.0172219679 1.0172219679 1.1296873865 1.1296873865 1.1296873865 1.1296873865 1.1296873865 
1.24411054 1.24411054 1.24411054 1.24411054 1.24411054 1.24411054 1.3575464161 1.3575464161 1.3575464161 
1.3575464161 1.3575464161 1.3575464161 1.3575464161 1.4671972081 1.4671972081 1.4671972081 1.4671972081 1.4671972081 
1.4671972081 1.4671972081 1.4671972081 1.6743954455 1.6743954455 1.7840462375 1.6743954455 1.7840462375 1.8974821136 
1.6743954455 1.7840462375 1.8974821136 2.0119052671 1.6743954455 1.7840462375 1.8974821136 2.0119052671 2.1243706857 
1.6743954455 1.7840462375 1.8974821136 2.0119052671 2.1243706857 2.232221744 1.6743954455 1.7840462375 1.8974821136 
2.0119052671 2.1243706857 2.232221744 2.3334263672 1.6743954455 1.7840462375 1.8974821136 2.0119052671 2.1243706857 
2.232221744 2.3334263672 2.426721652 1.7563855631 1.8785697967 1.8563003522 2.0024758186 1.9913306621 1.9779583789 
2.1243706857 2.1243706857 2.1243706857 2.1243706857 2.2408671392 2.2510113037 2.2630782103 2.2776669786 2.295651703 
2.3494282469 2.3680303173 2.3899057108 2.4159740166 2.4475202889 2.486385773 2.448570738 2.4736848652 2.5028148801 
2.5369440334 2.5773755784 2.6258554882 2.6847397011 2.5377803997 2.5675431237 2.6015718084 2.6407557529 2.6862098746 
2.7393287203 2.8018393335 2.8758309421 2.718901062 2.8307207459 2.7598010554 2.95115522 2.8800620952 2.8058000847 
3.0774230472 3.00855263 2.9351694502 2.8576792927 3.0774230472 3.1415926536 3.0719036933 2.9967168029 2.91630358 
2.95115522 3.00855263 3.0719036933 3.1415926536 3.0653475414 2.9825888767 2.8307207459 2.8800620952 2.9351694502 
2.9967168029 3.0653475414 3.1415926536 3.0574329311 2.718901062 2.7598010554 2.8058000847 2.8576792927 2.91630358 
2.9825888767 3.0574329311 3.1415926536 2.718901062 2.7598010554 2.8307207459 2.8058000847 2.8800620952 2.95115522 
2.8576792927 2.9351694502 3.00855263 3.0774230472 2.91630358 2.9967168029 3.0719036933 3.1415926536 3.0774230472 
2.9825888767 3.0653475414 3.1415926536 3.0719036933 3.00855263 2.95115522 3.0574329311 3.1415926536 3.0653475414 