# vtk DataFile Version 5.1
vtk output
ASCII
DATASET POLYDATA
POINTS 1002 float
-5.96414 -0.244001 -2.79723 5.75867 0.0116371 -3.95556 -5.56752 0.0280962 4.05428 
5.67595 -0.0138114 4.2393 0.17609 6.23755 -3.13497 -0.848139 5.34919 2.54567 
-0.18729 -5.93949 -2.29479 -0.732382 -6.62993 3.38296 9.46849 4.22173 -0.625278 
-9.77663 4.77285 -0.0374236 10.7541 -4.04958 -1.19415 -9.11709 -4.38421 -1.22106 
-5.09608 -0.151883 -2.62247 -4.04497 -0.0873502 -2.66616 -2.84492 -0.0369556 -2.9837 
-1.56756 0.0748081 -3.43327 -0.260828 0.23671 -3.84491 1.08082 0.302041 -4.16406 
2.43745 0.212491 -4.33882 3.71303 0.0854652 -4.30455 4.82104 0.022128 -4.12604 
-5.59773 0.346145 -2.62847 -5.0784 1.00758 -2.5424 -4.44086 1.73441 -2.68089 
-3.80594 2.4753 -3.01073 -3.22677 3.16928 -3.28695 -2.59934 3.80369 -3.37059 
-1.84485 4.42137 -3.37746 -1.053 5.06128 -3.39706 -0.361981 5.69475 -3.34571 
-5.71344 -0.777981 -2.79192 -5.34608 -1.36543 -2.72952 -4.91124 -1.96411 -2.62715 
-4.4096 -2.55648 -2.51103 -3.80747 -3.17279 -2.37039 -3.10397 -3.78612 -2.17938 
-2.32366 -4.33537 -2.0182 -1.51464 -4.86055 -2.02349 -0.773217 -5.4174 -2.17548 
-6.51566 0.0380332 -2.91043 -6.99744 0.433005 -2.94821 -7.47991 1.00236 -2.93639 
-8.01153 1.67811 -3.00071 -8.55743 2.29641 -3.10888 -9.09065 2.82214 -2.966 
-9.58468 3.36612 -2.37594 -9.91303 3.94436 -1.51113 -9.96105 4.4395 -0.680798 
-6.64014 -0.675628 -3.06512 -7.31389 -1.16252 -3.30671 -7.96148 -1.70367 -3.50159 
-8.62901 -2.31782 -3.78682 -9.37786 -3.03516 -4.15095 -10.0569 -3.78632 -4.20074 
-10.3389 -4.35405 -3.64162 -10.114 -4.57417 -2.72368 -9.61311 -4.51765 -1.87091 
5.39585 0.524229 -4.03525 4.83662 1.04968 -4.16513 4.17713 1.66351 -4.31081 
3.59321 2.41546 -4.41418 3.1267 3.23545 -4.42718 2.64937 4.03072 -4.3263 
2.06847 4.77523 -4.12566 1.42127 5.42541 -3.85548 0.779219 5.91253 -3.52432 
5.43041 -0.5462 -3.98034 4.96138 -1.14796 -3.98385 4.34015 -1.70893 -3.92747 
3.58179 -2.22883 -3.76744 2.76612 -2.82403 -3.438 1.99448 -3.53485 -2.90933 
1.29975 -4.23432 -2.32867 0.682079 -4.83216 -1.9788 0.177718 -5.38171 -2.00699 
6.47568 0.340964 -3.88884 7.20793 0.692444 -3.90005 7.90999 1.09547 -3.93032 
8.54241 1.59362 -3.8229 9.07464 2.16652 -3.49842 9.4666 2.72529 -3.04016 
9.68422 3.20467 -2.52745 9.72713 3.6018 -1.94287 9.63332 3.93648 -1.28601 
6.47842 -0.340417 -3.87183 7.30862 -0.76412 -3.81961 8.29167 -1.23764 -3.72762 
9.2401 -1.7329 -3.56305 9.94742 -2.26905 -3.38113 10.5109 -2.883 -3.20755 
11.0591 -3.50849 -2.9329 11.3918 -3.965 -2.45528 11.2688 -4.12881 -1.83089 
-4.76538 -0.0419658 4.36909 -3.80216 -0.110962 4.53559 -2.68693 -0.160136 4.5587 
-1.48065 -0.233134 4.59167 -0.259659 -0.383626 4.73999 0.944537 -0.528955 4.88833 
2.14926 -0.524069 4.85668 3.36298 -0.369916 4.6436 4.55417 -0.178336 4.39851 
-5.40367 0.605045 4.11126 -5.16142 1.23666 4.12902 -4.84663 1.90602 4.07668 
-4.45584 2.61164 3.97308 -3.91657 3.3512 3.87653 -3.20555 4.05011 3.78375 
-2.4814 4.57823 3.60349 -1.8979 4.89809 3.28412 -1.39989 5.11474 2.89436 
-5.2123 -0.574136 4.1936 -4.77695 -1.19384 4.25393 -4.25364 -1.81873 4.17718 
-3.67978 -2.50974 4.00811 -3.12642 -3.31994 3.92218 -2.60739 -4.12833 4.02192 
-2.08586 -4.77655 4.14614 -1.57445 -5.33223 4.06416 -1.1216 -5.95494 3.7598 
-6.2226 0.455377 3.69785 -6.87251 0.948603 3.3227 -7.53781 1.50744 3.06737 
-8.26991 2.1115 2.97205 -8.98548 2.73551 2.81399 -9.46971 3.33429 2.33489 
-9.67648 3.83596 1.62604 -9.77049 4.21428 0.975749 -9.83006 4.51469 0.461284 
-6.11506 -0.298181 3.77874 -6.731 -0.697086 3.5568 -7.43075 -1.17303 3.45371 
-8.12072 -1.68181 3.32264 -8.64257 -2.14986 2.86903 -8.90183 -2.5443 1.99041 
-8.94302 -2.92067 0.932587 -8.92097 -3.36532 0.00789288 -8.97603 -3.88386 -0.685334 
5.3896 0.441705 3.97903 5.05702 0.956379 3.91417 4.65071 1.5643 4.02332 
4.09765 2.19883 4.01428 3.35001 2.75424 3.68776 2.48429 3.27742 3.29799 
1.63723 3.87317 3.15986 0.833011 4.4725 3.1462 0.00405116 4.9544 2.95488 
5.23015 -0.588451 4.65321 4.6791 -1.27577 5.08593 3.99208 -2.09111 5.43132 
3.18361 -2.96147 5.63478 2.34579 -3.79196 5.68271 1.56448 -4.57732 5.51836 
0.85017 -5.32509 5.10392 0.20863 -5.94799 4.53207 -0.321508 -6.3694 3.94007 
6.63352 0.444245 3.9755 7.67658 0.98611 3.79166 8.73806 1.57399 3.60259 
9.61482 2.08779 3.20769 10.0721 2.44533 2.53615 10.1108 2.73177 1.78969 
9.97438 3.09694 1.15634 9.83903 3.54866 0.585695 9.6891 3.95848 -0.0182176 
6.53832 -0.222174 4.38282 7.40384 -0.473809 4.39741 8.16723 -0.735696 4.02924 
8.81502 -1.01538 3.23976 9.39267 -1.37417 2.27303 9.86206 -1.82889 1.38098 
10.1779 -2.34058 0.622173 10.4177 -2.90177 -0.0431506 10.6379 -3.50057 -0.645071 
0.0779954 6.66695 -2.60768 -0.0560882 7.0383 -1.96361 -0.180419 7.35452 -1.33088 
-0.273718 7.58507 -0.731499 -0.392835 7.61975 -0.0855415 -0.606413 7.36269 0.574243 
-0.858117 6.8683 1.12503 -1.00198 6.30096 1.58306 -0.976242 5.78532 2.05462 
1.00274 6.4708 -3.0112 1.80181 6.41704 -2.63314 2.62205 6.01237 -2.04171 
3.60989 5.50206 -1.50348 4.80169 5.21972 -1.23484 6.02293 5.21341 -1.17889 
7.10476 5.25507 -1.16175 8.02679 5.12023 -1.07886 8.81291 4.74695 -0.895982 
-0.749221 6.19783 -2.87733 -1.76799 6.2169 -2.60798 -2.8858 6.32623 -2.31549 
-4.09581 6.4198 -1.93681 -5.27516 6.45941 -1.53998 -6.30238 6.50614 -1.27906 
-7.25317 6.45005 -1.10108 -8.23236 6.08541 -0.81305 -9.13602 5.44948 -0.405434 
0.426678 5.47053 2.54616 1.87248 5.72126 2.52766 3.21054 5.8785 2.39933 
4.38786 5.85621 2.11609 5.62129 5.89591 1.72836 6.89232 6.10568 1.3184 
7.87031 6.12454 0.889246 8.47165 5.66258 0.398093 8.94619 4.91519 -0.132866 
-2.0347 5.70751 2.26979 -3.0766 6.3475 2.16261 -3.97709 7.06533 2.37449 
-4.93835 7.4448 2.6584 -6.02133 7.30233 2.52043 -6.99732 6.87966 1.86664 
-7.75007 6.43545 1.1238 -8.43586 5.96744 0.621482 -9.14558 5.40541 0.293444 
-0.098248 -6.60398 -2.47025 -0.116271 -7.2634 -2.37027 -0.265945 -7.7598 -1.86587 
-0.482282 -7.99196 -1.08249 -0.645769 -8.03311 -0.259583 -0.696622 -8.01264 0.523351 
-0.686198 -7.9122 1.30881 -0.689072 -7.6292 2.07912 -0.715407 -7.16579 2.77718 
0.54465 -5.96366 -2.05036 1.45163 -5.80375 -1.6733 2.52869 -5.63326 -1.30772 
3.6078 -5.69326 -1.14379 4.66883 -5.93508 -1.22824 5.94897 -6.02184 -1.4198 
7.48635 -5.76574 -1.54848 8.94233 -5.26905 -1.54008 10.0287 -4.67606 -1.40612 
-0.813149 -6.1627 -2.59971 -1.61037 -6.24067 -2.75942 -2.74623 -6.21424 -2.6753 
-4.08542 -6.2187 -2.50338 -5.29192 -6.25012 -2.42309 -6.31663 -6.1493 -2.32111 
-7.32967 -5.86034 -2.03805 -8.24422 -5.45487 -1.68605 -8.8357 -4.96439 -1.42528 
-0.0854416 -7.10533 3.3573 0.746833 -7.27527 3.26552 1.8502 -6.94045 2.94606 
3.1871 -6.30074 2.34544 4.60602 -5.74774 1.62538 5.96857 -5.35734 0.970371 
7.24085 -4.97014 0.399175 8.46733 -4.58346 -0.150685 9.66436 -4.2858 -0.693739 
-1.35737 -6.42688 3.05363 -2.0906 -6.27055 2.67574 -2.95079 -6.14583 2.15824 
-3.89786 -5.95016 1.50311 -4.91154 -5.72994 0.924086 -5.98837 -5.59701 0.552104 
-7.02512 -5.44404 0.217821 -7.87929 -5.12064 -0.237955 -8.54296 -4.71189 -0.751668 
10.2375 3.53128 -0.665263 11.0932 2.91961 -0.595984 11.9325 2.26871 -0.524451 
12.6882 1.38484 -0.628901 13.3069 0.296654 -0.914931 13.6031 -0.78563 -1.18356 
13.3755 -1.77448 -1.31159 12.675 -2.67804 -1.33875 11.7399 -3.44597 -1.30216 
-10.2959 3.96683 -0.139924 -10.5504 3.14036 -0.375905 -10.7006 2.23183 -0.583315 
-11.036 1.16923 -0.515327 -11.4739 0.00622346 -0.24354 -11.5226 -1.13559 -0.206281 
-10.9902 -2.17823 -0.594374 -10.234 -3.07043 -1.07216 -9.60502 -3.79281 -1.2824 
-4.65735 0.474149 -2.56028 -4.04606 1.16884 -2.66739 -3.46062 0.582074 -2.71975 
-3.34163 1.88781 -2.99285 -2.7028 1.31408 -2.94207 -2.04224 0.69228 -3.1013 
-2.69236 2.56793 -3.32988 -1.94177 2.02752 -3.311 -1.14669 1.46542 -3.37578 
-0.599917 0.843806 -3.61506 -2.08445 3.20481 -3.45662 -1.30147 2.69085 -3.61308 
-0.401354 2.19641 -3.79359 0.280779 1.60199 -3.98809 0.687616 0.944189 -4.14568 
-1.36568 3.86074 -3.4769 -0.653908 3.3626 -3.75979 0.196957 2.8934 -4.15371 
0.914798 2.3041 -4.45459 1.40885 1.5863 -4.5667 1.87862 0.872843 -4.50432 
-0.540146 4.57609 -3.57181 0.115068 4.08577 -3.8777 0.847638 3.58711 -4.33054 
1.47557 2.96946 -4.71949 1.95378 2.18731 -4.85488 2.46506 1.39029 -4.7503 
3.1016 0.699821 -4.52587 0.214407 5.29806 -3.6504 0.8651 4.80853 -3.96577 
1.53506 4.23622 -4.32871 2.09904 3.56344 -4.64969 2.53147 2.75669 -4.7859 
3.00461 1.90749 -4.71012 3.64253 1.17383 -4.50886 4.3143 0.573017 -4.28913 
-6.07658 0.697528 -2.64819 -6.52924 1.21144 -2.58319 -5.49871 1.44808 -2.4501 
-7.08739 1.90838 -2.53291 -6.00389 2.04447 -2.24381 -4.87412 2.26009 -2.51431 
-7.72827 2.61973 -2.66781 -6.71263 2.70927 -2.12419 -5.48249 2.85407 -2.22631 
-4.28171 3.06875 -2.8424 -8.2877 3.20977 -2.85097 -7.41089 3.29843 -2.269 
-6.24186 3.38649 -2.06387 -4.8775 3.64718 -2.59373 -3.65468 3.82077 -3.17988 
-8.71812 3.79221 -2.67485 -7.83441 3.91811 -2.42191 -6.8023 3.93287 -2.10319 
-5.46808 4.16535 -2.39233 -4.07837 4.44861 -3.01482 -2.90333 4.49093 -3.32644 
-9.04245 4.45974 -2.01251 -8.04448 4.73089 -2.17994 -7.02759 4.74757 -2.05312 
-5.8437 4.83527 -2.17279 -4.47774 5.07137 -2.69847 -3.19415 5.17022 -3.14524 
-2.09482 5.0931 -3.29201 -9.19385 5.06532 -1.15439 -8.17995 5.55313 -1.54557 
-7.1357 5.72536 -1.68859 -6.07343 5.72725 -1.80024 -4.86414 5.78763 -2.1714 
-3.58348 5.82885 -2.64977 -2.41281 5.74288 -2.95463 -1.35999 5.66388 -3.13489 
-8.38617 6.13645 -0.0497163 -7.62949 6.6274 0.396143 -7.4789 6.70643 -0.372505 
-6.88626 6.97623 1.09562 -6.76053 6.99772 0.214144 -6.58045 6.91853 -0.609854 
-5.99091 7.39878 1.91151 -5.93924 7.19872 0.990928 -5.88147 7.04369 -0.00715549 
-5.65787 6.88045 -0.849101 -4.96324 7.80554 2.33827 -4.90931 7.61694 1.64494 
-4.92331 7.24476 0.625885 -4.86486 7.03352 -0.366714 -4.55211 6.8302 -1.19237 
-4.06178 7.72367 2.15161 -3.92856 7.93464 1.76412 -3.79289 7.70025 0.99135 
-3.75757 7.37048 0.0337187 -3.627 7.11267 -0.818006 -3.28504 6.78855 -1.58537 
-3.25906 7.04523 1.79346 -3.14273 7.62748 1.4818 -2.826 7.87896 0.974923 
[...]
POINT_DATA 1002
FIELD FieldData 4
_paraPhi 1 1002 double
6.2831853072 3.1415926536 6.2831853072 3.1415926536 4.7123889804 4.7123889804 1.5707963268 1.5707963268 3.6951670125 
5.7296109483 2.5880182947 0.5535743589 6.2831853072 6.2831853072 6.2831853072 6.2831853072 3.1415926536 3.1415926536 
3.1415926536 3.1415926536 3.1415926536 6.1053039672 5.898798347 5.6768734901 5.4599499503 5.2659633393 5.1032165617 
4.9713148346 4.8656852733 4.7809517865 0.17788134 0.38438696014 0.60631181711 0.82323535693 1.0172219679 1.1799687454 
1.3118704726 1.4175000338 1.5022335207 6.1892828907 6.1070320098 6.035312792 5.9728339911 5.9183214791 5.8706119594 
5.8286879411 5.7916808611 5.7588591896 0.093902416448 0.17615329733 0.2478725152 0.31035131605 0.36486382811 0.41257334776 
0.45449736604 0.4915044461 0.52432611754 3.3194739936 3.5259796137 3.7479044707 3.9648280105 4.1588146215 4.321561399 
4.4534631262 4.5590926874 4.6438261743 2.9637113136 2.7572056934 2.5352808365 2.3183572967 2.1243706857 1.9616239082 
1.829722181 1.7240926197 1.6393591329 3.23549507 3.3177459509 3.3894651688 3.4519439696 3.5064564817 3.5541660013 
3.5960900196 3.6330970997 3.6659187711 3.0476902371 2.9654393563 2.8937201384 2.8312413375 2.7767288255 2.7290193058 
2.6870952876 2.6500882075 2.617266536 6.2831853072 6.2831853072 6.2831853072 6.2831853072 3.1415926536 3.1415926536 
3.1415926536 3.1415926536 3.1415926536 6.1053039672 5.898798347 5.6768734901 5.4599499503 5.2659633393 5.1032165617 
4.9713148346 4.8656852733 4.7809517865 0.17788134 0.38438696014 0.60631181711 0.82323535693 1.0172219679 1.1799687454 
1.3118704726 1.4175000338 1.5022335207 6.1892828907 6.1070320098 6.035312792 5.9728339911 5.9183214791 5.8706119594 
5.8286879411 5.7916808611 5.7588591896 0.093902416448 0.17615329733 0.2478725152 0.31035131605 0.36486382811 0.41257334776 
0.45449736604 0.4915044461 0.52432611754 3.3194739936 3.5259796137 3.7479044707 3.9648280105 4.1588146215 4.321561399 
4.4534631262 4.5590926874 4.6438261743 2.9637113136 2.7572056934 2.5352808365 2.3183572967 2.1243706857 1.9616239082 
1.829722181 1.7240926197 1.6393591329 3.23549507 3.3177459509 3.3894651688 3.4519439696 3.5064564817 3.5541660013 
3.5960900196 3.6330970997 3.6659187711 3.0476902371 2.9654393563 2.8937201384 2.8312413375 2.7767288255 2.7290193058 
2.6870952876 2.6500882075 2.617266536 4.7123889804 4.7123889804 4.7123889804 4.7123889804 4.7123889804 4.7123889804 
4.7123889804 4.7123889804 4.7123889804 4.6087898617 4.4991390697 4.3857031936 4.2712800401 4.1588146215 4.0509635631 
3.94975894 3.8564636551 3.7716124825 4.8159880991 4.9256388911 5.0390747672 5.1534979207 5.2659633393 5.3738143976 
5.4750190208 5.5683143056 5.6531654782 4.6087898617 4.4991390697 4.3857031936 4.2712800401 4.1588146215 4.0509635631 
3.94975894 3.8564636551 3.7716124825 4.8159880991 4.9256388911 5.0390747672 5.1534979207 5.2659633393 5.3738143976 
5.4750190208 5.5683143056 5.6531654782 1.5707963268 1.5707963268 1.5707963268 1.5707963268 1.5707963268 1.5707963268 
1.5707963268 1.5707963268 1.5707963268 1.6743954455 1.7840462375 1.8974821136 2.0119052671 2.1243706857 2.232221744 
2.3334263672 2.426721652 2.5115728246 1.4671972081 1.3575464161 1.24411054 1.1296873865 1.0172219679 0.90937090954 
0.80816628637 0.71487100155 0.63001982895 1.6743954455 1.7840462375 1.8974821136 2.0119052671 2.1243706857 2.232221744 
2.3334263672 2.426721652 2.5115728246 1.4671972081 1.3575464161 1.24411054 1.1296873865 1.0172219679 0.90937090954 
0.80816628637 0.71487100155 0.63001982895 3.6007720849 3.4966939854 3.3839471039 3.2645756454 3.1415926536 3.0186096618 
2.8992382033 2.7864913217 2.6824132222 5.8240058758 5.9280839753 6.0408308569 6.1602023154 6.2831853072 0.12298299178 
0.2423544503 0.35510133185 0.45917943135 6.0560271438 5.7885595667 5.9702140275 5.5125918794 5.6029703303 5.7885595667 
5.2659633393 5.2659633393 5.2659633393 5.2659633393 5.0674903122 5.0120975802 4.9155579264 4.7123889804 4.1588146215 
4.9155579264 4.8353719722 4.7123889804 4.5092200343 4.1588146215 3.6362183941 4.8004512023 4.7123889804 4.5894059886 
4.4126803806 4.1588146215 3.8218076305 3.4545639333 4.7123889804 4.6243267584 4.5092200343 4.3572876485 4.1588146215 
3.9121860814 3.6362183941 3.368750817 6.0174235957 5.9434319871 5.8263323547 5.8809213739 5.7674481418 5.6279784266 
5.8278025282 5.718968232 5.5891129425 5.4372443565 5.7823484065 5.678536687 5.5575666702 5.4192596322 5.2659633393 
5.743164462 5.6444075337 5.5314983644 5.4046708639 5.2659633393 5.1195510325 5.7091357773 5.6152775188 5.5096229709 
5.3926039573 5.2659633393 5.1329233157 4.9978930058 5.6793730533 5.5901633916 5.4910209005 5.3824597928 5.2659633393 
5.1440684722 5.0201624502 4.8979782167 5.5683143056 5.4750190208 5.4750190208 5.3738143976 5.3738143976 5.3738143976 
5.2659633393 5.2659633393 5.2659633393 5.2659633393 5.1534979207 5.1534979207 5.1534979207 5.1534979207 5.1534979207 
5.0390747672 5.0390747672 5.0390747672 5.0390747672 5.0390747672 5.0390747672 4.9256388911 4.9256388911 4.9256388911 
4.9256388911 4.9256388911 4.9256388911 4.9256388911 4.8159880991 4.8159880991 4.8159880991 4.8159880991 4.8159880991 
4.8159880991 4.8159880991 4.8159880991 4.6087898617 4.6087898617 4.4991390697 4.6087898617 4.4991390697 4.3857031936 
4.6087898617 4.4991390697 4.3857031936 4.2712800401 4.6087898617 4.4991390697 4.3857031936 4.2712800401 4.1588146215 
4.6087898617 4.4991390697 4.3857031936 4.2712800401 4.1588146215 4.0509635631 4.6087898617 4.4991390697 4.3857031936 
4.2712800401 4.1588146215 4.0509635631 3.94975894 4.6087898617 4.4991390697 4.3857031936 4.2712800401 4.1588146215 
4.0509635631 3.94975894 3.8564636551 4.526799744 4.4046155105 4.426884955 4.2807094886 4.2918546451 4.3052269283 
4.1588146215 4.1588146215 4.1588146215 4.1588146215 4.042318168 4.0321740035 4.0201070968 4.0055183285 3.9875336042 
3.9337570603 3.9151549899 3.8932795963 3.8672112905 3.8356650183 3.7967995342 3.8346145692 3.809500442 3.7803704271 
3.7462412737 3.7058097288 3.657329819 3.5984456061 3.7454049075 3.7156421835 3.6816134988 3.6424295543 3.5969754326 
3.5438565869 3.4813459737 3.4073543651 3.5642842451 3.4524645613 3.5233842518 3.3320300872 3.403123212 3.4773852225 
3.20576226 3.2746326772 3.348015857 3.4255060145 3.0774230472 3.1415926536 3.2112816139 3.2864685043 3.3668817272 
2.95115522 3.00855263 3.0719036933 3.1415926536 3.2178377658 3.3005964304 2.8307207459 2.8800620952 2.9351694502 
2.9967168029 3.0653475414 3.1415926536 3.225752376 2.718901062 2.7598010554 2.8058000847 2.8576792927 2.91630358 
2.9825888767 3.0574329311 3.1415926536 3.5642842451 3.5233842518 3.4524645613 3.4773852225 3.403123212 3.3320300872 
3.4255060145 3.348015857 3.2746326772 3.20576226 3.3668817272 3.2864685043 3.2112816139 3.1415926536 3.0774230472 
3.3005964304 3.2178377658 3.1415926536 3.0719036933 3.00855263 2.95115522 3.225752376 3.1415926536 3.0653475414 
2.9967168029 2.9351694502 2.8800620952 2.8307207459 3.1415926536 3.0574329311 2.9825888767 2.91630358 2.8576792927 
2.8058000847 2.7598010554 2.718901062 4.526799744 4.426884955 4.4046155105 4.3052269283 4.2918546451 4.2807094886 
4.1588146215 4.1588146215 4.1588146215 4.1588146215 3.9875336042 4.0055183285 4.0201070968 4.0321740035 4.042318168 
3.7967995342 3.8356650183 3.8672112905 3.8932795963 3.9151549899 3.9337570603 3.5984456061 3.657329819 3.7058097288 
3.7462412737 3.7803704271 3.809500442 3.8346145692 3.4073543651 3.4813459737 3.5438565869 3.5969754326 3.6424295543 
3.6816134988 3.7156421835 3.7454049075 4.7123889804 4.8004512023 4.6243267584 4.9155579264 4.7123889804 4.5092200343 
5.0674903122 4.8353719722 4.5894059886 4.3572876485 5.2659633393 5.0120975802 4.7123889804 4.4126803806 4.1588146215 
5.5125918794 5.2659633393 4.9155579264 4.5092200343 4.1588146215 3.9121860814 5.7885595667 5.6029703303 5.2659633393 
4.7123889804 4.1588146215 3.8218076305 3.6362183941 6.0560271438 5.9702140275 5.7885595667 5.2659633393 4.1588146215 
3.6362183941 3.4545639333 3.368750817 0.22715816343 0.49462574053 0.3129712797 0.77059342779 0.68021497688 0.49462574053 
1.0172219679 1.0172219679 1.0172219679 1.0172219679 1.2156949949 1.271087727 1.3676273807 1.5707963268 2.1243706857 
1.3676273807 1.447813335 1.5707963268 1.7739652728 2.1243706857 2.6469669131 1.4827341049 1.5707963268 1.6937793186 
1.8705049266 2.1243706857 2.4613776767 2.8286213739 1.5707963268 1.6588585487 1.7739652728 1.9258976586 2.1243706857 
2.3709992258 2.6469669131 2.9144344902 1.7563855631 1.8785697967 1.8563003522 2.0024758186 1.9913306621 1.9779583789 
2.1243706857 2.1243706857 2.1243706857 2.1243706857 2.2408671392 2.2510113037 2.2630782103 2.2776669786 2.295651703 
2.3494282469 2.3680303173 2.3899057108 2.4159740166 2.4475202889 2.486385773 2.448570738 2.4736848652 2.5028148801 
2.5369440334 2.5773755784 2.6258554882 2.6847397011 2.5377803997 2.5675431237 2.6015718084 2.6407557529 2.6862098746 
2.7393287203 2.8018393335 2.8758309421 1.6743954455 1.6743954455 1.7840462375 1.6743954455 1.7840462375 1.8974821136 
1.6743954455 1.7840462375 1.8974821136 2.0119052671 1.6743954455 1.7840462375 1.8974821136 2.0119052671 2.1243706857 
1.6743954455 1.7840462375 1.8974821136 2.0119052671 2.1243706857 2.232221744 1.6743954455 1.7840462375 1.8974821136 
2.0119052671 2.1243706857 2.232221744 2.3334263672 1.6743954455 1.7840462375 1.8974821136 2.0119052671 2.1243706857 
2.232221744 2.3334263672 2.426721652 1.4671972081 1.3575464161 1.4671972081 1.24411054 1.3575464161 1.4671972081 
1.1296873865 1.24411054 1.3575464161 1.4671972081 1.0172219679 1.1296873865 1.24411054 1.3575464161 1.4671972081 
0.90937090954 1.0172219679 1.1296873865 1.24411054 1.3575464161 1.4671972081 0.80816628637 0.90937090954 1.0172219679 
1.1296873865 1.24411054 1.3575464161 1.4671972081 0.71487100155 0.80816628637 0.90937090954 1.0172219679 1.1296873865 
1.24411054 1.3575464161 1.4671972081 0.60381225391 0.57404952988 0.69302191562 0.54002084522 0.66790778838 0.79216440667 
0.50083690068 0.63877777351 0.77356233629 0.90072551443 0.45538277901 0.60464862014 0.75168694275 0.89058134991 1.0172219679 
0.40226393329 0.56421707518 0.72561863695 0.87851444325 1.0172219679 1.139116835 0.33975332011 0.51573716537 0.69407236469 
0.86392567495 1.0172219679 1.1502619915 1.2630228569 0.26576171152 0.45685295248 0.6552068806 0.84594095064 1.0172219679 
1.1636342747 1.2852923014 1.3852070904 0.22715816343 0.3129712797 0.49462574053 0.49462574053 0.68021497688 0.77059342779 
1.0172219679 1.0172219679 1.0172219679 1.0172219679 2.1243706857 1.5707963268 1.3676273807 1.271087727 1.2156949949 
2.6469669131 2.1243706857 1.7739652728 1.5707963268 1.447813335 1.3676273807 2.8286213739 2.4613776767 2.1243706857 
1.8705049266 1.6937793186 1.5707963268 1.4827341049 2.9144344902 2.6469669131 2.3709992258 2.1243706857 1.9258976586 
1.7739652728 1.6588585487 1.5707963268 1.7563855631 1.8563003522 1.8785697967 1.9779583789 1.9913306621 2.0024758186 
2.1243706857 2.1243706857 2.1243706857 2.1243706857 2.295651703 2.2776669786 2.2630782103 2.2510113037 2.2408671392 
2.486385773 2.4475202889 2.4159740166 2.3899057108 2.3680303173 2.3494282469 2.6847397011 2.6258554882 2.5773755784 
2.5369440334 2.5028148801 2.4736848652 2.448570738 2.8758309421 2.8018393335 2.7393287203 2.6862098746 2.6407557529 
2.6015718084 2.5675431237 2.5377803997 5.8604937156 5.901393709 5.9723133995 5.9473927383 6.0216547488 6.0927478736 
5.9992719463 6.0767621038 6.1501452836 6.2190157008 6.0578962336 6.1383094565 6.2134963469 0 0.064169606361 
6.1241815303 6.206940195 6.2831853072 0.069688960264 0.13304002361 0.19043743361 6.1990255847 0 0.07624511221 
0.14487585072 0.20642320337 0.26153055843 0.3108719077 0 0.084159722458 0.15900377685 0.22528907359 0.28391336087 
0.3357925689 0.38179159818 0.42269159155 5.8604937156 5.9723133995 5.901393709 6.0927478736 6.0216547488 5.9473927383 
6.2190157008 6.1501452836 6.0767621038 5.9992719463 0.064169606361 0 6.2134963469 6.1383094565 6.0578962336 
0.19043743361 0.13304002361 0.069688960264 6.2831853072 6.206940195 6.1241815303 0.3108719077 0.26153055843 0.20642320337 
0.14487585072 0.07624511221 6.2831853072 6.1990255847 0.42269159155 0.38179159818 0.3357925689 0.28391336087 0.22528907359 
0.15900377685 0.084159722458 0 5.6793730533 5.7091357773 5.5901633916 5.743164462 5.6152775188 5.4910209005 
5.7823484065 5.6444075337 5.5096229709 5.3824597928 5.8278025282 5.678536687 5.5314983644 5.3926039573 5.2659633393 
5.8809213739 5.718968232 5.5575666702 5.4046708639 5.2659633393 5.1440684722 5.9434319871 5.7674481418 5.5891129425 
5.4192596322 5.2659633393 5.1329233157 5.0201624502 6.0174235957 5.8263323547 5.6279784266 5.4372443565 5.2659633393 
5.1195510325 4.9978930058 4.8979782167 1.3852070904 1.2852923014 1.2630228569 1.1636342747 1.1502619915 1.139116835 
1.0172219679 1.0172219679 1.0172219679 1.0172219679 0.84594095064 0.86392567495 0.87851444325 0.89058134991 0.90072551443 
0.6552068806 0.69407236469 0.72561863695 0.75168694275 0.77356233629 0.79216440667 0.45685295248 0.51573716537 0.56421707518 
0.60464862014 0.63877777351 0.66790778838 0.69302191562 0.26576171152 0.33975332011 0.40226393329 0.45538277901 0.50083690068 
0.54002084522 0.57404952988 0.60381225391 
_paraPhiHalf 1 1002 double
0 3.1415926536 0 3.1415926536 1.5707963268 1.5707963268 1.5707963268 1.5707963268 2.5880182947 
0.5535743589 2.5880182947 0.5535743589 0 0 0 0 3.1415926536 3.1415926536 
3.1415926536 3.1415926536 3.1415926536 0.17788134 0.38438696014 0.60631181711 0.82323535693 1.0172219679 1.1799687454 
1.3118704726 1.4175000338 1.5022335207 0.17788134 0.38438696014 0.60631181711 0.82323535693 1.0172219679 1.1799687454 
1.3118704726 1.4175000338 1.5022335207 0.093902416448 0.17615329733 0.2478725152 0.31035131605 0.36486382811 0.41257334776 
0.45449736604 0.4915044461 0.52432611754 0.093902416448 0.17615329733 0.2478725152 0.31035131605 0.36486382811 0.41257334776 
0.45449736604 0.4915044461 0.52432611754 2.9637113136 2.7572056934 2.5352808365 2.3183572967 2.1243706857 1.9616239082 
1.829722181 1.7240926197 1.6393591329 2.9637113136 2.7572056934 2.5352808365 2.3183572967 2.1243706857 1.9616239082 
1.829722181 1.7240926197 1.6393591329 3.0476902371 2.9654393563 2.8937201384 2.8312413375 2.7767288255 2.7290193058 
2.6870952876 2.6500882075 2.617266536 3.0476902371 2.9654393563 2.8937201384 2.8312413375 2.7767288255 2.7290193058 
2.6870952876 2.6500882075 2.617266536 0 0 0 0 3.1415926536 3.1415926536 
3.1415926536 3.1415926536 3.1415926536 0.17788134 0.38438696014 0.60631181711 0.82323535693 1.0172219679 1.1799687454 
1.3118704726 1.4175000338 1.5022335207 0.17788134 0.38438696014 0.60631181711 0.82323535693 1.0172219679 1.1799687454 
1.3118704726 1.4175000338 1.5022335207 0.093902416448 0.17615329733 0.2478725152 0.31035131605 0.36486382811 0.41257334776 
0.45449736604 0.4915044461 0.52432611754 0.093902416448 0.17615329733 0.2478725152 0.31035131605 0.36486382811 0.41257334776 
0.45449736604 0.4915044461 0.52432611754 2.9637113136 2.7572056934 2.5352808365 2.3183572967 2.1243706857 1.9616239082 
1.829722181 1.7240926197 1.6393591329 2.9637113136 2.7572056934 2.5352808365 2.3183572967 2.1243706857 1.9616239082 
1.829722181 1.7240926197 1.6393591329 3.0476902371 2.9654393563 2.8937201384 2.8312413375 2.7767288255 2.7290193058 
2.6870952876 2.6500882075 2.617266536 3.0476902371 2.9654393563 2.8937201384 2.8312413375 2.7767288255 2.7290193058 
2.6870952876 2.6500882075 2.617266536 1.5707963268 1.5707963268 1.5707963268 1.5707963268 1.5707963268 1.5707963268 
1.5707963268 1.5707963268 1.5707963268 1.6743954455 1.7840462375 1.8974821136 2.0119052671 2.1243706857 2.232221744 
2.3334263672 2.426721652 2.5115728246 1.4671972081 1.3575464161 1.24411054 1.1296873865 1.0172219679 0.90937090954 
0.80816628637 0.71487100155 0.63001982895 1.6743954455 1.7840462375 1.8974821136 2.0119052671 2.1243706857 2.232221744 
2.3334263672 2.426721652 2.5115728246 1.4671972081 1.3575464161 1.24411054 1.1296873865 1.0172219679 0.90937090954 
0.80816628637 0.71487100155 0.63001982895 1.5707963268 1.5707963268 1.5707963268 1.5707963268 1.5707963268 1.5707963268 
1.5707963268 1.5707963268 1.5707963268 1.6743954455 1.7840462375 1.8974821136 2.0119052671 2.1243706857 2.232221744 
2.3334263672 2.426721652 2.5115728246 1.4671972081 1.3575464161 1.24411054 1.1296873865 1.0172219679 0.90937090954 
0.80816628637 0.71487100155 0.63001982895 1.6743954455 1.7840462375 1.8974821136 2.0119052671 2.1243706857 2.232221744 
2.3334263672 2.426721652 2.5115728246 1.4671972081 1.3575464161 1.24411054 1.1296873865 1.0172219679 0.90937090954 
0.80816628637 0.71487100155 0.63001982895 2.6824132222 2.7864913217 2.8992382033 3.0186096618 3.1415926536 3.0186096618 
2.8992382033 2.7864913217 2.6824132222 0.45917943135 0.35510133185 0.2423544503 0.12298299178 0 0.12298299178 
0.2423544503 0.35510133185 0.45917943135 0.22715816343 0.49462574053 0.3129712797 0.77059342779 0.68021497688 0.49462574053 
1.0172219679 1.0172219679 1.0172219679 1.0172219679 1.2156949949 1.271087727 1.3676273807 1.5707963268 2.1243706857 
1.3676273807 1.447813335 1.5707963268 1.7739652728 2.1243706857 2.6469669131 1.4827341049 1.5707963268 1.6937793186 
1.8705049266 2.1243706857 2.4613776767 2.8286213739 1.5707963268 1.6588585487 1.7739652728 1.9258976586 2.1243706857 
2.3709992258 2.6469669131 2.9144344902 0.26576171152 0.33975332011 0.45685295248 0.40226393329 0.51573716537 0.6552068806 
0.45538277901 0.56421707518 0.69407236469 0.84594095064 0.50083690068 0.60464862014 0.72561863695 0.86392567495 1.0172219679 
0.54002084522 0.63877777351 0.75168694275 0.87851444325 1.0172219679 1.1636342747 0.57404952988 0.66790778838 0.77356233629 
0.89058134991 1.0172219679 1.1502619915 1.2852923014 0.60381225391 0.69302191562 0.79216440667 0.90072551443 1.0172219679 
1.139116835 1.2630228569 1.3852070904 0.71487100155 0.80816628637 0.80816628637 0.90937090954 0.90937090954 0.90937090954 
1.0172219679 1.0172219679 1.0172219679 1.0172219679 1.1296873865 1.1296873865 1.1296873865 1.1296873865 1.1296873865 
1.24411054 1.24411054 1.24411054 1.24411054 1.24411054 1.24411054 1.3575464161 1.3575464161 1.3575464161 
1.3575464161 1.3575464161 1.3575464161 1.3575464161 1.4671972081 1.4671972081 1.4671972081 1.4671972081 1.4671972081 
1.4671972081 1.4671972081 1.4671972081 1.6743954455 1.6743954455 1.7840462375 1.6743954455 1.7840462375 1.8974821136 
1.6743954455 1.7840462375 1.8974821136 2.0119052671 1.6743954455 1.7840462375 1.8974821136 2.0119052671 2.1243706857 
1.6743954455 1.7840462375 1.8974821136 2.0119052671 2.1243706857 2.232221744 1.6743954455 1.7840462375 1.8974821136 
2.0119052671 2.1243706857 2.232221744 2.3334263672 1.6743954455 1.7840462375 1.8974821136 2.0119052671 2.1243706857 
2.232221744 2.3334263672 2.426721652 1.7563855631 1.8785697967 1.8563003522 2.0024758186 1.9913306621 1.9779583789 
2.1243706857 2.1243706857 2.1243706857 2.1243706857 2.2408671392 2.2510113037 2.2630782103 2.2776669786 2.295651703 
2.3494282469 2.3680303173 2.3899057108 2.4159740166 2.4475202889 2.486385773 2.448570738 2.4736848652 2.5028148801 
2.5369440334 2.5773755784 2.6258554882 2.6847397011 2.5377803997 2.5675431237 2.6015718084 2.6407557529 2.6862098746 
2.7393287203 2.8018393335 2.8758309421 2.718901062 2.8307207459 2.7598010554 2.95115522 2.8800620952 2.8058000847 
3.0774230472 3.00855263 2.9351694502 2.8576792927 3.0774230472 3.1415926536 3.0719036933 2.9967168029 2.91630358 
2.95115522 3.00855263 3.0719036933 3.1415926536 3.0653475414 2.9825888767 2.8307207459 2.8800620952 2.9351694502 
2.9967168029 3.0653475414 3.1415926536 3.0574329311 2.718901062 2.7598010554 2.8058000847 2.8576792927 2.91630358 
2.9825888767 3.0574329311 3.1415926536 2.718901062 2.7598010554 2.8307207459 2.8058000847 2.8800620952 2.95115522 
2.8576792927 2.9351694502 3.00855263 3.0774230472 2.91630358 2.9967168029 3.0719036933 3.1415926536 3.0774230472 
2.9825888767 3.0653475414 3.1415926536 3.0719036933 3.00855263 2.95115522 3.0574329311 3.1415926536 3.0653475414 