# vtk DataFile Version 5.1
vtk output
ASCII
DATASET POLYDATA
POINTS 1002 float
-5.43109 0.0608701 -4.0046 4.98228 0.00454231 -4.47574 -5.04922 0.187092 4.65982 
5.07031 -0.190107 3.56159 0.364621 6.78746 -3.35502 0.0992572 6.94152 3.26376 
0.17986 -8.4222 -3.48975 0.666765 -7.09902 2.88281 9.43637 5.36536 -0.0987071 
-9.31706 5.13579 0.393454 9.08522 -5.05303 0.487501 -8.89545 -4.05785 0.29992 
-4.47023 -0.0513048 -4.06593 -3.37553 -0.179226 -4.1976 -2.23521 -0.249065 -4.39867 
-1.1564 -0.20777 -4.58468 -0.125489 -0.148164 -4.72693 0.979808 -0.214319 -4.90126 
2.17753 -0.359232 -5.08908 3.31407 -0.393397 -5.11816 4.24915 -0.242613 -4.88677 
-5.0917 0.744073 -3.79465 -4.6496 1.49317 -3.65844 -4.12573 2.33489 -3.67696 
-3.53953 3.15925 -3.7197 -2.91041 3.88921 -3.62917 -2.26192 4.6864 -3.52355 
-1.60282 5.61756 -3.58406 -0.931425 6.38223 -3.6968 -0.264807 6.72955 -3.63119 
-5.10416 -0.746927 -4.20828 -4.66605 -1.65391 -4.32152 -4.15083 -2.56485 -4.37406 
-3.55674 -3.51083 -4.52435 -2.86177 -4.59692 -4.79438 -2.11278 -5.70816 -4.91502 
-1.41095 -6.59052 -4.68508 -0.805842 -7.23489 -4.24602 -0.282832 -7.82451 -3.82764 
-6.13124 0.55831 -3.82086 -6.79902 1.01538 -3.58239 -7.43868 1.47764 -3.2165 
-8.05195 2.02495 -2.69049 -8.60059 2.62764 -2.13296 -9.03311 3.18572 -1.70721 
-9.32693 3.71399 -1.35294 -9.47674 4.2746 -0.878215 -9.47297 4.7953 -0.249969 
-6.16544 -0.334603 -4.06381 -6.9079 -0.813787 -3.99681 -7.65478 -1.33231 -3.8477 
-8.3999 -1.79982 -3.76264 -9.05474 -2.19687 -3.63813 -9.43593 -2.5919 -3.125 
-9.43909 -2.99678 -2.18222 -9.20151 -3.35927 -1.17028 -8.97824 -3.69148 -0.350609 
4.85097 0.892322 -4.46953 4.67581 1.8096 -4.43108 4.39748 2.62877 -4.50759 
3.93799 3.38534 -4.79833 3.26196 4.21301 -5.09694 2.4916 5.05307 -5.04844 
1.8352 5.69616 -4.62685 1.34068 6.11009 -4.12128 0.880832 6.44272 -3.71131 
4.69807 -0.976974 -4.67657 4.43405 -1.88496 -4.71026 4.12445 -2.75155 -4.59588 
3.61798 -3.75876 -4.53161 2.9208 -4.90456 -4.6027 2.23646 -5.88558 -4.57194 
1.66329 -6.55078 -4.25293 1.12958 -7.11244 -3.83813 0.61483 -7.75932 -3.587 
5.57826 0.805176 -4.0133 6.22434 1.61242 -3.61981 6.99186 2.35938 -3.42397 
7.88027 3.05265 -3.29097 8.68522 3.71657 -2.94726 9.20509 4.32931 -2.37759 
9.48926 4.83626 -1.80309 9.64765 5.18309 -1.29422 9.64547 5.34823 -0.739747 
5.48669 -0.355675 -4.13085 6.0547 -0.758809 -3.74603 6.67652 -1.24883 -3.40364 
7.2426 -1.80215 -3.07153 7.6164 -2.31505 -2.57213 7.82622 -2.74478 -1.81392 
8.05826 -3.19343 -0.985272 8.40719 -3.76284 -0.342583 8.78778 -4.41972 0.0920731 
-4.33961 0.271184 4.99451 -3.51029 0.246848 5.25562 -2.41885 0.210082 5.36943 
-1.14611 0.296881 5.2417 0.0426379 0.427241 4.8222 1.06107 0.357735 4.20858 
2.06612 0.065476 3.63963 3.13371 -0.203823 3.3349 4.16602 -0.274775 3.34646 
-4.94835 0.885701 4.69632 -4.74106 1.67986 4.7952 -4.31105 2.63513 4.94518 
-3.72995 3.63709 5.03071 -3.15258 4.45743 4.89844 -2.576 5.03657 4.54054 
-1.9087 5.51837 4.12282 -1.17734 6.01393 3.78502 -0.488267 6.50808 3.52254 
-4.74156 -0.500004 4.87889 -4.52627 -1.37208 5.04259 -4.35689 -2.28074 4.92187 
-4.06026 -2.92333 4.34046 -3.50537 -3.27153 3.47024 -2.70908 -3.74711 2.78332 
-1.76829 -4.63983 2.57156 -0.812832 -5.70015 2.69756 0.0207896 -6.54994 2.85845 
-5.77381 0.461878 4.30087 -6.65099 0.757257 3.93738 -7.54485 1.20012 3.59725 
-8.24669 1.85881 3.28231 -8.70235 2.62225 2.96414 -9.04685 3.30724 2.59468 
-9.34904 3.86401 2.1394 -9.52259 4.35491 1.59696 -9.50009 4.79631 0.99709 
-5.6411 -0.37696 4.39306 -6.45484 -0.980902 4.0331 -7.41099 -1.46597 3.61925 
-8.35942 -1.81517 3.29824 -9.25886 -2.25516 3.14557 -10.0196 -2.9127 2.96801 
-10.3373 -3.5443 2.51259 -10.0615 -3.88244 1.79481 -9.45923 -3.98175 1.01497 
4.69452 0.388302 3.07758 4.29987 1.01259 2.81631 3.97264 1.81952 2.96707 
3.67166 2.7922 3.33145 3.21728 3.74509 3.5899 2.5231 4.60356 3.72833 
1.74482 5.42926 3.84702 1.08213 6.16071 3.84821 0.562962 6.66173 3.6273 
4.88809 -0.929094 3.87106 4.68121 -1.74512 4.04282 4.3974 -2.55337 4.00967 
3.97341 -3.38169 3.95828 3.3918 -4.25857 4.10713 2.73187 -5.02976 4.31957 
2.11926 -5.58381 4.26712 1.6033 -6.06292 3.88693 1.13643 -6.59451 3.37178 
5.74815 0.315874 3.56369 6.51781 0.819708 3.65122 7.312 1.34298 3.71626 
8.05081 1.98432 3.59498 8.69784 2.70665 3.30025 9.22306 3.3085 2.95093 
9.56419 3.74799 2.47339 9.6829 4.20935 1.72423 9.61373 4.78507 0.79151 
5.76632 -0.549643 3.97793 6.39778 -1.13675 4.07443 7.03137 -1.96338 3.7582 
7.72818 -2.81105 3.40608 8.37802 -3.47805 3.33936 8.83193 -4.02057 3.24686 
9.11856 -4.53124 2.6843 9.30363 -4.91569 1.78712 9.31828 -5.07211 0.994112 
0.378164 7.00539 -2.83521 0.374367 7.26948 -2.19893 0.408684 7.65613 -1.59301 
0.452509 8.12799 -1.06118 0.395259 8.4758 -0.402066 0.235802 8.4846 0.530555 
0.114827 8.16896 1.52415 0.0996416 7.72971 2.29609 0.118934 7.31647 2.83257 
1.35772 6.6997 -3.23083 2.45579 7.04109 -3.16991 3.61273 7.80484 -3.21822 
4.74103 8.4719 -3.21889 5.75605 8.53837 -2.93218 6.62758 8.10996 -2.36585 
7.38663 7.55498 -1.76286 8.09121 6.94389 -1.2431 8.77837 6.1953 -0.715827 
-0.617592 7.19362 -3.17678 -1.69249 7.56918 -2.88604 -2.76686 7.68477 -2.44654 
-3.80086 7.55268 -1.93668 -4.83909 7.39968 -1.47261 -5.90544 7.28371 -1.07545 
-6.94023 7.01552 -0.698869 -7.86628 6.49286 -0.324805 -8.65382 5.81989 0.040125 
0.933616 7.14528 3.11853 1.79162 7.16823 2.72769 2.74383 7.05818 2.2174 
3.89172 7.04505 1.84633 5.12553 7.19514 1.68254 6.15534 7.23077 1.51152 
6.94357 6.92596 1.1528 7.73995 6.39685 0.667552 8.6323 5.85496 0.220494 
-0.767014 6.89821 2.99719 -1.76468 6.97051 2.76686 -2.83943 7.29935 2.72938 
-3.91842 7.68226 2.73743 -4.94873 7.68181 2.46751 -5.92988 7.20574 1.92207 
-6.88946 6.61506 1.41515 -7.81323 6.15033 1.071 -8.63863 5.70394 0.759711 
0.236762 -9.13699 -3.14981 0.323574 -9.6595 -2.52099 0.394895 -9.83136 -1.59834 
0.407776 -9.70675 -0.577284 0.364573 -9.45603 0.330527 0.333128 -9.13026 1.05811 
0.395263 -8.69084 1.6339 0.539618 -8.17023 2.10903 0.658108 -7.63497 2.52596 
0.896878 -8.59983 -3.26007 1.74374 -8.65389 -3.05396 2.72384 -8.4576 -2.76795 
3.7487 -8.00916 -2.36736 4.74275 -7.46007 -1.87442 5.74237 -6.93588 -1.2681 
6.79142 -6.44422 -0.596252 7.79975 -5.9721 -0.0458642 8.59792 -5.51788 0.282879 
-0.500228 -8.63763 -3.64183 -1.29041 -8.65681 -3.72306 -2.23171 -8.34124 -3.49908 
-3.24435 -7.77423 -2.97595 -4.23561 -7.23866 -2.43516 -5.24545 -6.82364 -2.00102 
-6.29242 -6.30357 -1.50707 -7.26359 -5.55143 -0.877694 -8.10558 -4.73566 -0.241126 
1.55677 -7.17145 3.03778 2.56345 -7.14911 3.01105 3.64214 -7.19964 2.84923 
4.66463 -7.37596 2.68431 5.66323 -7.53407 2.54972 6.80114 -7.50974 2.31458 
7.95866 -7.23563 1.88216 8.76068 -6.69533 1.34207 9.06765 -5.92963 0.854188 
-0.211437 -7.16581 2.4297 -1.23313 -7.01837 1.96013 -2.39059 -6.92509 1.61723 
-3.59003 -7.25946 1.55646 -4.72887 -7.84622 1.70827 -5.79623 -7.94576 1.74489 
-6.79824 -7.20084 1.46477 -7.66601 -6.0192 1.01534 -8.34837 -4.91809 0.615385 
10.2174 4.51994 0.208433 10.8307 3.59125 0.513867 11.1834 2.63079 0.644347 
11.2791 1.68393 0.59685 11.1109 0.683844 0.52151 10.6456 -0.469182 0.480177 
10.0189 -1.73605 0.429575 9.51388 -2.982 0.390524 9.24918 -4.10581 0.416408 
-10.1056 4.26191 0.363005 -11.0079 3.26221 0.324109 -12.0395 2.27547 0.270439 
-13.011 1.44218 0.1878 -13.474 0.654583 0.113123 -13.0922 -0.306228 0.135314 
-12.0466 -1.38942 0.261418 -10.8315 -2.3793 0.376911 -9.76953 -3.23563 0.387344 
-4.07705 0.688046 -3.91027 -3.60315 1.5131 -3.8852 -2.93943 0.613419 -4.16137 
-3.03306 2.38241 -3.95771 -2.4444 1.50154 -4.20323 -1.78227 0.600363 -4.44801 
-2.36532 3.19012 -3.92867 -1.8198 2.40743 -4.18569 -1.25545 1.5376 -4.42736 
-0.681267 0.674066 -4.62485 -1.67563 3.98843 -3.79366 -1.09159 3.28137 -4.06787 
-0.548639 2.48923 -4.30032 -0.046518 1.62361 -4.52032 0.445075 0.720622 -4.73976 
-1.04025 4.89715 -3.78328 -0.429808 4.18976 -4.05902 0.203992 3.42773 -4.30388 
0.78582 2.58066 -4.46084 1.264 1.66522 -4.64613 1.69855 0.666834 -4.89948 
-0.427633 5.73824 -3.90787 0.115186 5.07408 -4.21955 0.778847 4.33472 -4.55502 
1.52572 3.48815 -4.70139 2.17194 2.59794 -4.69591 2.62307 1.65667 -4.78465 
2.96897 0.623473 -4.98854 0.219813 6.2367 -3.92145 0.682305 5.72062 -4.29502 
1.25386 5.1048 -4.7505 2.01913 4.31014 -5.02905 2.82405 3.43377 -4.94941 
3.43335 2.58656 -4.74818 3.80194 1.69461 -4.7239 4.0413 0.708399 -4.83463 
-5.73191 1.24462 -3.6036 -6.32966 1.72731 -3.37379 -5.22361 2.05645 -3.4719 
-6.92427 2.29517 -2.9849 -5.77556 2.66532 -3.20681 -4.66389 2.99392 -3.44882 
-7.51745 2.97077 -2.44032 -6.33927 3.37273 -2.7512 -5.20405 3.71198 -3.07161 
-4.08238 3.85509 -3.39192 -8.0375 3.61994 -1.94857 -6.87558 4.0691 -2.22496 
-5.71503 4.43165 -2.55869 -4.61203 4.59183 -2.93882 -3.45819 4.62185 -3.27819 
-8.41778 4.1972 -1.59865 -7.31493 4.65829 -1.82877 -6.14035 5.03834 -2.10456 
-5.04139 5.28087 -2.47761 -3.9492 5.42313 -2.91035 -2.76881 5.53695 -3.2902 
-8.64556 4.80373 -1.20006 -7.63327 5.26451 -1.47684 -6.48532 5.61833 -1.74586 
-5.36553 5.89301 -2.0808 -4.31359 6.1658 -2.53254 -3.20926 6.41297 -3.02647 
-2.03513 6.49914 -3.42412 -8.72392 5.40645 -0.618618 -7.823 5.94376 -0.967596 
-6.76568 6.32178 -1.29862 -5.65331 6.55646 -1.64043 -4.59124 6.79974 -2.0607 
-3.54858 7.09881 -2.57927 -2.4412 7.24741 -3.07865 -1.30554 7.08407 -3.4273 
-7.93384 6.53324 0.419414 -7.07085 7.16668 0.78475 -7.10484 7.34888 0.0478057 
-6.11579 7.76007 1.23115 -6.21583 8.06902 0.436315 -6.145 7.88011 -0.361978 
-5.12283 8.22019 1.79426 -5.22673 8.53174 0.890275 -5.2089 8.45532 -0.00956365 
-5.0613 8.00095 -0.793398 -4.1059 8.28939 2.24621 -4.18422 8.64246 1.35839 
-4.13737 8.62993 0.340065 -4.03592 8.32841 -0.511533 -3.92728 7.93757 -1.243 
-3.04127 7.94149 2.39843 -3.12118 8.4394 1.67773 -3.0182 8.5743 0.643654 
-2.87568 8.36306 -0.281311 -2.83389 8.08352 -0.996528 -2.83304 7.8995 -1.72151 
-1.92914 7.52998 2.4363 -2.02851 8.12059 1.85435 -1.93249 8.49287 0.904315 
-1.73549 8.44133 -0.0813755 -1.66596 8.12368 -0.79883 -1.73397 7.87784 -1.43526 
[...]
POINT_DATA 1002
FIELD FieldData 4
_paraPhi 1 1002 double
6.2831853072 3.1415926536 6.2831853072 3.1415926536 4.7123889804 4.7123889804 1.5707963268 1.5707963268 3.6951670125 
5.7296109483 2.5880182947 0.5535743589 6.2831853072 6.2831853072 6.2831853072 6.2831853072 3.1415926536 3.1415926536 
3.1415926536 3.1415926536 3.1415926536 6.1053039672 5.898798347 5.6768734901 5.4599499503 5.2659633393 5.1032165617 
4.9713148346 4.8656852733 4.7809517865 0.17788134 0.38438696014 0.60631181711 0.82323535693 1.0172219679 1.1799687454 
1.3118704726 1.4175000338 1.5022335207 6.1892828907 6.1070320098 6.035312792 5.9728339911 5.9183214791 5.8706119594 
5.8286879411 5.7916808611 5.7588591896 0.093902416448 0.17615329733 0.2478725152 0.31035131605 0.36486382811 0.41257334776 
0.45449736604 0.4915044461 0.52432611754 3.3194739936 3.5259796137 3.7479044707 3.9648280105 4.1588146215 4.321561399 
4.4534631262 4.5590926874 4.6438261743 2.9637113136 2.7572056934 2.5352808365 2.3183572967 2.1243706857 1.9616239082 
1.829722181 1.7240926197 1.6393591329 3.23549507 3.3177459509 3.3894651688 3.4519439696 3.5064564817 3.5541660013 
3.5960900196 3.6330970997 3.6659187711 3.0476902371 2.9654393563 2.8937201384 2.8312413375 2.7767288255 2.7290193058 
2.6870952876 2.6500882075 2.617266536 6.2831853072 6.2831853072 6.2831853072 6.2831853072 3.1415926536 3.1415926536 
3.1415926536 3.1415926536 3.1415926536 6.1053039672 5.898798347 5.6768734901 5.4599499503 5.2659633393 5.1032165617 
4.9713148346 4.8656852733 4.7809517865 0.17788134 0.38438696014 0.60631181711 0.82323535693 1.0172219679 1.1799687454 
1.3118704726 1.4175000338 1.5022335207 6.1892828907 6.1070320098 6.035312792 5.9728339911 5.9183214791 5.8706119594 
5.8286879411 5.7916808611 5.7588591896 0.093902416448 0.17615329733 0.2478725152 0.31035131605 0.36486382811 0.41257334776 
0.45449736604 0.4915044461 0.52432611754 3.3194739936 3.5259796137 3.7479044707 3.9648280105 4.1588146215 4.321561399 
4.4534631262 4.5590926874 4.6438261743 2.9637113136 2.7572056934 2.5352808365 2.3183572967 2.1243706857 1.9616239082 
1.829722181 1.7240926197 1.6393591329 3.23549507 3.3177459509 3.3894651688 3.4519439696 3.5064564817 3.5541660013 
3.5960900196 3.6330970997 3.6659187711 3.0476902371 2.9654393563 2.8937201384 2.8312413375 2.7767288255 2.7290193058 
2.6870952876 2.6500882075 2.617266536 4.7123889804 4.7123889804 4.7123889804 4.7123889804 4.7123889804 4.7123889804 
4.7123889804 4.7123889804 4.7123889804 4.6087898617 4.4991390697 4.3857031936 4.2712800401 4.1588146215 4.0509635631 
3.94975894 3.8564636551 3.7716124825 4.8159880991 4.9256388911 5.0390747672 5.1534979207 5.2659633393 5.3738143976 
5.4750190208 5.5683143056 5.6531654782 4.6087898617 4.4991390697 4.3857031936 4.2712800401 4.1588146215 4.0509635631 
3.94975894 3.8564636551 3.7716124825 4.8159880991 4.9256388911 5.0390747672 5.1534979207 5.2659633393 5.3738143976 
5.4750190208 5.5683143056 5.6531654782 1.5707963268 1.5707963268 1.5707963268 1.5707963268 1.5707963268 1.5707963268 
1.5707963268 1.5707963268 1.5707963268 1.6743954455 1.7840462375 1.8974821136 2.0119052671 2.1243706857 2.232221744 
2.3334263672 2.426721652 2.5115728246 1.4671972081 1.3575464161 1.24411054 1.1296873865 1.0172219679 0.90937090954 
0.80816628637 0.71487100155 0.63001982895 1.6743954455 1.7840462375 1.8974821136 2.0119052671 2.1243706857 2.232221744 
2.3334263672 2.426721652 2.5115728246 1.4671972081 1.3575464161 1.24411054 1.1296873865 1.0172219679 0.90937090954 
0.80816628637 0.71487100155 0.63001982895 3.6007720849 3.4966939854 3.3839471039 3.2645756454 3.1415926536 3.0186096618 
2.8992382033 2.7864913217 2.6824132222 5.8240058758 5.9280839753 6.0408308569 6.1602023154 6.2831853072 0.12298299178 
0.2423544503 0.35510133185 0.45917943135 6.0560271438 5.7885595667 5.9702140275 5.5125918794 5.6029703303 5.7885595667 
5.2659633393 5.2659633393 5.2659633393 5.2659633393 5.0674903122 5.0120975802 4.9155579264 4.7123889804 4.1588146215 
4.9155579264 4.8353719722 4.7123889804 4.5092200343 4.1588146215 3.6362183941 4.8004512023 4.7123889804 4.5894059886 
4.4126803806 4.1588146215 3.8218076305 3.4545639333 4.7123889804 4.6243267584 4.5092200343 4.3572876485 4.1588146215 
3.9121860814 3.6362183941 3.368750817 6.0174235957 5.9434319871 5.8263323547 5.8809213739 5.7674481418 5.6279784266 
5.8278025282 5.718968232 5.5891129425 5.4372443565 5.7823484065 5.678536687 5.5575666702 5.4192596322 5.2659633393 
5.743164462 5.6444075337 5.5314983644 5.4046708639 5.2659633393 5.1195510325 5.7091357773 5.6152775188 5.5096229709 
5.3926039573 5.2659633393 5.1329233157 4.9978930058 5.6793730533 5.5901633916 5.4910209005 5.3824597928 5.2659633393 
5.1440684722 5.0201624502 4.8979782167 5.5683143056 5.4750190208 5.4750190208 5.3738143976 5.3738143976 5.3738143976 
5.2659633393 5.2659633393 5.2659633393 5.2659633393 5.1534979207 5.1534979207 5.1534979207 5.1534979207 5.1534979207 
5.0390747672 5.0390747672 5.0390747672 5.0390747672 5.0390747672 5.0390747672 4.9256388911 4.9256388911 4.9256388911 
4.9256388911 4.9256388911 4.9256388911 4.9256388911 4.8159880991 4.8159880991 4.8159880991 4.8159880991 4.8159880991 
4.8159880991 4.8159880991 4.8159880991 4.6087898617 4.6087898617 4.4991390697 4.6087898617 4.4991390697 4.3857031936 
4.6087898617 4.4991390697 4.3857031936 4.2712800401 4.6087898617 4.4991390697 4.3857031936 4.2712800401 4.1588146215 
4.6087898617 4.4991390697 4.3857031936 4.2712800401 4.1588146215 4.0509635631 4.6087898617 4.4991390697 4.3857031936 
4.2712800401 4.1588146215 4.0509635631 3.94975894 4.6087898617 4.4991390697 4.3857031936 4.2712800401 4.1588146215 
4.0509635631 3.94975894 3.8564636551 4.526799744 4.4046155105 4.426884955 4.2807094886 4.2918546451 4.3052269283 
4.1588146215 4.1588146215 4.1588146215 4.1588146215 4.042318168 4.0321740035 4.0201070968 4.0055183285 3.9875336042 
3.9337570603 3.9151549899 3.8932795963 3.8672112905 3.8356650183 3.7967995342 3.8346145692 3.809500442 3.7803704271 
3.7462412737 3.7058097288 3.657329819 3.5984456061 3.7454049075 3.7156421835 3.6816134988 3.6424295543 3.5969754326 
3.5438565869 3.4813459737 3.4073543651 3.5642842451 3.4524645613 3.5233842518 3.3320300872 3.403123212 3.4773852225 
3.20576226 3.2746326772 3.348015857 3.4255060145 3.0774230472 3.1415926536 3.2112816139 3.2864685043 3.3668817272 
2.95115522 3.00855263 3.0719036933 3.1415926536 3.2178377658 3.3005964304 2.8307207459 2.8800620952 2.9351694502 
2.9967168029 3.0653475414 3.1415926536 3.225752376 2.718901062 2.7598010554 2.8058000847 2.8576792927 2.91630358 
2.9825888767 3.0574329311 3.1415926536 3.5642842451 3.5233842518 3.4524645613 3.4773852225 3.403123212 3.3320300872 
3.4255060145 3.348015857 3.2746326772 3.20576226 3.3668817272 3.2864685043 3.2112816139 3.1415926536 3.0774230472 
3.3005964304 3.2178377658 3.1415926536 3.0719036933 3.00855263 2.95115522 3.225752376 3.1415926536 3.0653475414 
2.9967168029 2.9351694502 2.8800620952 2.8307207459 3.1415926536 3.0574329311 2.9825888767 2.91630358 2.8576792927 
2.8058000847 2.7598010554 2.718901062 4.526799744 4.426884955 4.4046155105 4.3052269283 4.2918546451 4.2807094886 
4.1588146215 4.1588146215 4.1588146215 4.1588146215 3.9875336042 4.0055183285 4.0201070968 4.0321740035 4.042318168 
3.7967995342 3.8356650183 3.8672112905 3.8932795963 3.9151549899 3.9337570603 3.5984456061 3.657329819 3.7058097288 
3.7462412737 3.7803704271 3.809500442 3.8346145692 3.4073543651 3.4813459737 3.5438565869 3.5969754326 3.6424295543 
3.6816134988 3.7156421835 3.7454049075 4.7123889804 4.8004512023 4.6243267584 4.9155579264 4.7123889804 4.5092200343 
5.0674903122 4.8353719722 4.5894059886 4.3572876485 5.2659633393 5.0120975802 4.7123889804 4.4126803806 4.1588146215 
5.5125918794 5.2659633393 4.9155579264 4.5092200343 4.1588146215 3.9121860814 5.7885595667 5.6029703303 5.2659633393 
4.7123889804 4.1588146215 3.8218076305 3.6362183941 6.0560271438 5.9702140275 5.7885595667 5.2659633393 4.1588146215 
3.6362183941 3.4545639333 3.368750817 0.22715816343 0.49462574053 0.3129712797 0.77059342779 0.68021497688 0.49462574053 
1.0172219679 1.0172219679 1.0172219679 1.0172219679 1.2156949949 1.271087727 1.3676273807 1.5707963268 2.1243706857 
1.3676273807 1.447813335 1.5707963268 1.7739652728 2.1243706857 2.6469669131 1.4827341049 1.5707963268 1.6937793186 
1.8705049266 2.1243706857 2.4613776767 2.8286213739 1.5707963268 1.6588585487 1.7739652728 1.9258976586 2.1243706857 
2.3709992258 2.6469669131 2.9144344902 1.7563855631 1.8785697967 1.8563003522 2.0024758186 1.9913306621 1.9779583789 
2.1243706857 2.1243706857 2.1243706857 2.1243706857 2.2408671392 2.2510113037 2.2630782103 2.2776669786 2.295651703 
2.3494282469 2.3680303173 2.3899057108 2.4159740166 2.4475202889 2.486385773 2.448570738 2.4736848652 2.5028148801 
2.5369440334 2.5773755784 2.6258554882 2.6847397011 2.5377803997 2.5675431237 2.6015718084 2.6407557529 2.6862098746 
2.7393287203 2.8018393335 2.8758309421 1.6743954455 1.6743954455 1.7840462375 1.6743954455 1.7840462375 1.8974821136 
1.6743954455 1.7840462375 1.8974821136 2.0119052671 1.6743954455 1.7840462375 1.8974821136 2.0119052671 2.1243706857 
1.6743954455 1.7840462375 1.8974821136 2.0119052671 2.1243706857 2.232221744 1.6743954455 1.7840462375 1.8974821136 
2.0119052671 2.1243706857 2.232221744 2.3334263672 1.6743954455 1.7840462375 1.8974821136 2.0119052671 2.1243706857 
2.232221744 2.3334263672 2.426721652 1.4671972081 1.3575464161 1.4671972081 1.24411054 1.3575464161 1.4671972081 
1.1296873865 1.24411054 1.3575464161 1.4671972081 1.0172219679 1.1296873865 1.24411054 1.3575464161 1.4671972081 
0.90937090954 1.0172219679 1.1296873865 1.24411054 1.3575464161 1.4671972081 0.80816628637 0.90937090954 1.0172219679 
1.1296873865 1.24411054 1.3575464161 1.4671972081 0.71487100155 0.80816628637 0.90937090954 1.0172219679 1.1296873865 
1.24411054 1.3575464161 1.4671972081 0.60381225391 0.57404952988 0.69302191562 0.54002084522 0.66790778838 0.79216440667 
0.50083690068 0.63877777351 0.77356233629 0.90072551443 0.45538277901 0.60464862014 0.75168694275 0.89058134991 1.0172219679 
0.40226393329 0.56421707518 0.72561863695 0.87851444325 1.0172219679 1.139116835 0.33975332011 0.51573716537 0.69407236469 
0.86392567495 1.0172219679 1.1502619915 1.2630228569 0.26576171152 0.45685295248 0.6552068806 0.84594095064 1.0172219679 
1.1636342747 1.2852923014 1.3852070904 0.22715816343 0.3129712797 0.49462574053 0.49462574053 0.68021497688 0.77059342779 
1.0172219679 1.0172219679 1.0172219679 1.0172219679 2.1243706857 1.5707963268 1.3676273807 1.271087727 1.2156949949 
2.6469669131 2.1243706857 1.7739652728 1.5707963268 1.447813335 1.3676273807 2.8286213739 2.4613776767 2.1243706857 
1.8705049266 1.6937793186 1.5707963268 1.4827341049 2.9144344902 2.6469669131 2.3709992258 2.1243706857 1.9258976586 
1.7739652728 1.6588585487 1.5707963268 1.7563855631 1.8563003522 1.8785697967 1.9779583789 1.9913306621 2.0024758186 
2.1243706857 2.1243706857 2.1243706857 2.1243706857 2.295651703 2.2776669786 2.2630782103 2.2510113037 2.2408671392 
2.486385773 2.4475202889 2.4159740166 2.3899057108 2.3680303173 2.3494282469 2.6847397011 2.6258554882 2.5773755784 
2.5369440334 2.5028148801 2.4736848652 2.448570738 2.8758309421 2.8018393335 2.7393287203 2.6862098746 2.6407557529 
2.6015718084 2.5675431237 2.5377803997 5.8604937156 5.901393709 5.9723133995 5.9473927383 6.0216547488 6.0927478736 
5.9992719463 6.0767621038 6.1501452836 6.2190157008 6.0578962336 6.1383094565 6.2134963469 0 0.064169606361 
6.1241815303 6.206940195 6.2831853072 0.069688960264 0.13304002361 0.19043743361 6.1990255847 0 0.07624511221 
0.14487585072 0.20642320337 0.26153055843 0.3108719077 0 0.084159722458 0.15900377685 0.22528907359 0.28391336087 
0.3357925689 0.38179159818 0.42269159155 5.8604937156 5.9723133995 5.901393709 6.0927478736 6.0216547488 5.9473927383 
6.2190157008 6.1501452836 6.0767621038 5.9992719463 0.064169606361 0 6.2134963469 6.1383094565 6.0578962336 
0.19043743361 0.13304002361 0.069688960264 6.2831853072 6.206940195 6.1241815303 0.3108719077 0.26153055843 0.20642320337 
0.14487585072 0.07624511221 6.2831853072 6.1990255847 0.42269159155 0.38179159818 0.3357925689 0.28391336087 0.22528907359 
0.15900377685 0.084159722458 0 5.6793730533 5.7091357773 5.5901633916 5.743164462 5.6152775188 5.4910209005 
5.7823484065 5.6444075337 5.5096229709 5.3824597928 5.8278025282 5.678536687 5.5314983644 5.3926039573 5.2659633393 
5.8809213739 5.718968232 5.5575666702 5.4046708639 5.2659633393 5.1440684722 5.9434319871 5.7674481418 5.5891129425 
5.4192596322 5.2659633393 5.1329233157 5.0201624502 6.0174235957 5.8263323547 5.6279784266 5.4372443565 5.2659633393 
5.1195510325 4.9978930058 4.8979782167 1.3852070904 1.2852923014 1.2630228569 1.1636342747 1.1502619915 1.139116835 
1.0172219679 1.0172219679 1.0172219679 1.0172219679 0.84594095064 0.86392567495 0.87851444325 0.89058134991 0.90072551443 
0.6552068806 0.69407236469 0.72561863695 0.75168694275 0.77356233629 0.79216440667 0.45685295248 0.51573716537 0.56421707518 
0.60464862014 0.63877777351 0.66790778838 0.69302191562 0.26576171152 0.33975332011 0.40226393329 0.45538277901 0.50083690068 
0.54002084522 0.57404952988 0.60381225391 
_paraPhiHalf 1 1002 double
0 3.1415926536 0 3.1415926536 1.5707963268 1.5707963268 1.5707963268 1.5707963268 2.5880182947 
0.5535743589 2.5880182947 0.5535743589 0 0 0 0 3.1415926536 3.1415926536 
3.1415926536 3.1415926536 3.1415926536 0.17788134 0.38438696014 0.60631181711 0.82323535693 1.0172219679 1.1799687454 
1.3118704726 1.4175000338 1.5022335207 0.17788134 0.38438696014 0.60631181711 0.82323535693 1.0172219679 1.1799687454 
1.3118704726 1.4175000338 1.5022335207 0.093902416448 0.17615329733 0.2478725152 0.31035131605 0.36486382811 0.41257334776 
0.45449736604 0.4915044461 0.52432611754 0.093902416448 0.17615329733 0.2478725152 0.31035131605 0.36486382811 0.41257334776 
0.45449736604 0.4915044461 0.52432611754 2.9637113136 2.7572056934 2.5352808365 2.3183572967 2.1243706857 1.9616239082 
1.829722181 1.7240926197 1.6393591329 2.9637113136 2.7572056934 2.5352808365 2.3183572967 2.1243706857 1.9616239082 
1.829722181 1.7240926197 1.6393591329 3.0476902371 2.9654393563 2.8937201384 2.8312413375 2.7767288255 2.7290193058 
2.6870952876 2.6500882075 2.617266536 3.0476902371 2.9654393563 2.8937201384 2.8312413375 2.7767288255 2.7290193058 
2.6870952876 2.6500882075 2.617266536 0 0 0 0 3.1415926536 3.1415926536 
3.1415926536 3.1415926536 3.1415926536 0.17788134 0.38438696014 0.60631181711 0.82323535693 1.0172219679 1.1799687454 
1.3118704726 1.4175000338 1.5022335207 0.17788134 0.38438696014 0.60631181711 0.82323535693 1.0172219679 1.1799687454 
1.3118704726 1.4175000338 1.5022335207 0.093902416448 0.17615329733 0.2478725152 0.31035131605 0.36486382811 0.41257334776 
0.45449736604 0.4915044461 0.52432611754 0.093902416448 0.17615329733 0.2478725152 0.31035131605 0.36486382811 0.41257334776 
0.45449736604 0.4915044461 0.52432611754 2.9637113136 2.7572056934 2.5352808365 2.3183572967 2.1243706857 1.9616239082 
1.829722181 1.7240926197 1.6393591329 2.9637113136 2.7572056934 2.5352808365 2.3183572967 2.1243706857 1.9616239082 
1.829722181 1.7240926197 1.6393591329 3.0476902371 2.9654393563 2.8937201384 2.8312413375 2.7767288255 2.7290193058 
2.6870952876 2.6500882075 2.617266536 3.0476902371 2.9654393563 2.8937201384 2.8312413375 2.7767288255 2.7290193058 
2.6870952876 2.6500882075 2.617266536 1.5707963268 1.5707963268 1.5707963268 1.5707963268 1.5707963268 1.5707963268 
1.5707963268 1.5707963268 1.5707963268 1.6743954455 1.7840462375 1.8974821136 2.0119052671 2.1243706857 2.232221744 
2.3334263672 2.426721652 2.5115728246 1.4671972081 1.3575464161 1.24411054 1.1296873865 1.0172219679 0.90937090954 
0.80816628637 0.71487100155 0.63001982895 1.6743954455 1.7840462375 1.8974821136 2.0119052671 2.1243706857 2.232221744 
2.3334263672 2.426721652 2.5115728246 1.4671972081 1.3575464161 1.24411054 1.1296873865 1.0172219679 0.90937090954 
0.80816628637 0.71487100155 0.63001982895 1.5707963268 1.5707963268 1.5707963268 1.5707963268 1.5707963268 1.5707963268 
1.5707963268 1.5707963268 1.5707963268 1.6743954455 1.7840462375 1.8974821136 2.0119052671 2.1243706857 2.232221744 
2.3334263672 2.426721652 2.5115728246 1.4671972081 1.3575464161 1.24411054 1.1296873865 1.0172219679 0.90937090954 
0.80816628637 0.71487100155 0.63001982895 1.6743954455 1.7840462375 1.8974821136 2.0119052671 2.1243706857 2.232221744 
2.3334263672 2.426721652 2.5115728246 1.4671972081 1.3575464161 1.24411054 1.1296873865 1.0172219679 0.90937090954 
0.80816628637 0.71487100155 0.63001982895 2.6824132222 2.7864913217 2.8992382033 3.0186096618 3.1415926536 3.0186096618 
2.8992382033 2.7864913217 2.6824132222 0.45917943135 0.35510133185 0.2423544503 0.12298299178 0 0.12298299178 
0.2423544503 0.35510133185 0.45917943135 0.22715816343 0.49462574053 0.3129712797 0.77059342779 0.68021497688 0.49462574053 
1.0172219679 1.0172219679 1.0172219679 1.0172219679 1.2156949949 1.271087727 1.3676273807 1.5707963268 2.1243706857 
1.3676273807 1.447813335 1.5707963268 1.7739652728 2.1243706857 2.6469669131 1.4827341049 1.5707963268 1.6937793186 
1.8705049266 2.1243706857 2.4613776767 2.8286213739 1.5707963268 1.6588585487 1.7739652728 1.9258976586 2.1243706857 
2.3709992258 2.6469669131 2.9144344902 0.26576171152 0.33975332011 0.45685295248 0.40226393329 0.51573716537 0.6552068806 
0.45538277901 0.56421707518 0.69407236469 0.84594095064 0.50083690068 0.60464862014 0.72561863695 0.86392567495 1.0172219679 
0.54002084522 0.63877777351 0.75168694275 0.87851444325 1.0172219679 1.1636342747 0.57404952988 0.66790778838 0.77356233629 
0.89058134991 1.0172219679 1.1502619915 1.2852923014 0.60381225391 0.69302191562 0.79216440667 0.90072551443 1.0172219679 
1.139116835 1.2630228569 1.3852070904 0.71487100155 0.80816628637 0.80816628637 0.90937090954 0.90937090954 0.90937090954 
1.0172219679 1.0172219679 1.0172219679 1.0172219679 1.1296873865 1.1296873865 1.1296873865 1.1296873865 1.1296873865 
1.24411054 1.24411054 1.24411054 1.24411054 1.24411054 1.24411054 1.3575464161 1.3575464161 1.3575464161 
1.3575464161 1.3575464161 1.3575464161 1.3575464161 1.4671972081 1.4671972081 1.4671972081 1.4671972081 1.4671972081 
1.4671972081 1.4671972081 1.4671972081 1.6743954455 1.6743954455 1.7840462375 1.6743954455 1.7840462375 1.8974821136 
1.6743954455 1.7840462375 1.8974821136 2.0119052671 1.6743954455 1.7840462375 1.8974821136 2.0119052671 2.1243706857 
1.6743954455 1.7840462375 1.8974821136 2.0119052671 2.1243706857 2.232221744 1.6743954455 1.7840462375 1.8974821136 
2.0119052671 2.1243706857 2.232221744 2.3334263672 1.6743954455 1.7840462375 1.8974821136 2.0119052671 2.1243706857 
2.232221744 2.3334263672 2.426721652 1.7563855631 1.8785697967 1.8563003522 2.0024758186 1.9913306621 1.9779583789 
2.1243706857 2.1243706857 2.1243706857 2.1243706857 2.2408671392 2.2510113037 2.2630782103 2.2776669786 2.295651703 
2.3494282469 2.3680303173 2.3899057108 2.4159740166 2.4475202889 2.486385773 2.448570738 2.4736848652 2.5028148801 
2.5369440334 2.5773755784 2.6258554882 2.6847397011 2.5377803997 2.5675431237 2.6015718084 2.6407557529 2.6862098746 
2.7393287203 2.8018393335 2.8758309421 2.718901062 2.8307207459 2.7598010554 2.95115522 2.8800620952 2.8058000847 
3.0774230472 3.00855263 2.9351694502 2.8576792927 3.0774230472 3.1415926536 3.0719036933 2.9967168029 2.91630358 
2.95115522 3.00855263 3.0719036933 3.1415926536 3.0653475414 2.9825888767 2.8307207459 2.8800620952 2.9351694502 
2.9967168029 3.0653475414 3.1415926536 3.0574329311 2.718901062 2.7598010554 2.8058000847 2.8576792927 2.91630358 
2.9825888767 3.0574329311 3.1415926536 2.718901062 2.7598010554 2.8307207459 2.8058000847 2.8800620952 2.95115522 
2.8576792927 2.9351694502 3.00855263 3.0774230472 2.91630358 2.9967168029 3.0719036933 3.1415926536 3.0774230472 
2.9825888767 3.0653475414 3.1415926536 3.0719036933 3.00855263 2.95115522 3.0574329311 3.1415926536 3.0653475414 