# vtk DataFile Version 5.1
vtk output
ASCII
DATASET POLYDATA
POINTS 1002 float
-5.75648 -0.300807 -4.03969 5.4891 0.172973 -3.48444 -5.71783 0.236932 5.06338 
4.99209 -0.515825 3.24334 0.868398 5.83092 -2.19151 1.56928 7.03176 4.09223 
0.108048 -5.37684 -2.3086 0.28178 -5.64294 3.03376 8.25064 4.14136 -0.95827 
-10.5203 3.88661 -1.58186 9.93273 -4.77033 -0.149877 -9.50123 -4.7166 -0.746508 
-4.48463 -0.191914 -3.88727 -3.09561 -0.0826196 -3.80067 -1.83058 -0.0563217 -3.63804 
-0.767894 -0.0696521 -3.18128 0.327885 0.0293926 -2.48734 1.63387 0.249874 -1.96418 
2.94936 0.407731 -1.94838 4.01046 0.392183 -2.38859 4.8135 0.276143 -2.98857 
-5.2225 0.237613 -3.92029 -4.59819 0.824464 -3.83303 -4.01373 1.42229 -3.64927 
-3.50494 2.03034 -3.20522 -2.93081 2.6659 -2.50282 -2.14134 3.27785 -1.81125 
-1.18534 3.82082 -1.46435 -0.271161 4.38211 -1.55149 0.424435 5.06577 -1.87869 
-5.42674 -0.780439 -4.11557 -4.951 -1.31513 -4.238 -4.39801 -1.89684 -4.29935 
-3.88736 -2.51289 -4.20779 -3.42151 -3.15843 -3.99002 -2.84913 -3.78311 -3.73091 
-2.09224 -4.28938 -3.44669 -1.26557 -4.65926 -3.09906 -0.516693 -4.99181 -2.69593 
-6.61932 -0.0250162 -4.16438 -7.453 0.369118 -4.31554 -8.26791 0.857588 -4.35618 
-9.0436 1.35402 -4.15581 -9.71455 1.87811 -3.77369 -10.2543 2.55774 -3.41027 
-10.6648 3.32928 -3.1205 -10.8809 3.88786 -2.76113 -10.8247 4.04116 -2.22998 
-6.70898 -0.652217 -4.26714 -7.50686 -0.992393 -4.42723 -8.16644 -1.38279 -4.34952 
-8.80244 -1.87666 -4.05488 -9.40908 -2.44543 -3.73901 -9.82664 -3.05121 -3.42389 
-9.97431 -3.68602 -2.91454 -9.9224 -4.26246 -2.17125 -9.75282 -4.62732 -1.39139 
5.17625 0.787692 -3.44023 4.83184 1.47486 -3.38983 4.47697 2.21798 -3.28845 
4.08612 2.98678 -3.04732 3.59587 3.71721 -2.7267 2.99277 4.30763 -2.55803 
2.35667 4.72504 -2.61873 1.78099 5.0737 -2.69336 1.29347 5.45387 -2.55645 
5.34442 -0.364122 -3.23218 5.08915 -0.921734 -2.93159 4.69307 -1.51476 -2.63118 
4.19868 -2.15033 -2.36579 3.63649 -2.81369 -2.21169 2.94632 -3.4699 -2.25802 
2.11564 -4.0814 -2.44647 1.29012 -4.61647 -2.57725 0.618495 -5.04989 -2.52078 
5.99447 0.516936 -3.7677 6.6213 0.994942 -3.80814 7.36347 1.55011 -3.66744 
8.107 2.10779 -3.57653 8.7172 2.7188 -3.6212 9.09533 3.4471 -3.53054 
9.17035 4.10966 -3.02851 8.96424 4.42453 -2.23344 8.61365 4.36527 -1.48134 
6.09387 -0.243415 -3.69438 6.7266 -0.688975 -3.69584 7.36902 -1.16632 -3.41446 
8.06558 -1.66187 -3.01704 8.82476 -2.17238 -2.79769 9.50696 -2.73475 -2.74079 
9.94549 -3.35805 -2.47956 10.1167 -3.96169 -1.81531 10.093 -4.44465 -0.942314 
-4.71494 0.280782 5.29953 -3.44919 0.383654 5.30953 -2.11142 0.476798 5.17534 
-0.907841 0.475378 5.06354 0.224618 0.415925 5.01274 1.44584 0.386683 4.89226 
2.64366 0.327354 4.59812 3.60311 0.116437 4.1581 4.33619 -0.212586 3.67226 
-5.30626 0.774611 5.35551 -4.68234 1.38272 5.5056 -3.87984 2.05202 5.52825 
-3.00189 2.79107 5.53939 -2.14552 3.60599 5.57706 -1.33084 4.44431 5.51067 
-0.523786 5.21258 5.24979 0.274338 5.87538 4.87695 0.995369 6.47244 4.49135 
-5.45305 -0.289763 4.90294 -5.09431 -0.877752 4.74114 -4.63928 -1.49994 4.66762 
-4.07751 -2.133 4.64439 -3.41373 -2.79816 4.45973 -2.68216 -3.54973 4.02252 
-1.92286 -4.34649 3.5662 -1.16212 -5.01012 3.31969 -0.419955 -5.41789 3.20801 
-6.38338 0.536651 4.86727 -7.09859 0.81463 4.54715 -7.91833 1.05639 4.123 
-8.76668 1.30459 3.5069 -9.46491 1.58374 2.56929 -9.94164 1.8641 1.43058 
-10.2753 2.1791 0.422651 -10.5122 2.63854 -0.324145 -10.6063 3.25426 -0.952266 
-6.37545 -0.0610782 4.53606 -6.91591 -0.337877 3.85124 -7.48049 -0.681424 3.16711 
-8.1863 -1.16966 2.57636 -8.87492 -1.72299 2.00063 -9.27395 -2.22409 1.36089 
-9.39297 -2.75991 0.728024 -9.44662 -3.45976 0.183625 -9.51055 -4.20034 -0.293914 
4.68254 0.193112 3.41465 4.4263 1.07698 3.88204 4.16573 2.03961 4.3971 
3.81096 2.94675 4.60552 3.382 3.78967 4.56852 2.98755 4.65499 4.70021 
2.65651 5.5116 5.03257 2.32805 6.21477 5.13005 1.96441 6.7025 4.75352 
4.88044 -0.973164 3.48474 4.62164 -1.45 3.74688 4.20336 -1.99426 3.95201 
3.76182 -2.60156 4.06454 3.36073 -3.24715 4.11169 2.82289 -3.94978 4.11191 
2.04293 -4.66345 4.02273 1.23675 -5.21706 3.79649 0.650059 -5.51215 3.44641 
5.46145 -0.332401 2.84498 6.0005 -0.0230631 2.42045 6.58829 0.390453 2.06387 
7.1136 0.859448 1.75386 7.48108 1.36987 1.29416 7.71426 1.90363 0.608624 
7.89295 2.42127 -0.0516884 8.05174 2.9436 -0.446402 8.17799 3.5251 -0.666674 
5.70044 -1.01944 3.12065 6.5718 -1.45297 3.18028 7.42039 -1.87957 3.1672 
8.02245 -2.37014 2.83389 8.36847 -2.8814 2.26139 8.67269 -3.32163 1.76505 
9.08413 -3.713 1.44741 9.52972 -4.12315 1.10203 9.84443 -4.51021 0.551899 
0.839152 6.50998 -1.92934 0.844727 7.02281 -1.40572 0.8827 7.24166 -0.774852 
0.950786 7.38957 -0.206953 1.07421 7.78948 0.319122 1.25533 8.30254 0.948947 
1.43471 8.46372 1.71474 1.55187 8.13465 2.53558 1.59296 7.57427 3.34578 
1.38766 6.37133 -2.72478 1.94532 6.78295 -3.11115 2.87244 6.96943 -3.20138 
4.20639 7.02711 -3.13921 5.5058 7.09611 -3.12916 6.38065 7.055 -3.02148 
6.94273 6.64454 -2.54892 7.44616 5.86237 -1.84366 7.90761 4.95763 -1.26904 
0.0907418 5.65158 -1.62049 -1.09847 5.4164 -1.24188 -2.63948 5.233 -1.13856 
-4.23782 5.20039 -1.22795 -5.64881 5.31816 -1.49409 -6.86806 5.46497 -1.94393 
-7.96611 5.45572 -2.31313 -8.94434 5.15637 -2.29939 -9.79169 4.58526 -1.96694 
2.26131 7.32685 4.00559 2.82385 7.33774 3.57729 3.3344 6.91809 2.72405 
3.98508 6.26755 1.71811 4.84363 5.82417 0.97628 5.73858 5.65715 0.554778 
6.50022 5.40502 0.186381 7.13516 4.92531 -0.246538 7.71082 4.44699 -0.647836 
0.748896 6.90313 3.61687 -0.282276 6.63923 3.18581 -1.49508 6.24125 2.83817 
-2.89504 5.69939 2.39732 -4.48427 5.09404 1.75364 -6.10859 4.60575 1.03439 
-7.52817 4.32911 0.338112 -8.67524 4.18654 -0.366292 -9.65078 4.05927 -1.04216 
0.20089 -5.83513 -1.90135 0.337836 -6.30445 -1.45422 0.485488 -6.72446 -0.95011 
0.601216 -7.07429 -0.334833 0.703253 -7.28218 0.347771 0.822268 -7.17905 0.955262 
0.883313 -6.74267 1.46454 0.781067 -6.22366 1.98835 0.539189 -5.85774 2.54824 
0.973689 -5.65332 -2.12445 1.93257 -5.8991 -1.93451 3.06682 -5.99455 -1.73163 
4.29388 -5.9852 -1.57871 5.40989 -6.01804 -1.51362 6.4097 -6.08179 -1.46534 
7.47679 -6.01139 -1.33221 8.58623 -5.72777 -1.05515 9.46567 -5.28727 -0.633853 
-0.783104 -5.41527 -2.27472 -1.89519 -5.60258 -2.33226 -3.14827 -5.97935 -2.481 
-4.26584 -6.20033 -2.44873 -5.12596 -5.85385 -1.98481 -5.98286 -5.18654 -1.31719 
-7.04837 -4.86321 -0.903998 -8.14062 -4.9811 -0.829375 -8.9763 -5.04501 -0.838774 
1.17811 -5.81969 2.97374 2.20237 -6.18157 2.71644 3.45911 -6.75387 2.34749 
4.88738 -7.33382 2.04617 6.19269 -7.58961 1.78142 7.17734 -7.35956 1.3701 
7.97251 -6.77431 0.869706 8.74389 -6.06839 0.482142 9.43802 -5.38671 0.193756 
-0.521707 -5.66029 2.73112 -1.54354 -5.74519 2.38933 -2.7287 -5.79343 2.05716 
-3.8759 -5.60142 1.76223 -4.9209 -5.16225 1.46707 -6.00279 -4.79925 1.11404 
-7.13574 -4.75972 0.693503 -8.13808 -4.89292 0.226798 -8.90783 -4.91265 -0.263742 
8.76559 3.55351 -0.961279 9.35258 2.85878 -0.842368 10.0294 1.86878 -0.591293 
10.6188 0.663579 -0.342105 10.8007 -0.456491 -0.267905 10.5584 -1.40335 -0.340134 
10.2858 -2.31632 -0.358995 10.2243 -3.22182 -0.255959 10.1901 -4.04342 -0.153475 
-11.4983 3.2839 -1.6183 -12.4845 2.64803 -1.58751 -13.1749 1.94565 -1.44705 
-13.2974 1.00364 -1.18416 -12.8895 -0.188121 -0.890801 -12.2126 -1.33964 -0.722783 
-11.4651 -2.2943 -0.742491 -10.7415 -3.1901 -0.846082 -10.092 -4.05772 -0.871908 
-3.86672 0.391862 -3.79329 -3.26181 0.972382 -3.68477 -2.51647 0.509645 -3.68023 
-2.76021 1.53075 -3.35782 -2.00975 1.05375 -3.41267 -1.34705 0.526884 -3.33774 
-2.25999 2.15063 -2.69351 -1.53594 1.6014 -2.84593 -0.83923 1.08356 -2.83363 
-0.232073 0.563514 -2.66689 -1.55005 2.86477 -1.90619 -0.917934 2.30251 -2.09133 
-0.213289 1.71771 -2.21131 0.478254 1.22001 -2.16508 1.08526 0.751898 -2.03066 
-0.619253 3.54336 -1.443 -0.0752983 3.12204 -1.55415 0.560644 2.53607 -1.75059 
1.28359 1.95601 -1.90097 1.95196 1.46629 -1.92725 2.49357 0.96791 -1.90079 
0.284522 4.12683 -1.54795 0.797034 3.8522 -1.57108 1.35846 3.40705 -1.70198 
2.02383 2.79824 -1.94732 2.68861 2.18549 -2.18056 3.22849 1.61311 -2.28224 
3.64889 1.01467 -2.3108 0.929852 4.73865 -2.04082 1.43487 4.45897 -2.07257 
1.98207 4.13275 -2.06885 2.59752 3.62329 -2.20549 3.21102 2.95673 -2.50862 
3.72301 2.26001 -2.78089 4.12816 1.57863 -2.89208 4.48372 0.908948 -2.92708 
-6.08537 0.556319 -4.06348 -6.92155 1.02358 -4.20161 -5.44467 1.2062 -3.91597 
-7.7081 1.59587 -4.15446 -6.26114 1.74099 -3.92497 -4.82814 1.87259 -3.60377 
-8.4131 2.18154 -3.86279 -7.00371 2.35408 -3.74938 -5.61022 2.42107 -3.47255 
-4.25685 2.5134 -3.05944 -9.01247 2.83201 -3.53631 -7.66593 2.99284 -3.48689 
-6.33628 3.00415 -3.27209 -5.01049 3.00767 -2.91482 -3.5991 3.1068 -2.38217 
-9.50191 3.61575 -3.3467 -8.24783 3.73762 -3.34584 -7.00246 3.66606 -3.11715 
-5.74836 3.55056 -2.78578 -4.33189 3.54288 -2.33905 -2.73196 3.64912 -1.80973 
-9.83625 4.32611 -3.13508 -8.70003 4.53012 -3.25828 -7.54463 4.44837 -3.01868 
-6.37028 4.23607 -2.62212 -5.02639 4.10092 -2.237 -3.401 4.10419 -1.82952 
-1.69874 4.21059 -1.52628 -9.93691 4.66105 -2.67149 -8.94156 5.06559 -2.94026 
-7.87235 5.13783 -2.79493 -6.7465 4.96391 -2.34712 -5.48521 4.76362 -1.93528 
-3.95362 4.68189 -1.64728 -2.23983 4.73594 -1.45911 -0.695045 4.88499 -1.51473 
-8.92567 4.75132 -1.36156 -7.87178 4.82063 -0.60575 -8.02096 5.30166 -1.5722 
-6.54637 4.97055 0.17092 -6.81361 5.37014 -0.707661 -6.91018 5.60076 -1.43072 
-4.97261 5.38115 0.951275 -5.33941 5.59159 0.126855 -5.53627 5.69629 -0.52894 
-5.63337 5.63149 -1.02859 -3.34324 6.00943 1.70561 -3.76714 6.07968 0.904354 
-4.01513 5.91433 0.214231 -4.12154 5.71809 -0.265407 -4.20744 5.52849 -0.720233 
-1.82798 6.63239 2.25669 -2.24108 6.72768 1.5503 -2.53716 6.37844 0.808003 
-2.61102 5.90779 0.253345 -2.60199 5.67538 -0.169125 -2.63633 5.54433 -0.651201 
-0.468239 7.11222 2.58504 -0.78494 7.37434 1.94913 -1.10561 7.11162 1.23316 
[...]
POINT_DATA 1002
FIELD FieldData 4
_paraPhi 1 1002 double
6.2831853072 3.1415926536 6.2831853072 3.1415926536 4.7123889804 4.7123889804 1.5707963268 1.5707963268 3.6951670125 
5.7296109483 2.5880182947 0.5535743589 6.2831853072 6.2831853072 6.2831853072 6.2831853072 3.1415926536 3.1415926536 
3.1415926536 3.1415926536 3.1415926536 6.1053039672 5.898798347 5.6768734901 5.4599499503 5.2659633393 5.1032165617 
4.9713148346 4.8656852733 4.7809517865 0.17788134 0.38438696014 0.60631181711 0.82323535693 1.0172219679 1.1799687454 
1.3118704726 1.4175000338 1.5022335207 6.1892828907 6.1070320098 6.035312792 5.9728339911 5.9183214791 5.8706119594 
5.8286879411 5.7916808611 5.7588591896 0.093902416448 0.17615329733 0.2478725152 0.31035131605 0.36486382811 0.41257334776 
0.45449736604 0.4915044461 0.52432611754 3.3194739936 3.5259796137 3.7479044707 3.9648280105 4.1588146215 4.321561399 
4.4534631262 4.5590926874 4.6438261743 2.9637113136 2.7572056934 2.5352808365 2.3183572967 2.1243706857 1.9616239082 
1.829722181 1.7240926197 1.6393591329 3.23549507 3.3177459509 3.3894651688 3.4519439696 3.5064564817 3.5541660013 
3.5960900196 3.6330970997 3.6659187711 3.0476902371 2.9654393563 2.8937201384 2.8312413375 2.7767288255 2.7290193058 
2.6870952876 2.6500882075 2.617266536 6.2831853072 6.2831853072 6.2831853072 6.2831853072 3.1415926536 3.1415926536 
3.1415926536 3.1415926536 3.1415926536 6.1053039672 5.898798347 5.6768734901 5.4599499503 5.2659633393 5.1032165617 
4.9713148346 4.8656852733 4.7809517865 0.17788134 0.38438696014 0.60631181711 0.82323535693 1.0172219679 1.1799687454 
1.3118704726 1.4175000338 1.5022335207 6.1892828907 6.1070320098 6.035312792 5.9728339911 5.9183214791 5.8706119594 
5.8286879411 5.7916808611 5.7588591896 0.093902416448 0.17615329733 0.2478725152 0.31035131605 0.36486382811 0.41257334776 
0.45449736604 0.4915044461 0.52432611754 3.3194739936 3.5259796137 3.7479044707 3.9648280105 4.1588146215 4.321561399 
4.4534631262 4.5590926874 4.6438261743 2.9637113136 2.7572056934 2.5352808365 2.3183572967 2.1243706857 1.9616239082 
1.829722181 1.7240926197 1.6393591329 3.23549507 3.3177459509 3.3894651688 3.4519439696 3.5064564817 3.5541660013 
3.5960900196 3.6330970997 3.6659187711 3.0476902371 2.9654393563 2.8937201384 2.8312413375 2.7767288255 2.7290193058 
2.6870952876 2.6500882075 2.617266536 4.7123889804 4.7123889804 4.7123889804 4.7123889804 4.7123889804 4.7123889804 
4.7123889804 4.7123889804 4.7123889804 4.6087898617 4.4991390697 4.3857031936 4.2712800401 4.1588146215 4.0509635631 
3.94975894 3.8564636551 3.7716124825 4.8159880991 4.9256388911 5.0390747672 5.1534979207 5.2659633393 5.3738143976 
5.4750190208 5.5683143056 5.6531654782 4.6087898617 4.4991390697 4.3857031936 4.2712800401 4.1588146215 4.0509635631 
3.94975894 3.8564636551 3.7716124825 4.8159880991 4.9256388911 5.0390747672 5.1534979207 5.2659633393 5.3738143976 
5.4750190208 5.5683143056 5.6531654782 1.5707963268 1.5707963268 1.5707963268 1.5707963268 1.5707963268 1.5707963268 
1.5707963268 1.5707963268 1.5707963268 1.6743954455 1.7840462375 1.8974821136 2.0119052671 2.1243706857 2.232221744 
2.3334263672 2.426721652 2.5115728246 1.4671972081 1.3575464161 1.24411054 1.1296873865 1.0172219679 0.90937090954 
0.80816628637 0.71487100155 0.63001982895 1.6743954455 1.7840462375 1.8974821136 2.0119052671 2.1243706857 2.232221744 
2.3334263672 2.426721652 2.5115728246 1.4671972081 1.3575464161 1.24411054 1.1296873865 1.0172219679 0.90937090954 
0.80816628637 0.71487100155 0.63001982895 3.6007720849 3.4966939854 3.3839471039 3.2645756454 3.1415926536 3.0186096618 
2.8992382033 2.7864913217 2.6824132222 5.8240058758 5.9280839753 6.0408308569 6.1602023154 6.2831853072 0.12298299178 
0.2423544503 0.35510133185 0.45917943135 6.0560271438 5.7885595667 5.9702140275 5.5125918794 5.6029703303 5.7885595667 
5.2659633393 5.2659633393 5.2659633393 5.2659633393 5.0674903122 5.0120975802 4.9155579264 4.7123889804 4.1588146215 
4.9155579264 4.8353719722 4.7123889804 4.5092200343 4.1588146215 3.6362183941 4.8004512023 4.7123889804 4.5894059886 
4.4126803806 4.1588146215 3.8218076305 3.4545639333 4.7123889804 4.6243267584 4.5092200343 4.3572876485 4.1588146215 
3.9121860814 3.6362183941 3.368750817 6.0174235957 5.9434319871 5.8263323547 5.8809213739 5.7674481418 5.6279784266 
5.8278025282 5.718968232 5.5891129425 5.4372443565 5.7823484065 5.678536687 5.5575666702 5.4192596322 5.2659633393 
5.743164462 5.6444075337 5.5314983644 5.4046708639 5.2659633393 5.1195510325 5.7091357773 5.6152775188 5.5096229709 
5.3926039573 5.2659633393 5.1329233157 4.9978930058 5.6793730533 5.5901633916 5.4910209005 5.3824597928 5.2659633393 
5.1440684722 5.0201624502 4.8979782167 5.5683143056 5.4750190208 5.4750190208 5.3738143976 5.3738143976 5.3738143976 
5.2659633393 5.2659633393 5.2659633393 5.2659633393 5.1534979207 5.1534979207 5.1534979207 5.1534979207 5.1534979207 
5.0390747672 5.0390747672 5.0390747672 5.0390747672 5.0390747672 5.0390747672 4.9256388911 4.9256388911 4.9256388911 
4.9256388911 4.9256388911 4.9256388911 4.9256388911 4.8159880991 4.8159880991 4.8159880991 4.8159880991 4.8159880991 
4.8159880991 4.8159880991 4.8159880991 4.6087898617 4.6087898617 4.4991390697 4.6087898617 4.4991390697 4.3857031936 
4.6087898617 4.4991390697 4.3857031936 4.2712800401 4.6087898617 4.4991390697 4.3857031936 4.2712800401 4.1588146215 
4.6087898617 4.4991390697 4.3857031936 4.2712800401 4.1588146215 4.0509635631 4.6087898617 4.4991390697 4.3857031936 
4.2712800401 4.1588146215 4.0509635631 3.94975894 4.6087898617 4.4991390697 4.3857031936 4.2712800401 4.1588146215 
4.0509635631 3.94975894 3.8564636551 4.526799744 4.4046155105 4.426884955 4.2807094886 4.2918546451 4.3052269283 
4.1588146215 4.1588146215 4.1588146215 4.1588146215 4.042318168 4.0321740035 4.0201070968 4.0055183285 3.9875336042 
3.9337570603 3.9151549899 3.8932795963 3.8672112905 3.8356650183 3.7967995342 3.8346145692 3.809500442 3.7803704271 
3.7462412737 3.7058097288 3.657329819 3.5984456061 3.7454049075 3.7156421835 3.6816134988 3.6424295543 3.5969754326 
3.5438565869 3.4813459737 3.4073543651 3.5642842451 3.4524645613 3.5233842518 3.3320300872 3.403123212 3.4773852225 
3.20576226 3.2746326772 3.348015857 3.4255060145 3.0774230472 3.1415926536 3.2112816139 3.2864685043 3.3668817272 
2.95115522 3.00855263 3.0719036933 3.1415926536 3.2178377658 3.3005964304 2.8307207459 2.8800620952 2.9351694502 
2.9967168029 3.0653475414 3.1415926536 3.225752376 2.718901062 2.7598010554 2.8058000847 2.8576792927 2.91630358 
2.9825888767 3.0574329311 3.1415926536 3.5642842451 3.5233842518 3.4524645613 3.4773852225 3.403123212 3.3320300872 
3.4255060145 3.348015857 3.2746326772 3.20576226 3.3668817272 3.2864685043 3.2112816139 3.1415926536 3.0774230472 
3.3005964304 3.2178377658 3.1415926536 3.0719036933 3.00855263 2.95115522 3.225752376 3.1415926536 3.0653475414 
2.9967168029 2.9351694502 2.8800620952 2.8307207459 3.1415926536 3.0574329311 2.9825888767 2.91630358 2.8576792927 
2.8058000847 2.7598010554 2.718901062 4.526799744 4.426884955 4.4046155105 4.3052269283 4.2918546451 4.2807094886 
4.1588146215 4.1588146215 4.1588146215 4.1588146215 3.9875336042 4.0055183285 4.0201070968 4.0321740035 4.042318168 
3.7967995342 3.8356650183 3.8672112905 3.8932795963 3.9151549899 3.9337570603 3.5984456061 3.657329819 3.7058097288 
3.7462412737 3.7803704271 3.809500442 3.8346145692 3.4073543651 3.4813459737 3.5438565869 3.5969754326 3.6424295543 
3.6816134988 3.7156421835 3.7454049075 4.7123889804 4.8004512023 4.6243267584 4.9155579264 4.7123889804 4.5092200343 
5.0674903122 4.8353719722 4.5894059886 4.3572876485 5.2659633393 5.0120975802 4.7123889804 4.4126803806 4.1588146215 
5.5125918794 5.2659633393 4.9155579264 4.5092200343 4.1588146215 3.9121860814 5.7885595667 5.6029703303 5.2659633393 
4.7123889804 4.1588146215 3.8218076305 3.6362183941 6.0560271438 5.9702140275 5.7885595667 5.2659633393 4.1588146215 
3.6362183941 3.4545639333 3.368750817 0.22715816343 0.49462574053 0.3129712797 0.77059342779 0.68021497688 0.49462574053 
1.0172219679 1.0172219679 1.0172219679 1.0172219679 1.2156949949 1.271087727 1.3676273807 1.5707963268 2.1243706857 
1.3676273807 1.447813335 1.5707963268 1.7739652728 2.1243706857 2.6469669131 1.4827341049 1.5707963268 1.6937793186 
1.8705049266 2.1243706857 2.4613776767 2.8286213739 1.5707963268 1.6588585487 1.7739652728 1.9258976586 2.1243706857 
2.3709992258 2.6469669131 2.9144344902 1.7563855631 1.8785697967 1.8563003522 2.0024758186 1.9913306621 1.9779583789 
2.1243706857 2.1243706857 2.1243706857 2.1243706857 2.2408671392 2.2510113037 2.2630782103 2.2776669786 2.295651703 
2.3494282469 2.3680303173 2.3899057108 2.4159740166 2.4475202889 2.486385773 2.448570738 2.4736848652 2.5028148801 
2.5369440334 2.5773755784 2.6258554882 2.6847397011 2.5377803997 2.5675431237 2.6015718084 2.6407557529 2.6862098746 
2.7393287203 2.8018393335 2.8758309421 1.6743954455 1.6743954455 1.7840462375 1.6743954455 1.7840462375 1.8974821136 
1.6743954455 1.7840462375 1.8974821136 2.0119052671 1.6743954455 1.7840462375 1.8974821136 2.0119052671 2.1243706857 
1.6743954455 1.7840462375 1.8974821136 2.0119052671 2.1243706857 2.232221744 1.6743954455 1.7840462375 1.8974821136 
2.0119052671 2.1243706857 2.232221744 2.3334263672 1.6743954455 1.7840462375 1.8974821136 2.0119052671 2.1243706857 
2.232221744 2.3334263672 2.426721652 1.4671972081 1.3575464161 1.4671972081 1.24411054 1.3575464161 1.4671972081 
1.1296873865 1.24411054 1.3575464161 1.4671972081 1.0172219679 1.1296873865 1.24411054 1.3575464161 1.4671972081 
0.90937090954 1.0172219679 1.1296873865 1.24411054 1.3575464161 1.4671972081 0.80816628637 0.90937090954 1.0172219679 
1.1296873865 1.24411054 1.3575464161 1.4671972081 0.71487100155 0.80816628637 0.90937090954 1.0172219679 1.1296873865 
1.24411054 1.3575464161 1.4671972081 0.60381225391 0.57404952988 0.69302191562 0.54002084522 0.66790778838 0.79216440667 
0.50083690068 0.63877777351 0.77356233629 0.90072551443 0.45538277901 0.60464862014 0.75168694275 0.89058134991 1.0172219679 
0.40226393329 0.56421707518 0.72561863695 0.87851444325 1.0172219679 1.139116835 0.33975332011 0.51573716537 0.69407236469 
0.86392567495 1.0172219679 1.1502619915 1.2630228569 0.26576171152 0.45685295248 0.6552068806 0.84594095064 1.0172219679 
1.1636342747 1.2852923014 1.3852070904 0.22715816343 0.3129712797 0.49462574053 0.49462574053 0.68021497688 0.77059342779 
1.0172219679 1.0172219679 1.0172219679 1.0172219679 2.1243706857 1.5707963268 1.3676273807 1.271087727 1.2156949949 
2.6469669131 2.1243706857 1.7739652728 1.5707963268 1.447813335 1.3676273807 2.8286213739 2.4613776767 2.1243706857 
1.8705049266 1.6937793186 1.5707963268 1.4827341049 2.9144344902 2.6469669131 2.3709992258 2.1243706857 1.9258976586 
1.7739652728 1.6588585487 1.5707963268 1.7563855631 1.8563003522 1.8785697967 1.9779583789 1.9913306621 2.0024758186 
2.1243706857 2.1243706857 2.1243706857 2.1243706857 2.295651703 2.2776669786 2.2630782103 2.2510113037 2.2408671392 
2.486385773 2.4475202889 2.4159740166 2.3899057108 2.3680303173 2.3494282469 2.6847397011 2.6258554882 2.5773755784 
2.5369440334 2.5028148801 2.4736848652 2.448570738 2.8758309421 2.8018393335 2.7393287203 2.6862098746 2.6407557529 
2.6015718084 2.5675431237 2.5377803997 5.8604937156 5.901393709 5.9723133995 5.9473927383 6.0216547488 6.0927478736 
5.9992719463 6.0767621038 6.1501452836 6.2190157008 6.0578962336 6.1383094565 6.2134963469 0 0.064169606361 
6.1241815303 6.206940195 6.2831853072 0.069688960264 0.13304002361 0.19043743361 6.1990255847 0 0.07624511221 
0.14487585072 0.20642320337 0.26153055843 0.3108719077 0 0.084159722458 0.15900377685 0.22528907359 0.28391336087 
0.3357925689 0.38179159818 0.42269159155 5.8604937156 5.9723133995 5.901393709 6.0927478736 6.0216547488 5.9473927383 
6.2190157008 6.1501452836 6.0767621038 5.9992719463 0.064169606361 0 6.2134963469 6.1383094565 6.0578962336 
0.19043743361 0.13304002361 0.069688960264 6.2831853072 6.206940195 6.1241815303 0.3108719077 0.26153055843 0.20642320337 
0.14487585072 0.07624511221 6.2831853072 6.1990255847 0.42269159155 0.38179159818 0.3357925689 0.28391336087 0.22528907359 
0.15900377685 0.084159722458 0 5.6793730533 5.7091357773 5.5901633916 5.743164462 5.6152775188 5.4910209005 
5.7823484065 5.6444075337 5.5096229709 5.3824597928 5.8278025282 5.678536687 5.5314983644 5.3926039573 5.2659633393 
5.8809213739 5.718968232 5.5575666702 5.4046708639 5.2659633393 5.1440684722 5.9434319871 5.7674481418 5.5891129425 
5.4192596322 5.2659633393 5.1329233157 5.0201624502 6.0174235957 5.8263323547 5.6279784266 5.4372443565 5.2659633393 
5.1195510325 4.9978930058 4.8979782167 1.3852070904 1.2852923014 1.2630228569 1.1636342747 1.1502619915 1.139116835 
1.0172219679 1.0172219679 1.0172219679 1.0172219679 0.84594095064 0.86392567495 0.87851444325 0.89058134991 0.90072551443 
0.6552068806 0.69407236469 0.72561863695 0.75168694275 0.77356233629 0.79216440667 0.45685295248 0.51573716537 0.56421707518 
0.60464862014 0.63877777351 0.66790778838 0.69302191562 0.26576171152 0.33975332011 0.40226393329 0.45538277901 0.50083690068 
0.54002084522 0.57404952988 0.60381225391 
_paraPhiHalf 1 1002 double
0 3.1415926536 0 3.1415926536 1.5707963268 1.5707963268 1.5707963268 1.5707963268 2.5880182947 
0.5535743589 2.5880182947 0.5535743589 0 0 0 0 3.1415926536 3.1415926536 
3.1415926536 3.1415926536 3.1415926536 0.17788134 0.38438696014 0.60631181711 0.82323535693 1.0172219679 1.1799687454 
1.3118704726 1.4175000338 1.5022335207 0.17788134 0.38438696014 0.60631181711 0.82323535693 1.0172219679 1.1799687454 
1.3118704726 1.4175000338 1.5022335207 0.093902416448 0.17615329733 0.2478725152 0.31035131605 0.36486382811 0.41257334776 
0.45449736604 0.4915044461 0.52432611754 0.093902416448 0.17615329733 0.2478725152 0.31035131605 0.36486382811 0.41257334776 
0.45449736604 0.4915044461 0.52432611754 2.9637113136 2.7572056934 2.5352808365 2.3183572967 2.1243706857 1.9616239082 
1.829722181 1.7240926197 1.6393591329 2.9637113136 2.7572056934 2.5352808365 2.3183572967 2.1243706857 1.9616239082 
1.829722181 1.7240926197 1.6393591329 3.0476902371 2.9654393563 2.8937201384 2.8312413375 2.7767288255 2.7290193058 
2.6870952876 2.6500882075 2.617266536 3.0476902371 2.9654393563 2.8937201384 2.8312413375 2.7767288255 2.7290193058 
2.6870952876 2.6500882075 2.617266536 0 0 0 0 3.1415926536 3.1415926536 
3.1415926536 3.1415926536 3.1415926536 0.17788134 0.38438696014 0.60631181711 0.82323535693 1.0172219679 1.1799687454 
1.3118704726 1.4175000338 1.5022335207 0.17788134 0.38438696014 0.60631181711 0.82323535693 1.0172219679 1.1799687454 
1.3118704726 1.4175000338 1.5022335207 0.093902416448 0.17615329733 0.2478725152 0.31035131605 0.36486382811 0.41257334776 
0.45449736604 0.4915044461 0.52432611754 0.093902416448 0.17615329733 0.2478725152 0.31035131605 0.36486382811 0.41257334776 
0.45449736604 0.4915044461 0.52432611754 2.9637113136 2.7572056934 2.5352808365 2.3183572967 2.1243706857 1.9616239082 
1.829722181 1.7240926197 1.6393591329 2.9637113136 2.7572056934 2.5352808365 2.3183572967 2.1243706857 1.9616239082 
1.829722181 1.7240926197 1.6393591329 3.0476902371 2.9654393563 2.8937201384 2.8312413375 2.7767288255 2.7290193058 
2.6870952876 2.6500882075 2.617266536 3.0476902371 2.9654393563 2.8937201384 2.8312413375 2.7767288255 2.7290193058 
2.6870952876 2.6500882075 2.617266536 1.5707963268 1.5707963268 1.5707963268 1.5707963268 1.5707963268 1.5707963268 
1.5707963268 1.5707963268 1.5707963268 1.6743954455 1.7840462375 1.8974821136 2.0119052671 2.1243706857 2.232221744 
2.3334263672 2.426721652 2.5115728246 1.4671972081 1.3575464161 1.24411054 1.1296873865 1.0172219679 0.90937090954 
0.80816628637 0.71487100155 0.63001982895 1.6743954455 1.7840462375 1.8974821136 2.0119052671 2.1243706857 2.232221744 
2.3334263672 2.426721652 2.5115728246 1.4671972081 1.3575464161 1.24411054 1.1296873865 1.0172219679 0.90937090954 
0.80816628637 0.71487100155 0.63001982895 1.5707963268 1.5707963268 1.5707963268 1.5707963268 1.5707963268 1.5707963268 
1.5707963268 1.5707963268 1.5707963268 1.6743954455 1.7840462375 1.8974821136 2.0119052671 2.1243706857 2.232221744 
2.3334263672 2.426721652 2.5115728246 1.4671972081 1.3575464161 1.24411054 1.1296873865 1.0172219679 0.90937090954 
0.80816628637 0.71487100155 0.63001982895 1.6743954455 1.7840462375 1.8974821136 2.0119052671 2.1243706857 2.232221744 
2.3334263672 2.426721652 2.5115728246 1.4671972081 1.3575464161 1.24411054 1.1296873865 1.0172219679 0.90937090954 
0.80816628637 0.71487100155 0.63001982895 2.6824132222 2.7864913217 2.8992382033 3.0186096618 3.1415926536 3.0186096618 
2.8992382033 2.7864913217 2.6824132222 0.45917943135 0.35510133185 0.2423544503 0.12298299178 0 0.12298299178 
0.2423544503 0.35510133185 0.45917943135 0.22715816343 0.49462574053 0.3129712797 0.77059342779 0.68021497688 0.49462574053 
1.0172219679 1.0172219679 1.0172219679 1.0172219679 1.2156949949 1.271087727 1.3676273807 1.5707963268 2.1243706857 
1.3676273807 1.447813335 1.5707963268 1.7739652728 2.1243706857 2.6469669131 1.4827341049 1.5707963268 1.6937793186 
1.8705049266 2.1243706857 2.4613776767 2.8286213739 1.5707963268 1.6588585487 1.7739652728 1.9258976586 2.1243706857 
2.3709992258 2.6469669131 2.9144344902 0.26576171152 0.33975332011 0.45685295248 0.40226393329 0.51573716537 0.6552068806 
0.45538277901 0.56421707518 0.69407236469 0.84594095064 0.50083690068 0.60464862014 0.72561863695 0.86392567495 1.0172219679 
0.54002084522 0.63877777351 0.75168694275 0.87851444325 1.0172219679 1.1636342747 0.57404952988 0.66790778838 0.77356233629 
0.89058134991 1.0172219679 1.1502619915 1.2852923014 0.60381225391 0.69302191562 0.79216440667 0.90072551443 1.0172219679 
1.139116835 1.2630228569 1.3852070904 0.71487100155 0.80816628637 0.80816628637 0.90937090954 0.90937090954 0.90937090954 
1.0172219679 1.0172219679 1.0172219679 1.0172219679 1.1296873865 1.1296873865 1.1296873865 1.1296873865 1.1296873865 
1.24411054 1.24411054 1.24411054 1.24411054 1.24411054 1.24411054 1.3575464161 1.3575464161 1.3575464161 
1.3575464161 1.3575464161 1.3575464161 1.3575464161 1.4671972081 1.4671972081 1.4671972081 1.4671972081 1.4671972081 
1.4671972081 1.4671972081 1.4671972081 1.6743954455 1.6743954455 1.7840462375 1.6743954455 1.7840462375 1.8974821136 
1.6743954455 1.7840462375 1.8974821136 2.0119052671 1.6743954455 1.7840462375 1.8974821136 2.0119052671 2.1243706857 
1.6743954455 1.7840462375 1.8974821136 2.0119052671 2.1243706857 2.232221744 1.6743954455 1.7840462375 1.8974821136 
2.0119052671 2.1243706857 2.232221744 2.3334263672 1.6743954455 1.7840462375 1.8974821136 2.0119052671 2.1243706857 
2.232221744 2.3334263672 2.426721652 1.7563855631 1.8785697967 1.8563003522 2.0024758186 1.9913306621 1.9779583789 
2.1243706857 2.1243706857 2.1243706857 2.1243706857 2.2408671392 2.2510113037 2.2630782103 2.2776669786 2.295651703 
2.3494282469 2.3680303173 2.3899057108 2.4159740166 2.4475202889 2.486385773 2.448570738 2.4736848652 2.5028148801 
2.5369440334 2.5773755784 2.6258554882 2.6847397011 2.5377803997 2.5675431237 2.6015718084 2.6407557529 2.6862098746 
2.7393287203 2.8018393335 2.8758309421 2.718901062 2.8307207459 2.7598010554 2.95115522 2.8800620952 2.8058000847 
3.0774230472 3.00855263 2.9351694502 2.8576792927 3.0774230472 3.1415926536 3.0719036933 2.9967168029 2.91630358 
2.95115522 3.00855263 3.0719036933 3.1415926536 3.0653475414 2.9825888767 2.8307207459 2.8800620952 2.9351694502 
2.9967168029 3.0653475414 3.1415926536 3.0574329311 2.718901062 2.7598010554 2.8058000847 2.8576792927 2.91630358 
2.9825888767 3.0574329311 3.1415926536 2.718901062 2.7598010554 2.8307207459 2.8058000847 2.8800620952 2.95115522 
2.8576792927 2.9351694502 3.00855263 3.0774230472 2.91630358 2.9967168029 3.0719036933 3.1415926536 3.0774230472 
2.9825888767 3.0653475414 3.1415926536 3.0719036933 3.00855263 2.95115522 3.0574329311 3.1415926536 3.0653475414 