# vtk DataFile Version 5.1
vtk output
ASCII
DATASET POLYDATA
POINTS 1002 float
12.3149 39.9829 17.9498 21.1758 44.1292 14.0959 14.2431 33.2615 9.14927 
21.0143 40.8658 8.2397 20.8347 38.0747 18.7872 22.045 34.1492 12.9617 
12.6059 45.1493 12.9243 14.7139 42.6107 7.82223 26.8747 43.0116 13.6481 
13.203 32.3614 18.156 21.1923 47.9077 8.42896 7.84728 36.9503 13.3017 
13.2365 40.6845 17.9712 14.1732 41.2708 17.895 15.029 41.6539 17.4919 
15.7842 41.8214 16.6856 16.5616 41.8242 15.7112 17.5242 41.8237 14.8947 
18.633 42.0745 14.3807 19.6668 42.673 14.1461 20.4981 43.4372 14.093 
13.0551 39.7602 18.0987 13.9306 39.4492 18.1363 14.9271 39.0934 18.0316 
16.0289 38.7728 17.8615 17.1695 38.5954 17.8635 18.2134 38.6136 18.2259 
19.0588 38.7002 18.7779 19.7222 38.6449 19.1248 20.2909 38.3944 19.0843 
12.224 40.5325 17.6789 12.1885 40.9629 17.2685 12.0988 41.417 16.8425 
11.876 42.0487 16.4692 11.6993 42.7887 16.0466 11.8124 43.4094 15.4499 
12.1264 43.8421 14.7348 12.3748 44.2208 14.0544 12.497 44.6587 13.4664 
11.8519 39.0201 18.0255 11.4398 37.8705 18.0995 11.1501 36.784 18.2882 
11.0353 35.9433 18.6053 11.1206 35.2257 18.8972 11.4154 34.4225 19.0505 
11.8839 33.5996 19.092 12.4117 32.9704 19.0058 12.8679 32.5898 18.6978 
11.3358 39.6414 17.8568 10.3699 39.2993 17.7984 9.51117 38.9066 17.6646 
8.81388 38.4036 17.3808 8.2865 37.8618 17.0017 7.96144 37.4381 16.5376 
7.85324 37.1947 15.8708 7.85742 37.0761 14.9847 7.85302 37.0088 14.0634 
21.4245 43.6213 14.3509 21.6478 43.1301 14.7328 21.8535 42.5822 15.2014 
22.0508 41.8601 15.6218 22.1923 41.0588 15.9942 22.1522 40.4415 16.532 
21.8533 40.0337 17.3193 21.4079 39.5753 18.1101 21.0303 38.8979 18.6184 
20.4294 44.277 13.8978 19.5215 44.4265 13.6671 18.5728 44.5184 13.3623 
17.7027 44.6243 13.1128 16.882 44.9454 13.1529 15.9848 45.4764 13.4588 
14.9865 45.8749 13.6839 14.01 45.8715 13.5923 13.1982 45.5502 13.2762 
21.971 44.4236 14.2398 22.7897 44.7326 14.4553 23.6689 45.0998 14.7587 
24.577 45.4757 15.0562 25.3874 45.6724 15.1896 26.0078 45.5093 15.087 
26.4649 44.983 14.8033 26.7941 44.2627 14.43 26.9489 43.5595 14.0319 
21.4396 44.8081 13.9184 21.7733 45.4069 13.5585 22.107 45.9396 12.9959 
22.3041 46.5167 12.4595 22.3083 47.137 12.1308 22.208 47.635 11.7661 
22.0783 47.9116 11.0316 21.8787 48.0157 10.0291 21.568 48.0075 9.107 
15.1089 33.5464 8.754 15.9494 33.9773 8.42733 16.7161 34.6502 8.23988 
17.4866 35.5488 8.17823 18.302 36.5205 8.1328 19.0478 37.4789 8.0189 
19.6386 38.4537 7.88513 20.1351 39.404 7.8609 20.5972 40.2174 8.00368 
14.9845 33.0303 9.25935 15.9385 32.8629 9.45662 17.1129 32.6776 9.65465 
18.3396 32.4631 9.82403 19.3969 32.3514 10.083 20.2448 32.4451 10.5384 
20.9549 32.7058 11.1296 21.5034 33.0879 11.7501 21.8446 33.5859 12.3663 
14.1153 33.7681 8.89122 13.9973 34.4753 8.77853 13.8626 35.3655 8.79937 
13.746 36.3351 8.78934 13.756 37.3437 8.63298 13.9584 38.4581 8.44639 
14.2668 39.6641 8.3589 14.5258 40.8123 8.28791 14.6646 41.7925 8.10485 
13.8207 32.8491 9.62775 13.4897 32.4753 10.1836 13.3241 32.2636 10.9156 
13.2704 32.2894 11.9922 13.2031 32.434 13.3296 13.0782 32.5271 14.5554 
12.9564 32.5436 15.513 12.9127 32.5128 16.4049 12.9932 32.4356 17.3397 
13.2798 33.3293 9.41641 12.27 33.4789 9.78048 11.3161 33.7127 10.26 
10.5796 34.068 10.917 10.089 34.5429 11.7284 9.61865 35.0261 12.4495 
8.98387 35.4266 12.8318 8.33362 35.8155 12.9436 7.93547 36.3178 13.0522 
21.3451 40.293 8.4732 21.7557 39.7084 8.646 22.056 39.1459 8.89197 
22.0623 38.5745 9.41181 21.8724 37.8994 10.2049 21.7591 37.0912 10.9719 
21.8074 36.239 11.4763 21.9153 35.4371 11.8404 22.0053 34.7278 12.3153 
20.4803 41.0631 7.7749 19.9255 41.2579 7.26826 19.3663 41.4321 6.80993 
18.7165 41.5897 6.44733 17.8534 41.7839 6.18833 16.8597 42.0647 6.10329 
16.024 42.3746 6.29391 15.4892 42.5884 6.74025 15.1157 42.6522 7.29667 
21.5576 41.1093 8.65516 22.0989 41.3891 9.01797 22.7844 41.7611 9.29054 
23.7414 42.2081 9.55107 24.7954 42.5838 9.90108 25.6182 42.7489 10.3964 
26.1408 42.7576 11.0931 26.504 42.7775 11.9787 26.7616 42.8776 12.8894 
21.1365 41.6111 8.17999 21.3326 42.4667 8.03871 21.5221 43.4242 7.86103 
21.6549 44.3746 7.69462 21.7751 45.2156 7.55448 21.9021 45.9852 7.48346 
21.9403 46.7302 7.54132 21.8032 47.3481 7.72836 21.523 47.7293 8.02252 
21.1653 37.3685 18.5635 21.5822 36.7276 18.309 21.9282 36.193 17.9409 
22.0664 35.7528 17.3107 22.0762 35.3929 16.4889 22.1249 35.078 15.7549 
22.2072 34.7577 15.1797 22.2191 34.4536 14.5586 22.1481 34.2415 13.7815 
21.5404 38.293 18.3036 22.4948 38.6284 17.817 23.6225 39.2064 17.7073 
24.6338 39.9185 17.9147 25.3076 40.5295 17.7698 25.737 41.0327 16.8703 
26.1119 41.5955 15.6941 26.4544 42.2055 14.8329 26.7085 42.6987 14.2593 
20.402 37.3057 18.8598 19.8068 36.3554 18.6052 18.8155 35.4032 18.2928 
17.6206 34.6136 18.2483 16.765 33.934 18.4665 16.3547 33.2342 18.7015 
15.8819 32.5918 18.8205 15.0337 32.2144 18.7931 14.037 32.1727 18.57 
22.2175 35.0767 13.1432 22.4844 36.0631 13.3758 22.9475 37.0668 13.554 
23.5546 38.1034 13.601 24.1467 39.1982 13.5819 24.6853 40.2855 13.6005 
25.272 41.2103 13.6529 25.9201 41.8977 13.6877 26.4947 42.4477 13.688 
21.8616 33.3158 13.3927 21.4554 32.5887 13.9309 20.7839 32.1096 14.4414 
19.8628 31.9716 14.8859 18.7027 32.0493 15.3734 17.342 32.0521 15.9795 
15.9629 31.9049 16.6389 14.8065 31.8419 17.2514 13.9342 32.0273 17.7636 
12.4422 45.2547 12.3345 12.4163 45.3892 11.5935 12.515 45.4225 10.6813 
12.6893 45.2331 9.7632 12.9402 44.8626 9.09914 13.2909 44.442 8.72681 
13.694 44.0051 8.455 14.0787 43.531 8.18278 14.4214 43.0526 7.96245 
13.125 45.8973 12.5279 13.831 46.5305 11.9787 14.6499 46.9195 11.3378 
15.4583 47.2027 10.7408 16.2868 47.5959 10.2048 17.2506 48.0014 9.65505 
18.3032 48.1596 9.15067 19.3136 48.0798 8.81171 20.2642 47.9661 8.6075 
12.0366 44.4651 12.9349 11.359 43.9009 12.9722 10.407 43.4636 12.9558 
9.29953 42.9514 12.8256 8.49384 42.2472 12.7366 8.24751 41.4322 12.8582 
8.26832 40.5041 13.0716 8.18277 39.365 13.1811 7.98286 38.1007 13.2131 
14.9776 43.4153 7.13404 15.2189 44.2279 6.34645 15.5627 45.0996 5.64568 
16.1327 46.0518 5.19979 16.9147 46.9053 5.09917 17.7451 47.416 5.42707 
18.5258 47.5981 6.17808 19.3314 47.6757 7.10234 20.2368 47.7844 7.8849 
14.1133 42.0254 8.43894 13.2152 41.4143 8.91192 12.161 40.8553 9.28592 
11.2043 40.2916 9.70929 10.4164 39.6307 10.2642 9.64874 38.9605 10.8783 
8.86678 38.4298 11.455 8.25844 37.9939 12.004 7.95016 37.5102 12.6049 
27.0991 43.5921 13.0314 27.2253 44.3959 12.1584 27.1911 45.468 11.2903 
26.9956 46.5725 10.7078 26.6598 47.3631 10.2869 26.0877 47.7595 9.70633 
25.1298 47.9259 9.05193 23.8325 47.9801 8.65586 22.4453 47.9573 8.53326 
12.2565 32.7363 18.0194 11.0242 32.9788 17.7587 9.30706 32.9556 17.365 
7.37844 32.8502 16.9055 6.10226 33.0217 16.4499 6.06116 33.5513 15.9761 
6.80226 34.2505 15.3946 7.47255 35.039 14.679 7.75715 35.9554 13.9334 
14.0556 40.503 18.1702 15.0065 40.1418 18.1585 15.0018 40.9841 17.9553 
16.0237 39.6768 17.9022 15.9329 40.4461 17.7006 15.8019 41.1577 17.2099 
17.0357 39.3296 17.6427 16.8764 39.8828 17.2729 16.686 40.4981 16.7066 
16.5477 41.1957 16.1357 18.0192 39.2978 17.7828 17.8017 39.6433 17.1191 
17.6378 40.0316 16.3622 17.5242 40.6586 15.7006 17.483 41.2974 15.2386 
18.955 39.4773 18.3521 18.7897 39.7911 17.5039 18.6927 39.9765 16.5141 
18.6759 40.4506 15.7049 18.6802 41.0791 15.1499 18.6721 41.5914 14.7371 
19.7776 39.5302 18.8636 19.818 39.9754 18.0658 19.8776 40.1286 16.9827 
19.9461 40.4733 16.0585 19.9815 41.1035 15.4345 19.953 41.6867 14.9426 
19.8471 42.1455 14.4957 20.4516 39.2911 18.9236 20.7151 39.8854 18.2827 
21.0016 40.1631 17.2955 21.1813 40.4819 16.3791 21.2033 41.1105 15.7702 
21.1156 41.8356 15.3048 20.9648 42.3988 14.8184 20.7568 42.8837 14.384 
12.6141 38.6165 18.023 12.1739 37.3345 17.9928 13.5146 38.2175 17.9443 
11.8888 36.2637 18.1853 13.1139 36.9206 17.8866 14.6186 37.9015 17.8553 
11.9405 35.5546 18.5134 12.9951 35.9343 18.1085 14.4034 36.6741 17.8901 
15.9365 37.6763 17.8565 12.3526 34.9386 18.7341 13.3233 35.3184 18.379 
14.4843 35.7585 18.1336 15.8951 36.5084 18.0161 17.2538 37.5521 18.059 
12.9357 34.1386 18.8362 13.9288 34.6943 18.5028 14.8361 35.1457 18.3062 
15.8928 35.6129 18.2042 17.1711 36.3968 18.2084 18.3066 37.5452 18.4519 
13.4606 33.2638 18.9227 14.4901 33.8089 18.6305 15.2549 34.4376 18.4056 
15.9136 34.9521 18.2973 16.8916 35.4866 18.244 18.1077 36.3711 18.4084 
19.0884 37.5631 18.8248 13.8205 32.5781 18.8891 14.8481 32.876 18.8092 
15.6104 33.4833 18.6215 16.0511 34.1677 18.4518 16.6673 34.7538 18.2891 
17.7683 35.4185 18.264 18.9447 36.3789 18.5565 19.7589 37.481 18.9662 
14.9037 31.8884 18.2728 15.9316 31.8353 17.8314 15.9509 31.9884 18.6435 
17.1513 31.9894 17.1988 16.9803 31.9959 18.2735 16.7059 32.3926 18.7743 
18.3998 32.1474 16.4416 18.0862 32.1901 17.5639 17.6832 32.4021 18.3838 
17.1719 33.0469 18.6205 19.5044 32.243 15.7579 19.1035 32.497 16.6746 
18.7361 32.6843 17.5789 18.3204 33.0898 18.1717 17.8753 33.8205 18.3116 
20.4546 32.4447 15.2492 20.0016 32.9089 15.9408 19.6679 33.2352 16.6796 
19.5083 33.4923 17.446 19.3129 33.9679 17.9648 19.0222 34.6617 18.1689 
21.2588 32.8744 14.7931 20.8771 33.388 15.4501 20.526 33.8596 16.0267 
20.4489 34.1339 16.7497 20.5272 34.4165 17.5169 20.429 34.9124 18.0427 
20.1162 35.5863 18.3406 21.8364 33.4988 14.281 21.6708 33.8902 15.0215 
21.4194 34.3502 15.5891 21.2813 34.6956 16.216 21.352 34.9594 17.0274 
21.4003 35.3197 17.779 21.1801 35.8509 18.2594 20.7724 36.5292 18.5738 
21.904 37.692 18.1517 22.3105 37.1649 17.9321 22.8925 38.1719 17.7751 
22.6082 36.6903 17.4817 23.2353 37.7463 17.5282 24.0155 38.8131 17.6613 
22.758 36.2215 16.7228 23.4183 37.2947 16.9152 24.1908 38.4066 17.1936 
24.9175 39.4428 17.5554 22.8476 35.7949 15.8882 23.4974 36.8052 16.0517 
24.1495 37.988 16.336 24.8616 39.0364 16.7079 25.4408 39.9809 16.9303 
22.8602 35.4772 15.2214 23.4921 36.3954 15.2691 24.0388 37.5807 15.416 
24.6149 38.7422 15.6807 25.2519 39.6858 15.8708 25.7854 40.5864 15.842 
[...]
POINT_DATA 1002
FIELD FieldData 4
_paraPhi 1 1002 double
6.2831853072 3.1415926536 6.2831853072 3.1415926536 4.7123889804 4.7123889804 1.5707963268 1.5707963268 3.6951670125 
5.7296109483 2.5880182947 0.5535743589 6.2831853072 6.2831853072 6.2831853072 6.2831853072 3.1415926536 3.1415926536 
3.1415926536 3.1415926536 3.1415926536 6.1053039672 5.898798347 5.6768734901 5.4599499503 5.2659633393 5.1032165617 
4.9713148346 4.8656852733 4.7809517865 0.17788134 0.38438696014 0.60631181711 0.82323535693 1.0172219679 1.1799687454 
1.3118704726 1.4175000338 1.5022335207 6.1892828907 6.1070320098 6.035312792 5.9728339911 5.9183214791 5.8706119594 
5.8286879411 5.7916808611 5.7588591896 0.093902416448 0.17615329733 0.2478725152 0.31035131605 0.36486382811 0.41257334776 
0.45449736604 0.4915044461 0.52432611754 3.3194739936 3.5259796137 3.7479044707 3.9648280105 4.1588146215 4.321561399 
4.4534631262 4.5590926874 4.6438261743 2.9637113136 2.7572056934 2.5352808365 2.3183572967 2.1243706857 1.9616239082 
1.829722181 1.7240926197 1.6393591329 3.23549507 3.3177459509 3.3894651688 3.4519439696 3.5064564817 3.5541660013 
3.5960900196 3.6330970997 3.6659187711 3.0476902371 2.9654393563 2.8937201384 2.8312413375 2.7767288255 2.7290193058 
2.6870952876 2.6500882075 2.617266536 6.2831853072 6.2831853072 6.2831853072 6.2831853072 3.1415926536 3.1415926536 
3.1415926536 3.1415926536 3.1415926536 6.1053039672 5.898798347 5.6768734901 5.4599499503 5.2659633393 5.1032165617 
4.9713148346 4.8656852733 4.7809517865 0.17788134 0.38438696014 0.60631181711 0.82323535693 1.0172219679 1.1799687454 
1.3118704726 1.4175000338 1.5022335207 6.1892828907 6.1070320098 6.035312792 5.9728339911 5.9183214791 5.8706119594 
5.8286879411 5.7916808611 5.7588591896 0.093902416448 0.17615329733 0.2478725152 0.31035131605 0.36486382811 0.41257334776 
0.45449736604 0.4915044461 0.52432611754 3.3194739936 3.5259796137 3.7479044707 3.9648280105 4.1588146215 4.321561399 
4.4534631262 4.5590926874 4.6438261743 2.9637113136 2.7572056934 2.5352808365 2.3183572967 2.1243706857 1.9616239082 
1.829722181 1.7240926197 1.6393591329 3.23549507 3.3177459509 3.3894651688 3.4519439696 3.5064564817 3.5541660013 
3.5960900196 3.6330970997 3.6659187711 3.0476902371 2.9654393563 2.8937201384 2.8312413375 2.7767288255 2.7290193058 
2.6870952876 2.6500882075 2.617266536 4.7123889804 4.7123889804 4.7123889804 4.7123889804 4.7123889804 4.7123889804 
4.7123889804 4.7123889804 4.7123889804 4.6087898617 4.4991390697 4.3857031936 4.2712800401 4.1588146215 4.0509635631 
3.94975894 3.8564636551 3.7716124825 4.8159880991 4.9256388911 5.0390747672 5.1534979207 5.2659633393 5.3738143976 
5.4750190208 5.5683143056 5.6531654782 4.6087898617 4.4991390697 4.3857031936 4.2712800401 4.1588146215 4.0509635631 
3.94975894 3.8564636551 3.7716124825 4.8159880991 4.9256388911 5.0390747672 5.1534979207 5.2659633393 5.3738143976 
5.4750190208 5.5683143056 5.6531654782 1.5707963268 1.5707963268 1.5707963268 1.5707963268 1.5707963268 1.5707963268 
1.5707963268 1.5707963268 1.5707963268 1.6743954455 1.7840462375 1.8974821136 2.0119052671 2.1243706857 2.232221744 
2.3334263672 2.426721652 2.5115728246 1.4671972081 1.3575464161 1.24411054 1.1296873865 1.0172219679 0.90937090954 
0.80816628637 0.71487100155 0.63001982895 1.6743954455 1.7840462375 1.8974821136 2.0119052671 2.1243706857 2.232221744 
2.3334263672 2.426721652 2.5115728246 1.4671972081 1.3575464161 1.24411054 1.1296873865 1.0172219679 0.90937090954 
0.80816628637 0.71487100155 0.63001982895 3.6007720849 3.4966939854 3.3839471039 3.2645756454 3.1415926536 3.0186096618 
2.8992382033 2.7864913217 2.6824132222 5.8240058758 5.9280839753 6.0408308569 6.1602023154 6.2831853072 0.12298299178 
0.2423544503 0.35510133185 0.45917943135 6.0560271438 5.7885595667 5.9702140275 5.5125918794 5.6029703303 5.7885595667 
5.2659633393 5.2659633393 5.2659633393 5.2659633393 5.0674903122 5.0120975802 4.9155579264 4.7123889804 4.1588146215 
4.9155579264 4.8353719722 4.7123889804 4.5092200343 4.1588146215 3.6362183941 4.8004512023 4.7123889804 4.5894059886 
4.4126803806 4.1588146215 3.8218076305 3.4545639333 4.7123889804 4.6243267584 4.5092200343 4.3572876485 4.1588146215 
3.9121860814 3.6362183941 3.368750817 6.0174235957 5.9434319871 5.8263323547 5.8809213739 5.7674481418 5.6279784266 
5.8278025282 5.718968232 5.5891129425 5.4372443565 5.7823484065 5.678536687 5.5575666702 5.4192596322 5.2659633393 
5.743164462 5.6444075337 5.5314983644 5.4046708639 5.2659633393 5.1195510325 5.7091357773 5.6152775188 5.5096229709 
5.3926039573 5.2659633393 5.1329233157 4.9978930058 5.6793730533 5.5901633916 5.4910209005 5.3824597928 5.2659633393 
5.1440684722 5.0201624502 4.8979782167 5.5683143056 5.4750190208 5.4750190208 5.3738143976 5.3738143976 5.3738143976 
5.2659633393 5.2659633393 5.2659633393 5.2659633393 5.1534979207 5.1534979207 5.1534979207 5.1534979207 5.1534979207 
5.0390747672 5.0390747672 5.0390747672 5.0390747672 5.0390747672 5.0390747672 4.9256388911 4.9256388911 4.9256388911 
4.9256388911 4.9256388911 4.9256388911 4.9256388911 4.8159880991 4.8159880991 4.8159880991 4.8159880991 4.8159880991 
4.8159880991 4.8159880991 4.8159880991 4.6087898617 4.6087898617 4.4991390697 4.6087898617 4.4991390697 4.3857031936 
4.6087898617 4.4991390697 4.3857031936 4.2712800401 4.6087898617 4.4991390697 4.3857031936 4.2712800401 4.1588146215 
4.6087898617 4.4991390697 4.3857031936 4.2712800401 4.1588146215 4.0509635631 4.6087898617 4.4991390697 4.3857031936 
4.2712800401 4.1588146215 4.0509635631 3.94975894 4.6087898617 4.4991390697 4.3857031936 4.2712800401 4.1588146215 
4.0509635631 3.94975894 3.8564636551 4.526799744 4.4046155105 4.426884955 4.2807094886 4.2918546451 4.3052269283 
4.1588146215 4.1588146215 4.1588146215 4.1588146215 4.042318168 4.0321740035 4.0201070968 4.0055183285 3.9875336042 
3.9337570603 3.9151549899 3.8932795963 3.8672112905 3.8356650183 3.7967995342 3.8346145692 3.809500442 3.7803704271 
3.7462412737 3.7058097288 3.657329819 3.5984456061 3.7454049075 3.7156421835 3.6816134988 3.6424295543 3.5969754326 
3.5438565869 3.4813459737 3.4073543651 3.5642842451 3.4524645613 3.5233842518 3.3320300872 3.403123212 3.4773852225 
3.20576226 3.2746326772 3.348015857 3.4255060145 3.0774230472 3.1415926536 3.2112816139 3.2864685043 3.3668817272 
2.95115522 3.00855263 3.0719036933 3.1415926536 3.2178377658 3.3005964304 2.8307207459 2.8800620952 2.9351694502 
2.9967168029 3.0653475414 3.1415926536 3.225752376 2.718901062 2.7598010554 2.8058000847 2.8576792927 2.91630358 
2.9825888767 3.0574329311 3.1415926536 3.5642842451 3.5233842518 3.4524645613 3.4773852225 3.403123212 3.3320300872 
3.4255060145 3.348015857 3.2746326772 3.20576226 3.3668817272 3.2864685043 3.2112816139 3.1415926536 3.0774230472 
3.3005964304 3.2178377658 3.1415926536 3.0719036933 3.00855263 2.95115522 3.225752376 3.1415926536 3.0653475414 
2.9967168029 2.9351694502 2.8800620952 2.8307207459 3.1415926536 3.0574329311 2.9825888767 2.91630358 2.8576792927 
2.8058000847 2.7598010554 2.718901062 4.526799744 4.426884955 4.4046155105 4.3052269283 4.2918546451 4.2807094886 
4.1588146215 4.1588146215 4.1588146215 4.1588146215 3.9875336042 4.0055183285 4.0201070968 4.0321740035 4.042318168 
3.7967995342 3.8356650183 3.8672112905 3.8932795963 3.9151549899 3.9337570603 3.5984456061 3.657329819 3.7058097288 
3.7462412737 3.7803704271 3.809500442 3.8346145692 3.4073543651 3.4813459737 3.5438565869 3.5969754326 3.6424295543 
3.6816134988 3.7156421835 3.7454049075 4.7123889804 4.8004512023 4.6243267584 4.9155579264 4.7123889804 4.5092200343 
5.0674903122 4.8353719722 4.5894059886 4.3572876485 5.2659633393 5.0120975802 4.7123889804 4.4126803806 4.1588146215 
5.5125918794 5.2659633393 4.9155579264 4.5092200343 4.1588146215 3.9121860814 5.7885595667 5.6029703303 5.2659633393 
4.7123889804 4.1588146215 3.8218076305 3.6362183941 6.0560271438 5.9702140275 5.7885595667 5.2659633393 4.1588146215 
3.6362183941 3.4545639333 3.368750817 0.22715816343 0.49462574053 0.3129712797 0.77059342779 0.68021497688 0.49462574053 
1.0172219679 1.0172219679 1.0172219679 1.0172219679 1.2156949949 1.271087727 1.3676273807 1.5707963268 2.1243706857 
1.3676273807 1.447813335 1.5707963268 1.7739652728 2.1243706857 2.6469669131 1.4827341049 1.5707963268 1.6937793186 
1.8705049266 2.1243706857 2.4613776767 2.8286213739 1.5707963268 1.6588585487 1.7739652728 1.9258976586 2.1243706857 
2.3709992258 2.6469669131 2.9144344902 1.7563855631 1.8785697967 1.8563003522 2.0024758186 1.9913306621 1.9779583789 
2.1243706857 2.1243706857 2.1243706857 2.1243706857 2.2408671392 2.2510113037 2.2630782103 2.2776669786 2.295651703 
2.3494282469 2.3680303173 2.3899057108 2.4159740166 2.4475202889 2.486385773 2.448570738 2.4736848652 2.5028148801 
2.5369440334 2.5773755784 2.6258554882 2.6847397011 2.5377803997 2.5675431237 2.6015718084 2.6407557529 2.6862098746 
2.7393287203 2.8018393335 2.8758309421 1.6743954455 1.6743954455 1.7840462375 1.6743954455 1.7840462375 1.8974821136 
1.6743954455 1.7840462375 1.8974821136 2.0119052671 1.6743954455 1.7840462375 1.8974821136 2.0119052671 2.1243706857 
1.6743954455 1.7840462375 1.8974821136 2.0119052671 2.1243706857 2.232221744 1.6743954455 1.7840462375 1.8974821136 
2.0119052671 2.1243706857 2.232221744 2.3334263672 1.6743954455 1.7840462375 1.8974821136 2.0119052671 2.1243706857 
2.232221744 2.3334263672 2.426721652 1.4671972081 1.3575464161 1.4671972081 1.24411054 1.3575464161 1.4671972081 
1.1296873865 1.24411054 1.3575464161 1.4671972081 1.0172219679 1.1296873865 1.24411054 1.3575464161 1.4671972081 
0.90937090954 1.0172219679 1.1296873865 1.24411054 1.3575464161 1.4671972081 0.80816628637 0.90937090954 1.0172219679 
1.1296873865 1.24411054 1.3575464161 1.4671972081 0.71487100155 0.80816628637 0.90937090954 1.0172219679 1.1296873865 
1.24411054 1.3575464161 1.4671972081 0.60381225391 0.57404952988 0.69302191562 0.54002084522 0.66790778838 0.79216440667 
0.50083690068 0.63877777351 0.77356233629 0.90072551443 0.45538277901 0.60464862014 0.75168694275 0.89058134991 1.0172219679 
0.40226393329 0.56421707518 0.72561863695 0.87851444325 1.0172219679 1.139116835 0.33975332011 0.51573716537 0.69407236469 
0.86392567495 1.0172219679 1.1502619915 1.2630228569 0.26576171152 0.45685295248 0.6552068806 0.84594095064 1.0172219679 
1.1636342747 1.2852923014 1.3852070904 0.22715816343 0.3129712797 0.49462574053 0.49462574053 0.68021497688 0.77059342779 
1.0172219679 1.0172219679 1.0172219679 1.0172219679 2.1243706857 1.5707963268 1.3676273807 1.271087727 1.2156949949 
2.6469669131 2.1243706857 1.7739652728 1.5707963268 1.447813335 1.3676273807 2.8286213739 2.4613776767 2.1243706857 
1.8705049266 1.6937793186 1.5707963268 1.4827341049 2.9144344902 2.6469669131 2.3709992258 2.1243706857 1.9258976586 
1.7739652728 1.6588585487 1.5707963268 1.7563855631 1.8563003522 1.8785697967 1.9779583789 1.9913306621 2.0024758186 
2.1243706857 2.1243706857 2.1243706857 2.1243706857 2.295651703 2.2776669786 2.2630782103 2.2510113037 2.2408671392 
2.486385773 2.4475202889 2.4159740166 2.3899057108 2.3680303173 2.3494282469 2.6847397011 2.6258554882 2.5773755784 
2.5369440334 2.5028148801 2.4736848652 2.448570738 2.8758309421 2.8018393335 2.7393287203 2.6862098746 2.6407557529 
2.6015718084 2.5675431237 2.5377803997 5.8604937156 5.901393709 5.9723133995 5.9473927383 6.0216547488 6.0927478736 
5.9992719463 6.0767621038 6.1501452836 6.2190157008 6.0578962336 6.1383094565 6.2134963469 0 0.064169606361 
6.1241815303 6.206940195 6.2831853072 0.069688960264 0.13304002361 0.19043743361 6.1990255847 0 0.07624511221 
0.14487585072 0.20642320337 0.26153055843 0.3108719077 0 0.084159722458 0.15900377685 0.22528907359 0.28391336087 
0.3357925689 0.38179159818 0.42269159155 5.8604937156 5.9723133995 5.901393709 6.0927478736 6.0216547488 5.9473927383 
6.2190157008 6.1501452836 6.0767621038 5.9992719463 0.064169606361 0 6.2134963469 6.1383094565 6.0578962336 
0.19043743361 0.13304002361 0.069688960264 6.2831853072 6.206940195 6.1241815303 0.3108719077 0.26153055843 0.20642320337 
0.14487585072 0.07624511221 6.2831853072 6.1990255847 0.42269159155 0.38179159818 0.3357925689 0.28391336087 0.22528907359 
0.15900377685 0.084159722458 0 5.6793730533 5.7091357773 5.5901633916 5.743164462 5.6152775188 5.4910209005 
5.7823484065 5.6444075337 5.5096229709 5.3824597928 5.8278025282 5.678536687 5.5314983644 5.3926039573 5.2659633393 
5.8809213739 5.718968232 5.5575666702 5.4046708639 5.2659633393 5.1440684722 5.9434319871 5.7674481418 5.5891129425 
5.4192596322 5.2659633393 5.1329233157 5.0201624502 6.0174235957 5.8263323547 5.6279784266 5.4372443565 5.2659633393 
5.1195510325 4.9978930058 4.8979782167 1.3852070904 1.2852923014 1.2630228569 1.1636342747 1.1502619915 1.139116835 
1.0172219679 1.0172219679 1.0172219679 1.0172219679 0.84594095064 0.86392567495 0.87851444325 0.89058134991 0.90072551443 
0.6552068806 0.69407236469 0.72561863695 0.75168694275 0.77356233629 0.79216440667 0.45685295248 0.51573716537 0.56421707518 
0.60464862014 0.63877777351 0.66790778838 0.69302191562 0.26576171152 0.33975332011 0.40226393329 0.45538277901 0.50083690068 
0.54002084522 0.57404952988 0.60381225391 
_paraPhiHalf 1 1002 double
0 3.1415926536 0 3.1415926536 1.5707963268 1.5707963268 1.5707963268 1.5707963268 2.5880182947 
0.5535743589 2.5880182947 0.5535743589 0 0 0 0 3.1415926536 3.1415926536 
3.1415926536 3.1415926536 3.1415926536 0.17788134 0.38438696014 0.60631181711 0.82323535693 1.0172219679 1.1799687454 
1.3118704726 1.4175000338 1.5022335207 0.17788134 0.38438696014 0.60631181711 0.82323535693 1.0172219679 1.1799687454 
1.3118704726 1.4175000338 1.5022335207 0.093902416448 0.17615329733 0.2478725152 0.31035131605 0.36486382811 0.41257334776 
0.45449736604 0.4915044461 0.52432611754 0.093902416448 0.17615329733 0.2478725152 0.31035131605 0.36486382811 0.41257334776 
0.45449736604 0.4915044461 0.52432611754 2.9637113136 2.7572056934 2.5352808365 2.3183572967 2.1243706857 1.9616239082 
1.829722181 1.7240926197 1.6393591329 2.9637113136 2.7572056934 2.5352808365 2.3183572967 2.1243706857 1.9616239082 
1.829722181 1.7240926197 1.6393591329 3.0476902371 2.9654393563 2.8937201384 2.8312413375 2.7767288255 2.7290193058 
2.6870952876 2.6500882075 2.617266536 3.0476902371 2.9654393563 2.8937201384 2.8312413375 2.7767288255 2.7290193058 
2.6870952876 2.6500882075 2.617266536 0 0 0 0 3.1415926536 3.1415926536 
3.1415926536 3.1415926536 3.1415926536 0.17788134 0.38438696014 0.60631181711 0.82323535693 1.0172219679 1.1799687454 
1.3118704726 1.4175000338 1.5022335207 0.17788134 0.38438696014 0.60631181711 0.82323535693 1.0172219679 1.1799687454 
1.3118704726 1.4175000338 1.5022335207 0.093902416448 0.17615329733 0.2478725152 0.31035131605 0.36486382811 0.41257334776 
0.45449736604 0.4915044461 0.52432611754 0.093902416448 0.17615329733 0.2478725152 0.31035131605 0.36486382811 0.41257334776 
0.45449736604 0.4915044461 0.52432611754 2.9637113136 2.7572056934 2.5352808365 2.3183572967 2.1243706857 1.9616239082 
1.829722181 1.7240926197 1.6393591329 2.9637113136 2.7572056934 2.5352808365 2.3183572967 2.1243706857 1.9616239082 
1.829722181 1.7240926197 1.6393591329 3.0476902371 2.9654393563 2.8937201384 2.8312413375 2.7767288255 2.7290193058 
2.6870952876 2.6500882075 2.617266536 3.0476902371 2.9654393563 2.8937201384 2.8312413375 2.7767288255 2.7290193058 
2.6870952876 2.6500882075 2.617266536 1.5707963268 1.5707963268 1.5707963268 1.5707963268 1.5707963268 1.5707963268 
1.5707963268 1.5707963268 1.5707963268 1.6743954455 1.7840462375 1.8974821136 2.0119052671 2.1243706857 2.232221744 
2.3334263672 2.426721652 2.5115728246 1.4671972081 1.3575464161 1.24411054 1.1296873865 1.0172219679 0.90937090954 
0.80816628637 0.71487100155 0.63001982895 1.6743954455 1.7840462375 1.8974821136 2.0119052671 2.1243706857 2.232221744 
2.3334263672 2.426721652 2.5115728246 1.4671972081 1.3575464161 1.24411054 1.1296873865 1.0172219679 0.90937090954 
0.80816628637 0.71487100155 0.63001982895 1.5707963268 1.5707963268 1.5707963268 1.5707963268 1.5707963268 1.5707963268 
1.5707963268 1.5707963268 1.5707963268 1.6743954455 1.7840462375 1.8974821136 2.0119052671 2.1243706857 2.232221744 
2.3334263672 2.426721652 2.5115728246 1.4671972081 1.3575464161 1.24411054 1.1296873865 1.0172219679 0.90937090954 
0.80816628637 0.71487100155 0.63001982895 1.6743954455 1.7840462375 1.8974821136 2.0119052671 2.1243706857 2.232221744 
2.3334263672 2.426721652 2.5115728246 1.4671972081 1.3575464161 1.24411054 1.1296873865 1.0172219679 0.90937090954 
0.80816628637 0.71487100155 0.63001982895 2.6824132222 2.7864913217 2.8992382033 3.0186096618 3.1415926536 3.0186096618 
2.8992382033 2.7864913217 2.6824132222 0.45917943135 0.35510133185 0.2423544503 0.12298299178 0 0.12298299178 
0.2423544503 0.35510133185 0.45917943135 0.22715816343 0.49462574053 0.3129712797 0.77059342779 0.68021497688 0.49462574053 
1.0172219679 1.0172219679 1.0172219679 1.0172219679 1.2156949949 1.271087727 1.3676273807 1.5707963268 2.1243706857 
1.3676273807 1.447813335 1.5707963268 1.7739652728 2.1243706857 2.6469669131 1.4827341049 1.5707963268 1.6937793186 
1.8705049266 2.1243706857 2.4613776767 2.8286213739 1.5707963268 1.6588585487 1.7739652728 1.9258976586 2.1243706857 
2.3709992258 2.6469669131 2.9144344902 0.26576171152 0.33975332011 0.45685295248 0.40226393329 0.51573716537 0.6552068806 
0.45538277901 0.56421707518 0.69407236469 0.84594095064 0.50083690068 0.60464862014 0.72561863695 0.86392567495 1.0172219679 
0.54002084522 0.63877777351 0.75168694275 0.87851444325 1.0172219679 1.1636342747 0.57404952988 0.66790778838 0.77356233629 
0.89058134991 1.0172219679 1.1502619915 1.2852923014 0.60381225391 0.69302191562 0.79216440667 0.90072551443 1.0172219679 
1.139116835 1.2630228569 1.3852070904 0.71487100155 0.80816628637 0.80816628637 0.90937090954 0.90937090954 0.90937090954 
1.0172219679 1.0172219679 1.0172219679 1.0172219679 1.1296873865 1.1296873865 1.1296873865 1.1296873865 1.1296873865 
1.24411054 1.24411054 1.24411054 1.24411054 1.24411054 1.24411054 1.3575464161 1.3575464161 1.3575464161 
1.3575464161 1.3575464161 1.3575464161 1.3575464161 1.4671972081 1.4671972081 1.4671972081 1.4671972081 1.4671972081 
1.4671972081 1.4671972081 1.4671972081 1.6743954455 1.6743954455 1.7840462375 1.6743954455 1.7840462375 1.8974821136 
1.6743954455 1.7840462375 1.8974821136 2.0119052671 1.6743954455 1.7840462375 1.8974821136 2.0119052671 2.1243706857 
1.6743954455 1.7840462375 1.8974821136 2.0119052671 2.1243706857 2.232221744 1.6743954455 1.7840462375 1.8974821136 
2.0119052671 2.1243706857 2.232221744 2.3334263672 1.6743954455 1.7840462375 1.8974821136 2.0119052671 2.1243706857 
2.232221744 2.3334263672 2.426721652 1.7563855631 1.8785697967 1.8563003522 2.0024758186 1.9913306621 1.9779583789 
2.1243706857 2.1243706857 2.1243706857 2.1243706857 2.2408671392 2.2510113037 2.2630782103 2.2776669786 2.295651703 
2.3494282469 2.3680303173 2.3899057108 2.4159740166 2.4475202889 2.486385773 2.448570738 2.4736848652 2.5028148801 
2.5369440334 2.5773755784 2.6258554882 2.6847397011 2.5377803997 2.5675431237 2.6015718084 2.6407557529 2.6862098746 
2.7393287203 2.8018393335 2.8758309421 2.718901062 2.8307207459 2.7598010554 2.95115522 2.8800620952 2.8058000847 
3.0774230472 3.00855263 2.9351694502 2.8576792927 3.0774230472 3.1415926536 3.0719036933 2.9967168029 2.91630358 
2.95115522 3.00855263 3.0719036933 3.1415926536 3.0653475414 2.9825888767 2.8307207459 2.8800620952 2.9351694502 
2.9967168029 3.0653475414 3.1415926536 3.0574329311 2.718901062 2.7598010554 2.8058000847 2.8576792927 2.91630358 
2.9825888767 3.0574329311 3.1415926536 2.718901062 2.7598010554 2.8307207459 2.8058000847 2.8800620952 2.95115522 
2.8576792927 2.9351694502 3.00855263 3.0774230472 2.91630358 2.9967168029 3.0719036933 3.1415926536 3.0774230472 
2.9825888767 3.0653475414 3.1415926536 3.0719036933 3.00855263 2.95115522 3.0574329311 3.1415926536 3.0653475414 