# vtk DataFile Version 5.1
vtk output
ASCII
DATASET POLYDATA
POINTS 100 float
10.1871 33.121 14.027 10.1828 33.1356 14.0363 10.1717 33.1765 14.059 
10.1564 33.2409 14.093 10.1409 33.325 14.135 10.1301 33.4236 14.1807 
10.1295 33.5313 14.2253 10.1443 33.6426 14.2641 10.1791 33.7526 14.2929 
10.2371 33.8574 14.3082 10.3203 33.9545 14.3077 10.4291 34.0427 14.2901 
10.5622 34.1224 14.2557 10.7173 34.1951 14.206 10.891 34.2631 14.1432 
11.0796 34.3292 14.0705 11.2793 34.3962 13.9914 11.487 34.4668 13.9093 
11.7001 34.5427 13.8274 11.9174 34.625 13.7484 12.1386 34.7138 13.6743 
12.3643 34.8084 13.6062 12.5959 34.9077 13.5446 12.8351 35.0099 13.4893 
13.0837 35.1135 13.4397 13.3429 35.2171 13.3948 13.6136 35.3197 13.3535 
13.8954 35.4211 13.3149 14.1872 35.5216 13.278 14.4869 35.6221 13.2423 
14.7921 35.7239 13.2076 15.0995 35.8284 13.1739 15.4063 35.937 13.1412 
15.7098 36.0507 13.11 16.008 36.1698 13.0805 16.2998 36.2942 13.053 
16.585 36.4231 13.0273 16.8645 36.5551 13.0035 17.1396 36.6888 12.9813 
17.4123 36.8222 12.96 17.6845 36.9541 12.9392 17.9581 37.0833 12.9181 
18.234 37.2096 12.896 18.5125 37.3333 12.8723 18.7929 37.4555 12.8464 
19.0735 37.5781 12.8177 19.3519 37.703 12.7857 19.6251 37.8327 12.75 
19.89 37.9692 12.7102 20.1437 38.114 12.666 20.3842 38.268 12.6171 
20.6102 38.4311 12.5632 20.8219 38.6024 12.5045 21.0206 38.78 12.4411 
21.2089 38.9614 12.3733 21.3904 39.1438 12.302 21.5694 39.3241 12.2283 
21.7504 39.4998 12.1535 21.9375 39.6686 12.0794 22.1345 39.8291 12.0079 
22.3437 39.981 11.941 22.5663 40.1244 11.8804 22.802 40.2607 11.8276 
23.0493 40.3915 11.7839 23.3052 40.5188 11.7496 23.5659 40.6448 11.7246 
23.8273 40.7712 11.7081 24.0851 40.8993 11.6988 24.3353 41.0301 11.6946 
24.575 41.1635 11.6935 24.8018 41.2991 11.6932 25.015 41.4362 11.6916 
25.2147 41.5734 11.6872 25.4022 41.7098 11.6787 25.5796 41.8444 11.6656 
25.7496 41.9765 11.6482 25.9149 42.106 11.6271 26.0781 42.2333 11.6037 
26.2413 42.359 11.5791 26.4057 42.484 11.5549 26.5718 42.6092 11.5319 
26.7388 42.7354 11.5109 26.9054 42.8629 11.4918 27.0694 42.9914 11.4739 
27.2281 43.1201 11.4557 27.3785 43.2474 11.4356 27.5179 43.3715 11.4113 
27.6439 43.49 11.3811 27.7544 43.6005 11.3431 27.8483 43.7008 11.2965 
27.9254 43.7892 11.2411 27.9861 43.8645 11.1779 28.0316 43.9263 11.109 
28.064 43.975 11.0372 28.0854 44.0116 10.9662 28.0983 44.0377 10.9001 
28.1054 44.055 10.8429 28.1086 44.0653 10.7986 28.1098 44.0701 10.7699 
28.1099 44.0705 10.7589 
LINES 2 100
OFFSETS vtktypeint64
0 100 
CONNECTIVITY vtktypeint64
0 1 2 3 4 5 6 7 8 
9 10 11 12 13 14 15 16 17 
18 19 20 21 22 23 24 25 26 
27 28 29 30 31 32 33 34 35 
36 37 38 39 40 41 42 43 44 
45 46 47 48 49 50 51 52 53 
54 55 56 57 58 59 60 61 62 
63 64 65 66 67 68 69 70 71 
72 73 74 75 76 77 78 79 80 
81 82 83 84 85 86 87 88 89 
90 91 92 93 94 95 96 97 98 
99 
POINT_DATA 100
FIELD FieldData 3
_theta 1 100 double
0 0.031733259127 0.063466518254 0.095199777382 0.12693303651 0.15866629564 0.19039955476 0.22213281389 0.25386607302 
0.28559933214 0.31733259127 0.3490658504 0.38079910953 0.41253236865 0.44426562778 0.47599888691 0.50773214603 0.53946540516 
0.57119866429 0.60293192342 0.63466518254 0.66639844167 0.6981317008 0.72986495992 0.76159821905 0.79333147818 0.82506473731 
0.85679799643 0.88853125556 0.92026451469 0.95199777382 0.98373103294 1.0154642921 1.0471975512 1.0789308103 1.1106640695 
1.1423973286 1.1741305877 1.2058638468 1.237597106 1.2693303651 1.3010636242 1.3327968833 1.3645301425 1.3962634016 
1.4279966607 1.4597299198 1.491463179 1.5231964381 1.5549296972 1.5866629564 1.6183962155 1.6501294746 1.6818627337 
1.7135959929 1.745329252 1.7770625111 1.8087957702 1.8405290294 1.8722622885 1.9039955476 1.9357288068 1.9674620659 
1.999195325 2.0309285841 2.0626618433 2.0943951024 2.1261283615 2.1578616206 2.1895948798 2.2213281389 2.253061398 
2.2847946572 2.3165279163 2.3482611754 2.3799944345 2.4117276937 2.4434609528 2.4751942119 2.506927471 2.5386607302 
2.5703939893 2.6021272484 2.6338605076 2.6655937667 2.6973270258 2.7290602849 2.7607935441 2.7925268032 2.8242600623 
2.8559933214 2.8877265806 2.9194598397 2.9511930988 2.982926358 3.0146596171 3.0463928762 3.0781261353 3.1098593945 
3.1415926536 
_radius 1 100 double
8.2729421693e-14 0.27348016535 0.54666017878 0.81895888033 1.089423789 1.3566114237 1.6185398094 1.8727360783 2.1163914665 
2.3466178476 2.5607776715 2.7568386761 2.9336924812 3.091376583 3.2311530372 3.3554212819 3.4674718457 3.5711158996 
3.6702467082 3.7683984041 3.868363497 3.9719154852 4.0796626267 4.1910399351 4.304432944 4.417418353 4.5270993683 
4.6305035801 4.7249989595 4.8086738275 4.8806251586 4.9411090886 4.9915269098 5.0342454232 5.0722772512 5.1088692426 
5.1470608403 5.189276971 5.2370123702 5.29064906 5.3494286653 5.411578292 5.4745653354 5.5354375092 5.5911946086 
5.6391394987 5.6771645669 5.7039422264 5.7190017454 5.7226891922 5.7160221552 5.7004648087 5.6776597572 5.6491586581 
5.616192468 5.579514549 5.5393378252 5.4953735 5.446965633 5.3933035317 5.3336816004 5.2677640017 5.1958023077 
5.1187542311 5.0382655012 4.9565041052 4.8758686405 4.7986201881 4.7265030149 4.6604218455 4.6002336568 4.5446917293 
4.4915517269 4.437819498 4.3800963814 4.3149669996 4.2393777538 4.150966049 4.0483127634 3.9310981042 3.8001431889 
3.6573205454 3.505322215 3.3472887646 3.1863271668 3.0249769865 2.8647149114 2.7056043897 2.5461844986 2.3836429369 
2.2142456559 2.0339312191 1.8389482414 1.6264234462 1.3947816671 1.1439796522 0.87555066381 0.5924812725 0.29895484367 
7.5451550923e-14 
_area 1 100 double
0 0.21741105151 0.87103529482 1.9629452994 3.4904190801 5.4391942606 7.7778814507 10.455286595 13.401300405 
16.531200482 19.752814728 22.975665678 26.120746118 29.129210578 31.96839863 34.634255406 37.149957789 39.561032248 
41.927485471 44.31365991 46.776840348 49.356195826 52.06439985 54.884513581 57.773177669 60.668398359 63.4990171 
66.194114368 68.692029788 70.948828914 72.94528334 74.690931258 76.224679391 77.614575052 78.93933781 80.247326776 
81.607090412 83.082501866 84.704728482 86.473029943 88.364537235 90.338969615 92.342001571 94.308300794 96.164306169 
97.831904892 99.234479989 100.30532824 100.99635839 101.28448915 101.17447426 100.6975506 99.904829214 98.85554241 
97.603270488 96.184314373 94.610943187 92.871217063 90.936375206 88.774887322 86.369355901 83.730735184 80.905758659 
77.975943085 75.04627647 72.223746348 69.59656117 67.224080629 65.134105444 63.32358855 61.761395094 60.39150957 
59.136549205 57.903333689 56.592074578 55.10849309 53.375964724 51.344692285 48.996794546 46.347880828 43.445511122 
40.363771214 37.193125417 34.026328469 30.943160046 27.997688145 25.21132249 22.573495299 20.049905446 17.596300012 
15.174315769 12.765537667 10.380673297 8.0621034681 5.8796247349 3.9207261292 2.2779366521 1.0362056628 0.26268936415 
1.1368683772e-13 
