# vtk DataFile Version 5.1
vtk output
ASCII
DATASET POLYDATA
POINTS 1002 float
-4.90662 -0.0157594 -3.48399 5.0272 -0.233981 -3.7047 -4.41494 -0.0546984 3.18894 
4.68075 0.307707 4.57849 -0.0191268 5.66381 -2.81052 -0.081436 5.44203 2.40061 
-0.12931 -5.11007 -2.29898 -0.178847 -5.74659 3.01948 7.83927 3.38724 -0.0768239 
-8.7591 3.99418 -0.540583 9.96873 -4.1644 -1.70274 -8.71023 -3.87146 -0.714858 
-4.05509 0.0504432 -3.38586 -3.16275 0.100232 -3.20219 -2.20758 0.0971325 -3.04396 
-1.15078 0.0488697 -2.99092 -0.0254016 0.0131583 -3.04025 1.09894 0.0110944 -3.20651 
2.19979 -0.00504218 -3.48933 3.25487 -0.0710283 -3.74463 4.20714 -0.162544 -3.81235 
-4.46859 0.475929 -3.71226 -4.00946 1.12232 -3.64358 -3.56954 1.82544 -3.19277 
-3.13355 2.44958 -2.71248 -2.64173 3.03094 -2.65952 -2.08171 3.64638 -3.00604 
-1.5078 4.20616 -3.32909 -0.963326 4.66128 -3.36177 -0.461131 5.12852 -3.1439 
-4.75548 -0.41664 -3.17117 -4.48359 -0.903724 -3.01916 -4.1114 -1.5001 -3.21522 
-3.6673 -2.13717 -3.6102 -3.13489 -2.75361 -3.81896 -2.51935 -3.36365 -3.70027 
-1.89507 -3.94873 -3.42498 -1.3029 -4.43044 -3.10358 -0.715457 -4.79497 -2.71747 
-5.47566 0.196833 -3.63648 -6.04187 0.479836 -3.63473 -6.59792 0.85397 -3.53944 
-7.10599 1.26478 -3.45784 -7.52953 1.68471 -3.30659 -7.90068 2.20408 -2.89375 
-8.26798 2.86162 -2.25558 -8.59229 3.48903 -1.60819 -8.77531 3.87954 -1.0497 
-5.72185 -0.321263 -3.30623 -6.58119 -0.746518 -3.2059 -7.38199 -1.4959 -3.3543 
-8.07101 -2.51833 -3.67243 -8.64452 -3.34302 -3.79841 -9.06776 -3.62636 -3.46361 
-9.27494 -3.61391 -2.76555 -9.24755 -3.67429 -1.97908 -9.0335 -3.81313 -1.28385 
4.74568 0.235213 -3.66566 4.3564 0.780462 -3.55658 3.85536 1.42849 -3.42929 
3.26246 2.12161 -3.24998 2.64948 2.78703 -3.00007 2.1026 3.45416 -2.85361 
1.61405 4.15016 -2.95799 1.09873 4.7833 -3.13769 0.532275 5.27504 -3.10868 
4.74004 -0.677741 -3.74305 4.36306 -1.18634 -3.69472 3.91085 -1.73398 -3.55611 
3.37618 -2.26306 -3.27259 2.77414 -2.75549 -2.82249 2.18142 -3.23608 -2.39454 
1.63922 -3.71478 -2.23678 1.0887 -4.19113 -2.31946 0.483266 -4.6656 -2.39365 
5.63882 0.0277063 -3.53141 6.20329 0.366077 -3.33087 6.71981 0.75779 -3.17986 
7.26621 1.18623 -3.10907 7.81827 1.67819 -2.98963 8.16165 2.22239 -2.6327 
8.18464 2.71481 -2.01995 8.05118 3.06369 -1.30554 7.93749 3.27075 -0.637484 
5.66506 -0.557877 -3.55431 6.39011 -0.912666 -3.35649 7.21239 -1.28897 -3.17119 
8.04904 -1.66645 -3.03248 8.81715 -2.04748 -2.98383 9.51062 -2.4928 -3.01715 
10.077 -3.04794 -2.97492 10.3682 -3.61876 -2.70087 10.3068 -4.02223 -2.22941 
-3.49408 -0.0282421 3.21669 -2.55837 -0.0286966 3.35962 -1.66854 -0.0559436 3.68924 
-0.81458 -0.104892 4.19275 0.0272781 -0.150064 4.7642 0.872323 -0.141329 5.20458 
1.77338 -0.0570848 5.32235 2.76142 0.0681138 5.1321 3.76633 0.194017 4.83367 
-4.00563 0.421002 3.11981 -3.58308 0.957344 3.07775 -3.21661 1.57011 3.14588 
-2.92671 2.22624 3.34026 -2.63316 2.85852 3.51058 -2.21629 3.46065 3.44937 
-1.65991 4.06981 3.14967 -1.06852 4.6467 2.80686 -0.537516 5.10732 2.56286 
-4.22512 -0.523537 3.26333 -3.98469 -1.0566 3.3646 -3.71233 -1.62309 3.55542 
-3.41268 -2.23234 3.91521 -3.02468 -2.89239 4.31152 -2.48171 -3.51137 4.38991 
-1.8347 -4.0156 4.02982 -1.20981 -4.50142 3.53288 -0.665468 -5.08883 3.19662 
-5.07545 0.184548 3.15154 -5.71084 0.450903 3.05554 -6.25849 0.802203 2.79337 
-6.71962 1.24096 2.32506 -7.14806 1.70021 1.72385 -7.60422 2.14602 1.13252 
-8.10462 2.61727 0.653941 -8.55864 3.12854 0.265947 -8.80537 3.61594 -0.121174 
-5.21538 -0.381923 3.20386 -6.00077 -0.781392 3.15743 -6.7074 -1.25878 3.02373 
-7.309 -1.7324 2.77411 -7.80845 -2.10326 2.37372 -8.21308 -2.40697 1.81935 
-8.50488 -2.76008 1.17264 -8.66215 -3.17435 0.516098 -8.7117 -3.56465 -0.113827 
4.52264 0.856147 4.59733 4.26556 1.42003 4.50875 3.85505 1.92671 4.27393 
3.31559 2.39582 3.97618 2.7735 2.92716 3.78027 2.29284 3.52946 3.66029 
1.78441 4.09156 3.40326 1.17641 4.55838 2.97568 0.52563 4.98866 2.58797 
4.26442 -0.264873 4.69658 3.82179 -0.847655 4.85874 3.32885 -1.57111 4.94753 
2.72561 -2.48465 4.88428 2.02283 -3.37874 4.77733 1.34375 -4.07117 4.7148 
0.806135 -4.65778 4.54004 0.417874 -5.20668 4.10843 0.111114 -5.59072 3.53508 
5.4715 0.784878 4.42648 6.26339 1.31139 4.25725 6.95069 1.71203 3.86605 
7.42993 1.87888 3.18745 7.72308 1.99328 2.44304 7.96572 2.28589 1.86298 
8.1898 2.67779 1.41408 8.26885 2.97629 0.955914 8.12663 3.18134 0.447618 
5.27519 0.0244476 4.34323 5.84326 -0.33663 3.92353 6.42387 -0.793044 3.24123 
7.09158 -1.31022 2.31753 7.82941 -1.78999 1.34523 8.52998 -2.18751 0.541079 
9.13766 -2.60424 -0.079643 9.63487 -3.13842 -0.643229 9.94028 -3.71442 -1.20201 
-0.0896794 6.26961 -2.25449 -0.135829 6.89454 -1.60143 -0.121356 7.38916 -0.987978 
-0.0624141 7.64739 -0.420039 -0.0388141 7.67278 0.224113 -0.0973899 7.49148 0.963742 
-0.18182 7.09745 1.6262 -0.209859 6.5428 2.05246 -0.164599 5.95719 2.26446 
0.716169 5.94639 -2.66327 1.43029 5.99519 -2.36282 2.15179 5.71858 -1.87474 
3.00874 5.41422 -1.41648 4.00367 5.41753 -1.25768 4.94456 5.51192 -1.3132 
5.72733 5.23588 -1.24087 6.44364 4.58799 -0.908022 7.16316 3.9082 -0.46508 
-0.800705 5.70394 -2.61004 -1.55917 5.86774 -2.4301 -2.31165 6.17467 -2.25617 
-3.18752 6.33452 -1.91295 -4.22692 6.0281 -1.41225 -5.31635 5.41004 -1.06361 
-6.37829 4.91979 -0.979667 -7.37874 4.66489 -0.924563 -8.20627 4.41169 -0.750007 
0.739665 5.43871 2.32231 1.64687 5.5109 2.23538 2.62509 5.72567 2.05963 
3.57421 5.91578 1.76357 4.35699 5.77764 1.39461 5.00572 5.26385 1.01728 
5.70515 4.64527 0.683303 6.50055 4.14093 0.419119 7.2491 3.74786 0.187981 
-0.954126 5.74065 2.48838 -1.87866 6.01659 2.66767 -2.79081 6.21482 2.68168 
-3.63855 6.25836 2.32653 -4.48548 5.99368 1.76109 -5.47049 5.38618 1.27825 
-6.57377 4.73511 0.878215 -7.57359 4.3614 0.41291 -8.29598 4.20804 -0.0987886 
-0.117503 -5.5999 -1.89762 -0.0670343 -6.15679 -1.4364 0.00349787 -6.67655 -0.91584 
0.0849415 -6.98686 -0.333558 0.170169 -7.01776 0.284986 0.216547 -6.88836 0.926702 
0.177747 -6.72502 1.57871 0.0675642 -6.507 2.16889 -0.061914 -6.17305 2.63669 
0.821532 -5.17775 -1.97346 1.75492 -5.27949 -1.65603 2.68509 -5.34912 -1.49041 
3.73287 -5.28658 -1.52374 4.93122 -5.17558 -1.63243 6.13793 -5.2017 -1.70972 
7.248 -5.28894 -1.78806 8.28318 -5.1612 -1.8685 9.22459 -4.73478 -1.85541 
-1.11771 -5.28358 -2.27512 -2.09365 -5.26135 -2.10842 -2.94048 -4.99886 -1.93118 
-3.79329 -4.73743 -1.82421 -4.92414 -4.77929 -1.74321 -6.24819 -5.01972 -1.66202 
-7.32503 -5.0609 -1.58643 -7.95725 -4.76338 -1.43531 -8.34642 -4.31003 -1.12845 
0.510129 -6.3554 3.12266 1.30885 -6.76038 3.00501 2.23181 -6.70051 2.53254 
3.26217 -6.24187 1.87578 4.42342 -5.75169 1.27238 5.71573 -5.43757 0.6779 
6.99813 -5.18736 -0.0200007 8.12547 -4.88176 -0.715633 9.10084 -4.53241 -1.27345 
-0.83729 -5.41624 2.7043 -1.67539 -5.29186 2.5398 -2.65112 -5.46995 2.44591 
-3.6358 -5.5679 2.16603 -4.57237 -5.16848 1.59455 -5.51536 -4.51447 0.922909 
-6.465 -4.14653 0.35272 -7.33446 -4.10363 -0.0891564 -8.07785 -4.06263 -0.437363 
8.54447 2.85895 -0.102507 9.27888 2.23854 -0.22781 10.1265 1.58506 -0.422131 
11.0619 0.966987 -0.700383 11.8265 0.222797 -1.09686 12.166 -0.820854 -1.51032 
12.0574 -1.95693 -1.76221 11.5855 -2.87224 -1.82195 10.8416 -3.5585 -1.78535 
-9.23564 3.31574 -0.650615 -9.74964 2.35675 -0.708546 -10.2799 1.41871 -0.679926 
-10.6679 0.697878 -0.572393 -10.8216 -0.0559544 -0.446031 -10.7821 -1.08226 -0.368231 
-10.529 -2.13106 -0.369625 -10.0157 -2.89878 -0.449956 -9.35041 -3.43053 -0.583562 
-3.63286 0.600252 -3.54245 -3.2023 1.22809 -3.38438 -2.74239 0.666373 -3.29083 
-2.7651 1.8183 -2.97248 -2.28764 1.21959 -3.16314 -1.71491 0.643283 -3.0921 
-2.27445 2.383 -2.71716 -1.76822 1.74186 -2.97279 -1.1689 1.16318 -3.06337 
-0.559542 0.595138 -2.98458 -1.69339 3.04474 -2.8579 -1.15666 2.37607 -2.96632 
-0.55904 1.73961 -3.08823 0.0293443 1.15342 -3.00994 0.585418 0.577601 -2.97706 
-1.06137 3.72978 -3.17179 -0.490995 3.13184 -3.11329 0.0943838 2.45512 -3.16527 
0.622091 1.78349 -3.12282 1.13565 1.14367 -3.02841 1.67425 0.546274 -3.15483 
-0.45231 4.27986 -3.35406 0.139847 3.79031 -3.23177 0.712376 3.15474 -3.16352 
1.20583 2.44518 -3.16588 1.68273 1.72855 -3.15908 2.21511 1.05103 -3.22848 
2.76865 0.454539 -3.46851 0.0871155 4.75748 -3.31814 0.674949 4.29592 -3.24506 
1.222 3.69015 -3.07718 1.71269 3.00173 -3.04363 2.21322 2.29395 -3.16075 
2.76752 1.57853 -3.30908 3.33246 0.906861 -3.4801 3.82871 0.333165 -3.67968 
-4.98556 0.782237 -3.79595 -5.54053 1.1852 -3.70935 -4.48119 1.55736 -3.56338 
-6.10039 1.6514 -3.57305 -5.0163 2.04624 -3.40959 -3.99291 2.35312 -3.02276 
-6.56608 2.11712 -3.42407 -5.55035 2.50136 -3.27561 -4.45469 2.84022 -2.96788 
-3.47557 3.01574 -2.70131 -6.92407 2.63176 -3.09581 -5.99065 2.93337 -3.031 
-4.91648 3.23576 -2.90715 -3.8043 3.50897 -2.87223 -2.89172 3.62676 -2.90761 
-7.29243 3.27081 -2.52261 -6.38102 3.46874 -2.53782 -5.37045 3.66939 -2.55197 
-4.18369 3.98605 -2.81098 -3.11715 4.20948 -3.12932 -2.30211 4.23478 -3.28323 
-7.71058 3.9049 -1.88062 -6.79762 4.06918 -1.9395 -5.82563 4.21492 -1.95065 
-4.65527 4.55991 -2.28431 -3.45484 4.87783 -2.86015 -2.52135 4.89178 -3.24427 
-1.77092 4.74208 -3.34806 -8.05657 4.3053 -1.29938 -7.1695 4.50441 -1.41153 
-6.19351 4.68713 -1.40142 -5.09073 5.10668 -1.5954 -3.89259 5.57168 -2.14622 
-2.83982 5.66402 -2.69437 -2.03053 5.41562 -2.95154 -1.27931 5.18925 -3.0506 
-7.60544 4.57055 -0.309384 -6.65708 4.83783 0.16046 -6.57342 4.9131 -0.504942 
-5.52102 5.45616 0.600893 -5.47147 5.42394 -0.0892881 -5.42611 5.43947 -0.626255 
-4.53308 6.23082 1.09741 -4.43964 6.1774 0.360093 -4.3698 6.12257 -0.290314 
-4.35534 6.15516 -0.830811 -3.77839 6.7327 1.74481 -3.72575 6.81087 0.957425 
-3.55602 6.71707 0.141412 -3.44474 6.72875 -0.560397 -3.36532 6.69057 -1.206 
-3.00908 6.83274 2.32597 -3.07954 7.10944 1.62891 -2.92062 7.08766 0.708995 
-2.68685 7.05793 -0.165239 -2.54481 7.03816 -0.874991 -2.44851 6.75912 -1.54357 
-2.07703 6.6664 2.53057 -2.20021 7.12842 2.06394 -2.12382 7.30676 1.23055 
[...]
POINT_DATA 1002
FIELD FieldData 4
_paraPhi 1 1002 double
6.2831853072 3.1415926536 6.2831853072 3.1415926536 4.7123889804 4.7123889804 1.5707963268 1.5707963268 3.6951670125 
5.7296109483 2.5880182947 0.5535743589 6.2831853072 6.2831853072 6.2831853072 6.2831853072 3.1415926536 3.1415926536 
3.1415926536 3.1415926536 3.1415926536 6.1053039672 5.898798347 5.6768734901 5.4599499503 5.2659633393 5.1032165617 
4.9713148346 4.8656852733 4.7809517865 0.17788134 0.38438696014 0.60631181711 0.82323535693 1.0172219679 1.1799687454 
1.3118704726 1.4175000338 1.5022335207 6.1892828907 6.1070320098 6.035312792 5.9728339911 5.9183214791 5.8706119594 
5.8286879411 5.7916808611 5.7588591896 0.093902416448 0.17615329733 0.2478725152 0.31035131605 0.36486382811 0.41257334776 
0.45449736604 0.4915044461 0.52432611754 3.3194739936 3.5259796137 3.7479044707 3.9648280105 4.1588146215 4.321561399 
4.4534631262 4.5590926874 4.6438261743 2.9637113136 2.7572056934 2.5352808365 2.3183572967 2.1243706857 1.9616239082 
1.829722181 1.7240926197 1.6393591329 3.23549507 3.3177459509 3.3894651688 3.4519439696 3.5064564817 3.5541660013 
3.5960900196 3.6330970997 3.6659187711 3.0476902371 2.9654393563 2.8937201384 2.8312413375 2.7767288255 2.7290193058 
2.6870952876 2.6500882075 2.617266536 6.2831853072 6.2831853072 6.2831853072 6.2831853072 3.1415926536 3.1415926536 
3.1415926536 3.1415926536 3.1415926536 6.1053039672 5.898798347 5.6768734901 5.4599499503 5.2659633393 5.1032165617 
4.9713148346 4.8656852733 4.7809517865 0.17788134 0.38438696014 0.60631181711 0.82323535693 1.0172219679 1.1799687454 
1.3118704726 1.4175000338 1.5022335207 6.1892828907 6.1070320098 6.035312792 5.9728339911 5.9183214791 5.8706119594 
5.8286879411 5.7916808611 5.7588591896 0.093902416448 0.17615329733 0.2478725152 0.31035131605 0.36486382811 0.41257334776 
0.45449736604 0.4915044461 0.52432611754 3.3194739936 3.5259796137 3.7479044707 3.9648280105 4.1588146215 4.321561399 
4.4534631262 4.5590926874 4.6438261743 2.9637113136 2.7572056934 2.5352808365 2.3183572967 2.1243706857 1.9616239082 
1.829722181 1.7240926197 1.6393591329 3.23549507 3.3177459509 3.3894651688 3.4519439696 3.5064564817 3.5541660013 
3.5960900196 3.6330970997 3.6659187711 3.0476902371 2.9654393563 2.8937201384 2.8312413375 2.7767288255 2.7290193058 
2.6870952876 2.6500882075 2.617266536 4.7123889804 4.7123889804 4.7123889804 4.7123889804 4.7123889804 4.7123889804 
4.7123889804 4.7123889804 4.7123889804 4.6087898617 4.4991390697 4.3857031936 4.2712800401 4.1588146215 4.0509635631 
3.94975894 3.8564636551 3.7716124825 4.8159880991 4.9256388911 5.0390747672 5.1534979207 5.2659633393 5.3738143976 
5.4750190208 5.5683143056 5.6531654782 4.6087898617 4.4991390697 4.3857031936 4.2712800401 4.1588146215 4.0509635631 
3.94975894 3.8564636551 3.7716124825 4.8159880991 4.9256388911 5.0390747672 5.1534979207 5.2659633393 5.3738143976 
5.4750190208 5.5683143056 5.6531654782 1.5707963268 1.5707963268 1.5707963268 1.5707963268 1.5707963268 1.5707963268 
1.5707963268 1.5707963268 1.5707963268 1.6743954455 1.7840462375 1.8974821136 2.0119052671 2.1243706857 2.232221744 
2.3334263672 2.426721652 2.5115728246 1.4671972081 1.3575464161 1.24411054 1.1296873865 1.0172219679 0.90937090954 
0.80816628637 0.71487100155 0.63001982895 1.6743954455 1.7840462375 1.8974821136 2.0119052671 2.1243706857 2.232221744 
2.3334263672 2.426721652 2.5115728246 1.4671972081 1.3575464161 1.24411054 1.1296873865 1.0172219679 0.90937090954 
0.80816628637 0.71487100155 0.63001982895 3.6007720849 3.4966939854 3.3839471039 3.2645756454 3.1415926536 3.0186096618 
2.8992382033 2.7864913217 2.6824132222 5.8240058758 5.9280839753 6.0408308569 6.1602023154 6.2831853072 0.12298299178 
0.2423544503 0.35510133185 0.45917943135 6.0560271438 5.7885595667 5.9702140275 5.5125918794 5.6029703303 5.7885595667 
5.2659633393 5.2659633393 5.2659633393 5.2659633393 5.0674903122 5.0120975802 4.9155579264 4.7123889804 4.1588146215 
4.9155579264 4.8353719722 4.7123889804 4.5092200343 4.1588146215 3.6362183941 4.8004512023 4.7123889804 4.5894059886 
4.4126803806 4.1588146215 3.8218076305 3.4545639333 4.7123889804 4.6243267584 4.5092200343 4.3572876485 4.1588146215 
3.9121860814 3.6362183941 3.368750817 6.0174235957 5.9434319871 5.8263323547 5.8809213739 5.7674481418 5.6279784266 
5.8278025282 5.718968232 5.5891129425 5.4372443565 5.7823484065 5.678536687 5.5575666702 5.4192596322 5.2659633393 
5.743164462 5.6444075337 5.5314983644 5.4046708639 5.2659633393 5.1195510325 5.7091357773 5.6152775188 5.5096229709 
5.3926039573 5.2659633393 5.1329233157 4.9978930058 5.6793730533 5.5901633916 5.4910209005 5.3824597928 5.2659633393 
5.1440684722 5.0201624502 4.8979782167 5.5683143056 5.4750190208 5.4750190208 5.3738143976 5.3738143976 5.3738143976 
5.2659633393 5.2659633393 5.2659633393 5.2659633393 5.1534979207 5.1534979207 5.1534979207 5.1534979207 5.1534979207 
5.0390747672 5.0390747672 5.0390747672 5.0390747672 5.0390747672 5.0390747672 4.9256388911 4.9256388911 4.9256388911 
4.9256388911 4.9256388911 4.9256388911 4.9256388911 4.8159880991 4.8159880991 4.8159880991 4.8159880991 4.8159880991 
4.8159880991 4.8159880991 4.8159880991 4.6087898617 4.6087898617 4.4991390697 4.6087898617 4.4991390697 4.3857031936 
4.6087898617 4.4991390697 4.3857031936 4.2712800401 4.6087898617 4.4991390697 4.3857031936 4.2712800401 4.1588146215 
4.6087898617 4.4991390697 4.3857031936 4.2712800401 4.1588146215 4.0509635631 4.6087898617 4.4991390697 4.3857031936 
4.2712800401 4.1588146215 4.0509635631 3.94975894 4.6087898617 4.4991390697 4.3857031936 4.2712800401 4.1588146215 
4.0509635631 3.94975894 3.8564636551 4.526799744 4.4046155105 4.426884955 4.2807094886 4.2918546451 4.3052269283 
4.1588146215 4.1588146215 4.1588146215 4.1588146215 4.042318168 4.0321740035 4.0201070968 4.0055183285 3.9875336042 
3.9337570603 3.9151549899 3.8932795963 3.8672112905 3.8356650183 3.7967995342 3.8346145692 3.809500442 3.7803704271 
3.7462412737 3.7058097288 3.657329819 3.5984456061 3.7454049075 3.7156421835 3.6816134988 3.6424295543 3.5969754326 
3.5438565869 3.4813459737 3.4073543651 3.5642842451 3.4524645613 3.5233842518 3.3320300872 3.403123212 3.4773852225 
3.20576226 3.2746326772 3.348015857 3.4255060145 3.0774230472 3.1415926536 3.2112816139 3.2864685043 3.3668817272 
2.95115522 3.00855263 3.0719036933 3.1415926536 3.2178377658 3.3005964304 2.8307207459 2.8800620952 2.9351694502 
2.9967168029 3.0653475414 3.1415926536 3.225752376 2.718901062 2.7598010554 2.8058000847 2.8576792927 2.91630358 
2.9825888767 3.0574329311 3.1415926536 3.5642842451 3.5233842518 3.4524645613 3.4773852225 3.403123212 3.3320300872 
3.4255060145 3.348015857 3.2746326772 3.20576226 3.3668817272 3.2864685043 3.2112816139 3.1415926536 3.0774230472 
3.3005964304 3.2178377658 3.1415926536 3.0719036933 3.00855263 2.95115522 3.225752376 3.1415926536 3.0653475414 
2.9967168029 2.9351694502 2.8800620952 2.8307207459 3.1415926536 3.0574329311 2.9825888767 2.91630358 2.8576792927 
2.8058000847 2.7598010554 2.718901062 4.526799744 4.426884955 4.4046155105 4.3052269283 4.2918546451 4.2807094886 
4.1588146215 4.1588146215 4.1588146215 4.1588146215 3.9875336042 4.0055183285 4.0201070968 4.0321740035 4.042318168 
3.7967995342 3.8356650183 3.8672112905 3.8932795963 3.9151549899 3.9337570603 3.5984456061 3.657329819 3.7058097288 
3.7462412737 3.7803704271 3.809500442 3.8346145692 3.4073543651 3.4813459737 3.5438565869 3.5969754326 3.6424295543 
3.6816134988 3.7156421835 3.7454049075 4.7123889804 4.8004512023 4.6243267584 4.9155579264 4.7123889804 4.5092200343 
5.0674903122 4.8353719722 4.5894059886 4.3572876485 5.2659633393 5.0120975802 4.7123889804 4.4126803806 4.1588146215 
5.5125918794 5.2659633393 4.9155579264 4.5092200343 4.1588146215 3.9121860814 5.7885595667 5.6029703303 5.2659633393 
4.7123889804 4.1588146215 3.8218076305 3.6362183941 6.0560271438 5.9702140275 5.7885595667 5.2659633393 4.1588146215 
3.6362183941 3.4545639333 3.368750817 0.22715816343 0.49462574053 0.3129712797 0.77059342779 0.68021497688 0.49462574053 
1.0172219679 1.0172219679 1.0172219679 1.0172219679 1.2156949949 1.271087727 1.3676273807 1.5707963268 2.1243706857 
1.3676273807 1.447813335 1.5707963268 1.7739652728 2.1243706857 2.6469669131 1.4827341049 1.5707963268 1.6937793186 
1.8705049266 2.1243706857 2.4613776767 2.8286213739 1.5707963268 1.6588585487 1.7739652728 1.9258976586 2.1243706857 
2.3709992258 2.6469669131 2.9144344902 1.7563855631 1.8785697967 1.8563003522 2.0024758186 1.9913306621 1.9779583789 
2.1243706857 2.1243706857 2.1243706857 2.1243706857 2.2408671392 2.2510113037 2.2630782103 2.2776669786 2.295651703 
2.3494282469 2.3680303173 2.3899057108 2.4159740166 2.4475202889 2.486385773 2.448570738 2.4736848652 2.5028148801 
2.5369440334 2.5773755784 2.6258554882 2.6847397011 2.5377803997 2.5675431237 2.6015718084 2.6407557529 2.6862098746 
2.7393287203 2.8018393335 2.8758309421 1.6743954455 1.6743954455 1.7840462375 1.6743954455 1.7840462375 1.8974821136 
1.6743954455 1.7840462375 1.8974821136 2.0119052671 1.6743954455 1.7840462375 1.8974821136 2.0119052671 2.1243706857 
1.6743954455 1.7840462375 1.8974821136 2.0119052671 2.1243706857 2.232221744 1.6743954455 1.7840462375 1.8974821136 
2.0119052671 2.1243706857 2.232221744 2.3334263672 1.6743954455 1.7840462375 1.8974821136 2.0119052671 2.1243706857 
2.232221744 2.3334263672 2.426721652 1.4671972081 1.3575464161 1.4671972081 1.24411054 1.3575464161 1.4671972081 
1.1296873865 1.24411054 1.3575464161 1.4671972081 1.0172219679 1.1296873865 1.24411054 1.3575464161 1.4671972081 
0.90937090954 1.0172219679 1.1296873865 1.24411054 1.3575464161 1.4671972081 0.80816628637 0.90937090954 1.0172219679 
1.1296873865 1.24411054 1.3575464161 1.4671972081 0.71487100155 0.80816628637 0.90937090954 1.0172219679 1.1296873865 
1.24411054 1.3575464161 1.4671972081 0.60381225391 0.57404952988 0.69302191562 0.54002084522 0.66790778838 0.79216440667 
0.50083690068 0.63877777351 0.77356233629 0.90072551443 0.45538277901 0.60464862014 0.75168694275 0.89058134991 1.0172219679 
0.40226393329 0.56421707518 0.72561863695 0.87851444325 1.0172219679 1.139116835 0.33975332011 0.51573716537 0.69407236469 
0.86392567495 1.0172219679 1.1502619915 1.2630228569 0.26576171152 0.45685295248 0.6552068806 0.84594095064 1.0172219679 
1.1636342747 1.2852923014 1.3852070904 0.22715816343 0.3129712797 0.49462574053 0.49462574053 0.68021497688 0.77059342779 
1.0172219679 1.0172219679 1.0172219679 1.0172219679 2.1243706857 1.5707963268 1.3676273807 1.271087727 1.2156949949 
2.6469669131 2.1243706857 1.7739652728 1.5707963268 1.447813335 1.3676273807 2.8286213739 2.4613776767 2.1243706857 
1.8705049266 1.6937793186 1.5707963268 1.4827341049 2.9144344902 2.6469669131 2.3709992258 2.1243706857 1.9258976586 
1.7739652728 1.6588585487 1.5707963268 1.7563855631 1.8563003522 1.8785697967 1.9779583789 1.9913306621 2.0024758186 
2.1243706857 2.1243706857 2.1243706857 2.1243706857 2.295651703 2.2776669786 2.2630782103 2.2510113037 2.2408671392 
2.486385773 2.4475202889 2.4159740166 2.3899057108 2.3680303173 2.3494282469 2.6847397011 2.6258554882 2.5773755784 
2.5369440334 2.5028148801 2.4736848652 2.448570738 2.8758309421 2.8018393335 2.7393287203 2.6862098746 2.6407557529 
2.6015718084 2.5675431237 2.5377803997 5.8604937156 5.901393709 5.9723133995 5.9473927383 6.0216547488 6.0927478736 
5.9992719463 6.0767621038 6.1501452836 6.2190157008 6.0578962336 6.1383094565 6.2134963469 0 0.064169606361 
6.1241815303 6.206940195 6.2831853072 0.069688960264 0.13304002361 0.19043743361 6.1990255847 0 0.07624511221 
0.14487585072 0.20642320337 0.26153055843 0.3108719077 0 0.084159722458 0.15900377685 0.22528907359 0.28391336087 
0.3357925689 0.38179159818 0.42269159155 5.8604937156 5.9723133995 5.901393709 6.0927478736 6.0216547488 5.9473927383 
6.2190157008 6.1501452836 6.0767621038 5.9992719463 0.064169606361 0 6.2134963469 6.1383094565 6.0578962336 
0.19043743361 0.13304002361 0.069688960264 6.2831853072 6.206940195 6.1241815303 0.3108719077 0.26153055843 0.20642320337 
0.14487585072 0.07624511221 6.2831853072 6.1990255847 0.42269159155 0.38179159818 0.3357925689 0.28391336087 0.22528907359 
0.15900377685 0.084159722458 0 5.6793730533 5.7091357773 5.5901633916 5.743164462 5.6152775188 5.4910209005 
5.7823484065 5.6444075337 5.5096229709 5.3824597928 5.8278025282 5.678536687 5.5314983644 5.3926039573 5.2659633393 
5.8809213739 5.718968232 5.5575666702 5.4046708639 5.2659633393 5.1440684722 5.9434319871 5.7674481418 5.5891129425 
5.4192596322 5.2659633393 5.1329233157 5.0201624502 6.0174235957 5.8263323547 5.6279784266 5.4372443565 5.2659633393 
5.1195510325 4.9978930058 4.8979782167 1.3852070904 1.2852923014 1.2630228569 1.1636342747 1.1502619915 1.139116835 
1.0172219679 1.0172219679 1.0172219679 1.0172219679 0.84594095064 0.86392567495 0.87851444325 0.89058134991 0.90072551443 
0.6552068806 0.69407236469 0.72561863695 0.75168694275 0.77356233629 0.79216440667 0.45685295248 0.51573716537 0.56421707518 
0.60464862014 0.63877777351 0.66790778838 0.69302191562 0.26576171152 0.33975332011 0.40226393329 0.45538277901 0.50083690068 
0.54002084522 0.57404952988 0.60381225391 
_paraPhiHalf 1 1002 double
0 3.1415926536 0 3.1415926536 1.5707963268 1.5707963268 1.5707963268 1.5707963268 2.5880182947 
0.5535743589 2.5880182947 0.5535743589 0 0 0 0 3.1415926536 3.1415926536 
3.1415926536 3.1415926536 3.1415926536 0.17788134 0.38438696014 0.60631181711 0.82323535693 1.0172219679 1.1799687454 
1.3118704726 1.4175000338 1.5022335207 0.17788134 0.38438696014 0.60631181711 0.82323535693 1.0172219679 1.1799687454 
1.3118704726 1.4175000338 1.5022335207 0.093902416448 0.17615329733 0.2478725152 0.31035131605 0.36486382811 0.41257334776 
0.45449736604 0.4915044461 0.52432611754 0.093902416448 0.17615329733 0.2478725152 0.31035131605 0.36486382811 0.41257334776 
0.45449736604 0.4915044461 0.52432611754 2.9637113136 2.7572056934 2.5352808365 2.3183572967 2.1243706857 1.9616239082 
1.829722181 1.7240926197 1.6393591329 2.9637113136 2.7572056934 2.5352808365 2.3183572967 2.1243706857 1.9616239082 
1.829722181 1.7240926197 1.6393591329 3.0476902371 2.9654393563 2.8937201384 2.8312413375 2.7767288255 2.7290193058 
2.6870952876 2.6500882075 2.617266536 3.0476902371 2.9654393563 2.8937201384 2.8312413375 2.7767288255 2.7290193058 
2.6870952876 2.6500882075 2.617266536 0 0 0 0 3.1415926536 3.1415926536 
3.1415926536 3.1415926536 3.1415926536 0.17788134 0.38438696014 0.60631181711 0.82323535693 1.0172219679 1.1799687454 
1.3118704726 1.4175000338 1.5022335207 0.17788134 0.38438696014 0.60631181711 0.82323535693 1.0172219679 1.1799687454 
1.3118704726 1.4175000338 1.5022335207 0.093902416448 0.17615329733 0.2478725152 0.31035131605 0.36486382811 0.41257334776 
0.45449736604 0.4915044461 0.52432611754 0.093902416448 0.17615329733 0.2478725152 0.31035131605 0.36486382811 0.41257334776 
0.45449736604 0.4915044461 0.52432611754 2.9637113136 2.7572056934 2.5352808365 2.3183572967 2.1243706857 1.9616239082 
1.829722181 1.7240926197 1.6393591329 2.9637113136 2.7572056934 2.5352808365 2.3183572967 2.1243706857 1.9616239082 
1.829722181 1.7240926197 1.6393591329 3.0476902371 2.9654393563 2.8937201384 2.8312413375 2.7767288255 2.7290193058 
2.6870952876 2.6500882075 2.617266536 3.0476902371 2.9654393563 2.8937201384 2.8312413375 2.7767288255 2.7290193058 
2.6870952876 2.6500882075 2.617266536 1.5707963268 1.5707963268 1.5707963268 1.5707963268 1.5707963268 1.5707963268 
1.5707963268 1.5707963268 1.5707963268 1.6743954455 1.7840462375 1.8974821136 2.0119052671 2.1243706857 2.232221744 
2.3334263672 2.426721652 2.5115728246 1.4671972081 1.3575464161 1.24411054 1.1296873865 1.0172219679 0.90937090954 
0.80816628637 0.71487100155 0.63001982895 1.6743954455 1.7840462375 1.8974821136 2.0119052671 2.1243706857 2.232221744 
2.3334263672 2.426721652 2.5115728246 1.4671972081 1.3575464161 1.24411054 1.1296873865 1.0172219679 0.90937090954 
0.80816628637 0.71487100155 0.63001982895 1.5707963268 1.5707963268 1.5707963268 1.5707963268 1.5707963268 1.5707963268 
1.5707963268 1.5707963268 1.5707963268 1.6743954455 1.7840462375 1.8974821136 2.0119052671 2.1243706857 2.232221744 
2.3334263672 2.426721652 2.5115728246 1.4671972081 1.3575464161 1.24411054 1.1296873865 1.0172219679 0.90937090954 
0.80816628637 0.71487100155 0.63001982895 1.6743954455 1.7840462375 1.8974821136 2.0119052671 2.1243706857 2.232221744 
2.3334263672 2.426721652 2.5115728246 1.4671972081 1.3575464161 1.24411054 1.1296873865 1.0172219679 0.90937090954 
0.80816628637 0.71487100155 0.63001982895 2.6824132222 2.7864913217 2.8992382033 3.0186096618 3.1415926536 3.0186096618 
2.8992382033 2.7864913217 2.6824132222 0.45917943135 0.35510133185 0.2423544503 0.12298299178 0 0.12298299178 
0.2423544503 0.35510133185 0.45917943135 0.22715816343 0.49462574053 0.3129712797 0.77059342779 0.68021497688 0.49462574053 
1.0172219679 1.0172219679 1.0172219679 1.0172219679 1.2156949949 1.271087727 1.3676273807 1.5707963268 2.1243706857 
1.3676273807 1.447813335 1.5707963268 1.7739652728 2.1243706857 2.6469669131 1.4827341049 1.5707963268 1.6937793186 
1.8705049266 2.1243706857 2.4613776767 2.8286213739 1.5707963268 1.6588585487 1.7739652728 1.9258976586 2.1243706857 
2.3709992258 2.6469669131 2.9144344902 0.26576171152 0.33975332011 0.45685295248 0.40226393329 0.51573716537 0.6552068806 
0.45538277901 0.56421707518 0.69407236469 0.84594095064 0.50083690068 0.60464862014 0.72561863695 0.86392567495 1.0172219679 
0.54002084522 0.63877777351 0.75168694275 0.87851444325 1.0172219679 1.1636342747 0.57404952988 0.66790778838 0.77356233629 
0.89058134991 1.0172219679 1.1502619915 1.2852923014 0.60381225391 0.69302191562 0.79216440667 0.90072551443 1.0172219679 
1.139116835 1.2630228569 1.3852070904 0.71487100155 0.80816628637 0.80816628637 0.90937090954 0.90937090954 0.90937090954 
1.0172219679 1.0172219679 1.0172219679 1.0172219679 1.1296873865 1.1296873865 1.1296873865 1.1296873865 1.1296873865 
1.24411054 1.24411054 1.24411054 1.24411054 1.24411054 1.24411054 1.3575464161 1.3575464161 1.3575464161 
1.3575464161 1.3575464161 1.3575464161 1.3575464161 1.4671972081 1.4671972081 1.4671972081 1.4671972081 1.4671972081 
1.4671972081 1.4671972081 1.4671972081 1.6743954455 1.6743954455 1.7840462375 1.6743954455 1.7840462375 1.8974821136 
1.6743954455 1.7840462375 1.8974821136 2.0119052671 1.6743954455 1.7840462375 1.8974821136 2.0119052671 2.1243706857 
1.6743954455 1.7840462375 1.8974821136 2.0119052671 2.1243706857 2.232221744 1.6743954455 1.7840462375 1.8974821136 
2.0119052671 2.1243706857 2.232221744 2.3334263672 1.6743954455 1.7840462375 1.8974821136 2.0119052671 2.1243706857 
2.232221744 2.3334263672 2.426721652 1.7563855631 1.8785697967 1.8563003522 2.0024758186 1.9913306621 1.9779583789 
2.1243706857 2.1243706857 2.1243706857 2.1243706857 2.2408671392 2.2510113037 2.2630782103 2.2776669786 2.295651703 
2.3494282469 2.3680303173 2.3899057108 2.4159740166 2.4475202889 2.486385773 2.448570738 2.4736848652 2.5028148801 
2.5369440334 2.5773755784 2.6258554882 2.6847397011 2.5377803997 2.5675431237 2.6015718084 2.6407557529 2.6862098746 
2.7393287203 2.8018393335 2.8758309421 2.718901062 2.8307207459 2.7598010554 2.95115522 2.8800620952 2.8058000847 
3.0774230472 3.00855263 2.9351694502 2.8576792927 3.0774230472 3.1415926536 3.0719036933 2.9967168029 2.91630358 
2.95115522 3.00855263 3.0719036933 3.1415926536 3.0653475414 2.9825888767 2.8307207459 2.8800620952 2.9351694502 
2.9967168029 3.0653475414 3.1415926536 3.0574329311 2.718901062 2.7598010554 2.8058000847 2.8576792927 2.91630358 
2.9825888767 3.0574329311 3.1415926536 2.718901062 2.7598010554 2.8307207459 2.8058000847 2.8800620952 2.95115522 
2.8576792927 2.9351694502 3.00855263 3.0774230472 2.91630358 2.9967168029 3.0719036933 3.1415926536 3.0774230472 
2.9825888767 3.0653475414 3.1415926536 3.0719036933 3.00855263 2.95115522 3.0574329311 3.1415926536 3.0653475414 