# vtk DataFile Version 5.1
vtk output
ASCII
DATASET POLYDATA
POINTS 100 float
7.77188 33.757 12.1191 7.78258 33.7527 12.118 7.81343 33.7378 12.1096 
7.86372 33.7144 12.0947 7.93234 33.686 12.0746 8.01792 33.6569 12.0509 
8.11896 33.6318 12.0257 8.23401 33.6154 12.0008 8.36179 33.6119 11.9781 
8.5013 33.6245 11.959 8.65185 33.655 11.9449 8.81306 33.7043 11.9362 
8.98478 33.7716 11.9333 9.167 33.8551 11.9359 9.35969 33.9522 11.9436 
9.56269 34.0596 11.9556 9.7756 34.1742 11.9712 9.99767 34.2927 11.9895 
10.2278 34.4128 12.01 10.4647 34.5327 12.032 10.7067 34.6516 12.0555 
10.9522 34.7695 12.0802 11.1995 34.8869 12.1061 11.4476 35.0053 12.1334 
11.6955 35.1258 12.1619 11.9427 35.2499 12.1914 12.1896 35.3786 12.2216 
12.4368 35.5125 12.2518 12.6853 35.6516 12.281 12.9365 35.7951 12.3081 
13.1916 35.942 12.3316 13.4519 36.0906 12.3504 13.7181 36.2393 12.3632 
13.9907 36.3861 12.369 14.2694 36.5297 12.367 14.5533 36.6687 12.3571 
14.8413 36.8026 12.3395 15.1316 36.9312 12.3149 15.4224 37.0546 12.2846 
15.7118 37.1738 12.25 15.9984 37.2896 12.2131 16.2807 37.4031 12.1758 
16.5581 37.5156 12.1399 16.8304 37.628 12.1075 17.0977 37.7411 12.0799 
17.3608 37.8555 12.0583 17.6205 37.9716 12.0436 17.8778 38.0895 12.036 
18.1337 38.2093 12.0354 18.3887 38.3308 12.0413 18.6433 38.454 12.0526 
18.8974 38.5788 12.0683 19.1509 38.7051 12.0868 19.4032 38.8328 12.1067 
19.6537 38.9616 12.1263 19.902 39.0912 12.1441 20.1479 39.2212 12.1587 
20.3916 39.3509 12.169 20.6336 39.4793 12.1741 20.875 39.6056 12.1736 
21.1172 39.7289 12.1673 21.3618 39.8481 12.1557 21.6103 39.9628 12.1397 
21.8641 40.0727 12.1205 22.1241 40.178 12.1001 22.3906 40.2796 12.0805 
22.6633 40.3788 12.0642 22.941 40.4772 12.0535 23.222 40.5767 12.051 
23.5039 40.6793 12.0587 23.7841 40.7866 12.0785 24.0601 40.8999 12.1113 
24.3294 41.0195 12.1576 24.5902 41.1452 12.217 24.8413 41.2755 12.2882 
25.0822 41.4083 12.3691 25.3132 41.5409 12.457 25.5351 41.6698 12.5487 
25.7492 41.792 12.6405 25.9569 41.9043 12.7288 26.1596 42.0046 12.81 
26.358 42.0913 12.8812 26.5525 42.1644 12.9399 26.7426 42.2248 12.9843 
26.9271 42.2748 13.0135 27.1039 42.3174 13.0277 27.2708 42.3562 13.0276 
27.4251 42.3949 13.0146 27.5642 42.4369 12.9909 27.6862 42.4849 12.9588 
27.7896 42.5403 12.921 27.8739 42.6032 12.8799 27.9398 42.6723 12.8381 
27.9885 42.7449 12.7976 28.0224 42.8173 12.7603 28.0444 42.8851 12.7277 
28.0573 42.9436 12.7008 28.0641 42.9886 12.6805 28.067 43.0166 12.6673 
28.0676 43.0253 12.6615 
LINES 2 100
OFFSETS vtktypeint64
0 100 
CONNECTIVITY vtktypeint64
0 1 2 3 4 5 6 7 8 
9 10 11 12 13 14 15 16 17 
18 19 20 21 22 23 24 25 26 
27 28 29 30 31 32 33 34 35 
36 37 38 39 40 41 42 43 44 
45 46 47 48 49 50 51 52 53 
54 55 56 57 58 59 60 61 62 
63 64 65 66 67 68 69 70 71 
72 73 74 75 76 77 78 79 80 
81 82 83 84 85 86 87 88 89 
90 91 92 93 94 95 96 97 98 
99 
POINT_DATA 100
FIELD FieldData 3
_theta 1 100 double
0 0.031733259127 0.063466518254 0.095199777382 0.12693303651 0.15866629564 0.19039955476 0.22213281389 0.25386607302 
0.28559933214 0.31733259127 0.3490658504 0.38079910953 0.41253236865 0.44426562778 0.47599888691 0.50773214603 0.53946540516 
0.57119866429 0.60293192342 0.63466518254 0.66639844167 0.6981317008 0.72986495992 0.76159821905 0.79333147818 0.82506473731 
0.85679799643 0.88853125556 0.92026451469 0.95199777382 0.98373103294 1.0154642921 1.0471975512 1.0789308103 1.1106640695 
1.1423973286 1.1741305877 1.2058638468 1.237597106 1.2693303651 1.3010636242 1.3327968833 1.3645301425 1.3962634016 
1.4279966607 1.4597299198 1.491463179 1.5231964381 1.5549296972 1.5866629564 1.6183962155 1.6501294746 1.6818627337 
1.7135959929 1.745329252 1.7770625111 1.8087957702 1.8405290294 1.8722622885 1.9039955476 1.9357288068 1.9674620659 
1.999195325 2.0309285841 2.0626618433 2.0943951024 2.1261283615 2.1578616206 2.1895948798 2.2213281389 2.253061398 
2.2847946572 2.3165279163 2.3482611754 2.3799944345 2.4117276937 2.4434609528 2.4751942119 2.506927471 2.5386607302 
2.5703939893 2.6021272484 2.6338605076 2.6655937667 2.6973270258 2.7290602849 2.7607935441 2.7925268032 2.8242600623 
2.8559933214 2.8877265806 2.9194598397 2.9511930988 2.982926358 3.0146596171 3.0463928762 3.0781261353 3.1098593945 
3.1415926536 
_radius 1 100 double
4.3547923213e-14 0.31026096432 0.61579609748 0.91236705488 1.1962113132 1.4642295818 1.7141363273 1.9445710197 2.1551707484 
2.3466026821 2.5205456712 2.6795976081 2.8270791688 2.9667177434 3.1022322663 3.2368871182 3.3731131856 3.5122839584 
3.6546874898 3.7996768916 3.9459392071 4.091806658 4.235542657 4.3755580435 4.5105404056 4.6395029371 4.7617742173 
4.8769552835 4.984866818 5.0855001987 5.1789753909 5.265500459 5.3453255347 5.4186895463 5.4857679816 5.5466382076 
5.6012793658 5.6496147298 5.691589356 5.7272618483 5.7568822036 5.7809304378 5.8001013545 5.8152352156 5.8272074827 
5.836799599 5.8445752012 5.8507825563 5.8552966443 5.8576064158 5.8568468993 5.8518725351 5.841365934 5.8239734439 
5.7984550009 5.7638319058 5.7195142621 5.6653911177 5.6018708875 5.5298662952 5.450725218 5.3661149976 5.2778723511 
5.1878345088 5.0976708885 5.0087389148 4.9219900279 4.8379469868 4.7567569301 4.6782993318 4.6023058028 4.5284437387 
4.4563346526 4.3855131678 4.3153642027 4.2450839404 4.1736912081 4.1000860444 4.0231314987 3.9417305262 3.8548772781 
3.7616736978 3.6613136817 3.55304558 3.4361267736 3.3097798574 3.173151251 3.025267254 2.8649870135 2.6909671073 
2.5016697559 2.2954526225 2.0707632639 1.8264275296 1.5619828758 1.2779830549 0.97620065168 0.65967594903 0.33259347239 
2.3688111995e-14 
_area 1 100 double
0 0.2891618557 1.1403031112 2.5060524131 4.3127547157 6.4676477054 8.8676550192 11.409075154 13.997610517 
16.558126952 19.04312126 21.438265522 23.763037527 26.064991561 28.408148282 30.85864614 33.472245925 36.287117711 
39.32247575 42.581171884 46.053514241 49.720181888 53.553340782 57.516165269 61.561651875 65.632050405 69.660348818 
73.574485724 77.303542155 80.78426943 83.966437868 86.816129577 89.316827774 91.46885612 93.288129633 94.804925031 
96.062454561 97.11398837 98.016975183 98.823848459 99.571941623 100.27710522 100.9343303 101.52452827 102.0236742 
102.41071318 102.67227317 102.80356532 102.80566354 102.68002167 102.4216873 102.01301075 101.41991412 100.59303904 
99.474988795 98.011737381 96.163859139 93.914559022 91.274743534 88.286790197 85.027637773 81.610283024 78.218917825 
75.281009396 72.874621589 70.674889198 68.598771039 66.600852228 64.639433322 62.690745358 60.762205035 58.890940725 
57.121633918 55.478012396 53.955504576 52.530657363 51.164546021 49.801430287 48.373735584 46.814773845 45.072504037 
43.117854883 40.94551839 38.568842321 36.012242429 33.304495705 30.474693509 27.550750821 24.559503175 21.52771856 
18.484052522 15.462309993 12.505949023 9.6726851038 7.0370251585 4.6885121021 2.7247718566 1.2404587929 0.31470608358 
5.5184750252e-13 
