# vtk DataFile Version 5.1
vtk output
ASCII
DATASET POLYDATA
POINTS 1002 float
20.6731 39.4404 14.5625 12.7298 34.5058 19.1849 21.6499 34.8963 10.9911 
16.014 28.4331 13.585 13.9028 38.4352 12.4016 15.0634 34.084 8.76617 
20.7946 34.7227 19.7119 22.8989 29.7765 16.8617 9.41743 30.2504 16.089 
21.1222 40.7667 8.43983 13.3286 28.2316 21.9986 26.4638 39.0251 14.1899 
19.9741 38.7904 14.6498 19.3099 38.1714 14.7969 18.7197 37.7034 15.2338 
18.065 37.3536 15.9459 17.206 36.9662 16.6374 16.2225 36.458 17.1581 
15.2753 35.894 17.6583 14.388 35.3703 18.2309 13.5266 34.917 18.7731 
19.9627 39.4176 14.3395 19.3032 39.2847 14.0139 18.764 39.083 13.6405 
18.1778 38.9528 13.3598 17.3138 38.9769 13.2473 16.2628 39.0574 13.2254 
15.3513 39.0493 13.1569 14.7161 38.923 12.9658 14.2628 38.7147 12.6814 
20.9072 38.9994 14.8011 21.0372 38.51 15.04 21.0946 38.0274 15.3759 
21.1674 37.5892 15.8896 21.2483 37.162 16.538 21.2465 36.6376 17.154 
21.1504 35.9979 17.6638 21.0229 35.4036 18.2063 20.9003 34.9936 18.9144 
20.8921 40.0527 14.2134 21.024 40.5394 13.6163 21.0636 40.8695 12.9155 
21.031 41.2142 12.3147 20.9463 41.6858 11.6915 20.859 42.0698 10.7972 
20.8476 42.0873 9.81371 20.9325 41.7544 9.12366 21.0483 41.2705 8.74725 
21.54 39.7967 14.5621 22.3364 40.1295 14.5468 22.9587 40.4458 14.6476 
23.5786 40.7433 14.8885 24.4597 40.9909 15.0674 25.4736 41.0833 15.0118 
26.1892 40.8609 14.8054 26.4567 40.301 14.596 26.4841 39.6093 14.4016 
12.4684 34.9379 18.9204 12.2155 35.3433 18.4414 12.1366 35.7239 17.8032 
12.3142 36.1258 17.1656 12.5795 36.5826 16.5454 12.747 37.078 15.7901 
12.9079 37.5538 14.8922 13.2172 37.9451 14.0161 13.6062 38.2295 13.2146 
13.4512 34.3017 19.103 14.176 34.1133 18.988 14.9031 33.9895 18.9317 
15.7775 33.8861 18.9039 16.876 33.7786 18.8057 17.9867 33.7804 18.7218 
18.8579 33.9783 18.871 19.5239 34.2763 19.2467 20.155 34.5363 19.5923 
11.8657 34.3164 19.3612 11.1329 33.9529 19.39 10.516 33.4287 19.2549 
9.85247 32.937 18.9761 9.21065 32.5861 18.57 8.93518 32.1963 18.0811 
9.08323 31.6161 17.586 9.3095 30.99 17.1072 9.39178 30.5237 16.6107 
12.4005 33.9442 19.4835 12.0887 33.3053 19.795 11.8992 32.6068 20.2052 
11.8443 31.8576 20.6475 11.8125 31.065 20.9036 11.8025 30.2627 20.9589 
11.9873 29.5224 21.118 12.4162 28.9216 21.5294 12.9164 28.497 21.9304 
21.3094 34.188 11.1416 21.0032 33.3363 11.2357 20.6348 32.4881 11.3621 
20.088 31.7755 11.6442 19.3735 31.1675 12.0576 18.6377 30.5463 12.4488 
17.9818 29.9006 12.7619 17.3659 29.3112 13.0507 16.7131 28.8227 13.3301 
21.326 34.6983 10.5808 20.9034 34.4857 10.1322 20.2658 34.3614 9.71977 
19.4803 34.3248 9.38853 18.751 34.2682 9.08381 18.0809 34.1429 8.75931 
17.2823 34.0176 8.50254 16.3704 33.9628 8.42836 15.5836 33.9912 8.53999 
21.7793 34.5879 11.4648 21.9925 34.1214 11.9192 22.2298 33.6109 12.4388 
22.3771 33.158 13.1042 22.4228 32.676 13.833 22.5213 32.0192 14.469 
22.771 31.2441 15.0277 23.0303 30.5507 15.63 23.0886 30.0616 16.2747 
21.858 35.3663 10.5087 22.0919 35.792 9.94533 22.2556 36.3052 9.45232 
22.2911 36.9949 9.12543 22.2192 37.7993 8.8824 22.0978 38.5891 8.63737 
21.953 39.296 8.46781 21.7584 39.9028 8.43402 21.4799 40.3949 8.45077 
22.1493 35.3429 11.1135 22.8125 35.7027 11.2679 23.5212 36.0913 11.4818 
24.1246 36.7231 11.6883 24.7474 37.5232 11.8227 25.6015 38.095 12.0225 
26.4582 38.2912 12.4711 26.8622 38.396 13.0957 26.7582 38.6546 13.6907 
15.8171 28.7288 13.1344 15.5697 29.1055 12.6201 15.3747 29.5199 12.0784 
15.3144 30.0048 11.5913 15.2877 30.6507 11.1892 15.1614 31.4201 10.7768 
15.0135 32.1535 10.2609 14.9814 32.7991 9.69344 15.0349 33.4312 9.18432 
16.6511 28.4063 13.8196 17.3947 28.382 14.0065 18.2804 28.3231 14.2466 
19.2374 28.2361 14.6089 20.101 28.2515 15.0071 20.8057 28.4827 15.3591 
21.4388 28.8361 15.73 22.0483 29.1491 16.1592 22.5604 29.4239 16.5612 
15.1459 28.2334 13.5507 14.1594 28.0434 13.5634 13.0675 27.9367 13.8016 
11.9553 27.9824 14.2751 10.9715 28.1915 14.7173 10.2022 28.5273 14.9473 
9.65063 28.9366 15.1258 9.34051 29.37 15.4328 9.28845 29.8056 15.8031 
15.6161 28.1196 14.0672 15.1238 27.9455 14.7712 14.6013 27.9327 15.7752 
14.0846 28.0066 16.9392 13.5636 28.0397 17.9818 13.0868 27.9888 18.9029 
12.8001 27.9311 19.9534 12.8007 27.9437 21.0606 13.0258 28.0427 21.8118 
13.8139 38.3148 11.6972 13.7481 38.1055 10.9817 13.8395 37.8119 10.3509 
14.0817 37.4457 9.82769 14.285 36.9928 9.34984 14.3569 36.4527 8.93342 
14.4257 35.855 8.69148 14.5936 35.2285 8.64467 14.8222 34.6163 8.69519 
13.4275 37.9261 12.6706 12.8762 37.2773 12.9359 12.2753 36.5094 13.2542 
11.7393 35.6088 13.7098 11.3195 34.5808 14.2937 10.9404 33.4993 14.8578 
10.542 32.4673 15.2871 10.144 31.5678 15.6102 9.76861 30.8368 15.88 
14.3077 38.7895 11.5829 14.7856 39.0577 10.5929 15.5304 39.2005 9.72392 
16.5635 39.2728 9.22385 17.5774 39.4262 8.93911 18.3248 39.7564 8.54646 
18.9593 40.1803 8.09937 19.6921 40.5314 7.91541 20.4632 40.7217 8.08767 
14.6909 33.7834 9.34083 14.2434 33.4506 10.036 13.5962 33.0311 10.8053 
12.8656 32.4427 11.651 12.2675 31.7373 12.5637 11.729 31.1414 13.4406 
11.0432 30.7914 14.1856 10.3021 30.5894 14.8293 9.74774 30.409 15.4553 
15.324 34.6876 8.23882 15.7364 35.2999 7.77341 16.4698 35.9068 7.38258 
17.5007 36.6022 7.00434 18.5256 37.4514 6.57223 19.2788 38.3215 6.23411 
19.8132 39.0499 6.32611 20.297 39.6589 6.93809 20.7529 40.2334 7.75683 
21.1211 34.5869 20.1364 21.3987 34.1739 20.3182 21.6097 33.4595 20.1389 
21.8176 32.6973 19.7126 22.0618 32.1228 19.2485 22.2935 31.6274 18.7972 
22.4833 31.0294 18.3138 22.6613 30.4224 17.8178 22.8196 29.9941 17.339 
20.3397 34.3657 20.4087 19.9479 33.8461 20.6968 19.4909 33.012 20.4507 
18.6948 31.9982 20.0569 17.5146 31.1122 20.0095 16.3309 30.4041 20.3156 
15.4792 29.7039 20.7208 14.843 29.0182 21.166 14.1452 28.5095 21.6418 
21.531 35.1218 19.1183 22.304 35.7933 18.56 23.0315 36.6713 18.4234 
23.7873 37.4 18.6583 24.626 37.7699 18.6339 25.2994 38.0417 17.8701 
25.5816 38.4783 16.6489 25.698 38.9129 15.5471 25.9919 39.0878 14.7706 
22.3249 29.4007 17.2359 21.5758 29.1312 17.6449 20.9138 28.806 18.1584 
20.3788 28.3634 18.7257 19.5313 27.9962 19.1856 18.0681 27.907 19.5564 
16.4084 28.0161 20.0805 15.1076 28.122 20.8251 14.177 28.1716 21.5462 
23.2318 30.4902 16.7359 23.4361 31.5204 16.5044 23.6956 32.6695 16.2251 
24.1132 33.7492 16.0087 24.52 34.8721 15.8116 24.7732 36.1846 15.4404 
25.0444 37.424 14.9073 25.5059 38.2313 14.478 26.0452 38.6599 14.2842 
9.00878 29.8354 16.6282 8.50052 29.4103 17.2422 8.03253 28.9916 17.9619 
7.89478 28.6248 18.8862 8.18376 28.3893 20.0054 8.762 28.3144 21.0783 
9.61528 28.3057 21.8408 10.8002 28.2648 22.21 12.1367 28.2153 22.2326 
21.6853 41.0313 8.9915 22.3771 41.1781 9.46846 23.4207 41.2199 9.93083 
24.7666 41.2915 10.4286 25.9396 41.3924 10.9167 26.6005 41.2215 11.4436 
26.9028 40.6035 12.1546 27.0184 39.8331 12.9866 26.8768 39.2906 13.6994 
19.2802 38.7044 14.4205 18.6447 38.5626 14.1714 18.6493 38.0548 14.6182 
18.0318 38.5235 14.0472 17.979 37.9814 14.5293 18.024 37.6113 15.1399 
17.2222 38.7203 14.1169 17.2045 38.1763 14.676 17.2416 37.6248 15.1487 
17.2577 37.2908 15.87 16.1454 39.0006 14.2287 16.1972 38.6069 14.9594 
16.3244 37.9174 15.3657 16.3622 37.3014 15.8352 16.3055 36.8876 16.5349 
15.0991 39.0668 14.1863 15.0804 38.8633 15.0787 15.2671 38.266 15.6262 
15.3804 37.4756 15.9722 15.3253 36.8324 16.4752 15.2679 36.3623 17.1276 
14.3722 38.8624 13.9482 14.1712 38.6964 14.8904 14.2413 38.2619 15.6537 
14.3603 37.5678 16.1469 14.2943 36.853 16.5728 14.1885 36.2954 17.1537 
14.2421 35.8366 17.7749 13.9288 38.5496 13.589 13.5909 38.3073 14.4852 
13.448 37.9204 15.3697 13.4473 37.3797 16.1129 13.3377 36.7826 16.6681 
13.1344 36.2525 17.2191 13.0989 35.8072 17.8562 13.287 35.3747 18.4181 
20.1523 40.0105 13.9179 20.3091 40.4374 13.2517 19.5255 39.7974 13.4643 
20.3805 40.7276 12.5279 19.7219 40.1292 12.7124 19.0152 39.4613 12.9118 
20.3256 41.1068 11.8728 19.7559 40.4209 11.9966 19.1574 39.7118 12.0853 
18.3607 39.1719 12.4583 20.1932 41.5846 11.072 19.5986 40.8694 11.328 
19.0573 40.0599 11.4123 18.3898 39.3719 11.5932 17.414 39.0487 12.2407 
20.1214 41.8282 10.038 19.4228 41.2759 10.4405 18.8302 40.5167 10.7483 
18.2514 39.7332 10.918 17.4453 39.2016 11.3302 16.3948 39.0448 12.1761 
20.188 41.6473 9.10915 19.4064 41.2926 9.39508 18.726 40.7225 9.84684 
18.1393 40.0488 10.198 17.4243 39.4704 10.5239 16.4972 39.156 11.1498 
15.5373 39.0465 12.0707 20.3336 41.207 8.50933 19.534 40.9551 8.52991 
18.8077 40.5284 8.88109 18.1883 40.0233 9.33942 17.4593 39.5822 9.69447 
16.5234 39.3 10.1299 15.5942 39.1404 10.8913 14.8522 38.9756 11.8433 
20.013 40.1576 7.40516 19.5146 39.5922 6.7513 19.2231 39.9169 7.39863 
18.9823 38.9626 6.43642 18.7104 39.3222 7.07355 18.5097 39.5202 7.81515 
18.2622 38.1592 6.53073 18.0098 38.666 7.00509 17.8449 38.9381 7.6964 
17.7175 39.1644 8.31708 17.2228 37.2717 6.79605 16.978 37.8994 7.01994 
16.8106 38.385 7.57206 16.6876 38.7458 8.0919 16.5941 39.0547 8.57055 
16.1038 36.5142 7.09873 15.8273 37.1564 7.06616 15.6519 37.8044 7.39061 
15.4883 38.3859 7.82529 15.3486 38.8276 8.23361 15.3612 39.1007 8.83731 
15.3205 35.8948 7.517 15.0107 36.5259 7.34937 14.8503 37.2029 7.45453 
14.7053 37.8978 7.78723 14.4837 38.4829 8.17668 14.3631 38.8569 8.71452 
14.5052 39.0281 9.56284 14.9693 35.2732 8.07622 14.6803 35.9081 7.93411 
14.5327 36.562 7.95512 14.4618 37.2273 8.2172 14.2852 37.8378 8.61444 
14.0278 38.2965 9.09303 13.938 38.5824 9.76981 14.091 38.7323 10.6581 
13.4323 37.6684 12.1186 13.5214 37.2987 11.6033 12.9566 36.8691 12.5317 
13.7209 36.8953 11.1146 13.1103 36.3815 12.1461 12.3937 35.9909 12.9246 
13.9113 36.5031 10.5991 13.2512 35.9401 11.6897 12.528 35.4747 12.5478 
11.8956 35.0485 13.3923 14 36.0758 10.0724 13.3122 35.5456 11.1631 
12.5909 35.0218 12.0902 12.0446 34.5348 13.0082 11.5189 34.0149 13.9823 
14.0957 35.5612 9.66118 13.417 35.103 10.6942 12.6612 34.5524 11.6666 
12.1608 33.9968 12.6398 11.7265 33.4532 13.6495 11.1315 32.921 14.5645 
14.2926 34.9643 9.44106 13.6892 34.574 10.3702 12.9029 34.0333 11.3452 
[...]
POINT_DATA 1002
FIELD FieldData 4
_paraPhi 1 1002 double
6.2831853072 3.1415926536 6.2831853072 3.1415926536 4.7123889804 4.7123889804 1.5707963268 1.5707963268 3.6951670125 
5.7296109483 2.5880182947 0.5535743589 6.2831853072 6.2831853072 6.2831853072 6.2831853072 3.1415926536 3.1415926536 
3.1415926536 3.1415926536 3.1415926536 6.1053039672 5.898798347 5.6768734901 5.4599499503 5.2659633393 5.1032165617 
4.9713148346 4.8656852733 4.7809517865 0.17788134 0.38438696014 0.60631181711 0.82323535693 1.0172219679 1.1799687454 
1.3118704726 1.4175000338 1.5022335207 6.1892828907 6.1070320098 6.035312792 5.9728339911 5.9183214791 5.8706119594 
5.8286879411 5.7916808611 5.7588591896 0.093902416448 0.17615329733 0.2478725152 0.31035131605 0.36486382811 0.41257334776 
0.45449736604 0.4915044461 0.52432611754 3.3194739936 3.5259796137 3.7479044707 3.9648280105 4.1588146215 4.321561399 
4.4534631262 4.5590926874 4.6438261743 2.9637113136 2.7572056934 2.5352808365 2.3183572967 2.1243706857 1.9616239082 
1.829722181 1.7240926197 1.6393591329 3.23549507 3.3177459509 3.3894651688 3.4519439696 3.5064564817 3.5541660013 
3.5960900196 3.6330970997 3.6659187711 3.0476902371 2.9654393563 2.8937201384 2.8312413375 2.7767288255 2.7290193058 
2.6870952876 2.6500882075 2.617266536 6.2831853072 6.2831853072 6.2831853072 6.2831853072 3.1415926536 3.1415926536 
3.1415926536 3.1415926536 3.1415926536 6.1053039672 5.898798347 5.6768734901 5.4599499503 5.2659633393 5.1032165617 
4.9713148346 4.8656852733 4.7809517865 0.17788134 0.38438696014 0.60631181711 0.82323535693 1.0172219679 1.1799687454 
1.3118704726 1.4175000338 1.5022335207 6.1892828907 6.1070320098 6.035312792 5.9728339911 5.9183214791 5.8706119594 
5.8286879411 5.7916808611 5.7588591896 0.093902416448 0.17615329733 0.2478725152 0.31035131605 0.36486382811 0.41257334776 
0.45449736604 0.4915044461 0.52432611754 3.3194739936 3.5259796137 3.7479044707 3.9648280105 4.1588146215 4.321561399 
4.4534631262 4.5590926874 4.6438261743 2.9637113136 2.7572056934 2.5352808365 2.3183572967 2.1243706857 1.9616239082 
1.829722181 1.7240926197 1.6393591329 3.23549507 3.3177459509 3.3894651688 3.4519439696 3.5064564817 3.5541660013 
3.5960900196 3.6330970997 3.6659187711 3.0476902371 2.9654393563 2.8937201384 2.8312413375 2.7767288255 2.7290193058 
2.6870952876 2.6500882075 2.617266536 4.7123889804 4.7123889804 4.7123889804 4.7123889804 4.7123889804 4.7123889804 
4.7123889804 4.7123889804 4.7123889804 4.6087898617 4.4991390697 4.3857031936 4.2712800401 4.1588146215 4.0509635631 
3.94975894 3.8564636551 3.7716124825 4.8159880991 4.9256388911 5.0390747672 5.1534979207 5.2659633393 5.3738143976 
5.4750190208 5.5683143056 5.6531654782 4.6087898617 4.4991390697 4.3857031936 4.2712800401 4.1588146215 4.0509635631 
3.94975894 3.8564636551 3.7716124825 4.8159880991 4.9256388911 5.0390747672 5.1534979207 5.2659633393 5.3738143976 
5.4750190208 5.5683143056 5.6531654782 1.5707963268 1.5707963268 1.5707963268 1.5707963268 1.5707963268 1.5707963268 
1.5707963268 1.5707963268 1.5707963268 1.6743954455 1.7840462375 1.8974821136 2.0119052671 2.1243706857 2.232221744 
2.3334263672 2.426721652 2.5115728246 1.4671972081 1.3575464161 1.24411054 1.1296873865 1.0172219679 0.90937090954 
0.80816628637 0.71487100155 0.63001982895 1.6743954455 1.7840462375 1.8974821136 2.0119052671 2.1243706857 2.232221744 
2.3334263672 2.426721652 2.5115728246 1.4671972081 1.3575464161 1.24411054 1.1296873865 1.0172219679 0.90937090954 
0.80816628637 0.71487100155 0.63001982895 3.6007720849 3.4966939854 3.3839471039 3.2645756454 3.1415926536 3.0186096618 
2.8992382033 2.7864913217 2.6824132222 5.8240058758 5.9280839753 6.0408308569 6.1602023154 6.2831853072 0.12298299178 
0.2423544503 0.35510133185 0.45917943135 6.0560271438 5.7885595667 5.9702140275 5.5125918794 5.6029703303 5.7885595667 
5.2659633393 5.2659633393 5.2659633393 5.2659633393 5.0674903122 5.0120975802 4.9155579264 4.7123889804 4.1588146215 
4.9155579264 4.8353719722 4.7123889804 4.5092200343 4.1588146215 3.6362183941 4.8004512023 4.7123889804 4.5894059886 
4.4126803806 4.1588146215 3.8218076305 3.4545639333 4.7123889804 4.6243267584 4.5092200343 4.3572876485 4.1588146215 
3.9121860814 3.6362183941 3.368750817 6.0174235957 5.9434319871 5.8263323547 5.8809213739 5.7674481418 5.6279784266 
5.8278025282 5.718968232 5.5891129425 5.4372443565 5.7823484065 5.678536687 5.5575666702 5.4192596322 5.2659633393 
5.743164462 5.6444075337 5.5314983644 5.4046708639 5.2659633393 5.1195510325 5.7091357773 5.6152775188 5.5096229709 
5.3926039573 5.2659633393 5.1329233157 4.9978930058 5.6793730533 5.5901633916 5.4910209005 5.3824597928 5.2659633393 
5.1440684722 5.0201624502 4.8979782167 5.5683143056 5.4750190208 5.4750190208 5.3738143976 5.3738143976 5.3738143976 
5.2659633393 5.2659633393 5.2659633393 5.2659633393 5.1534979207 5.1534979207 5.1534979207 5.1534979207 5.1534979207 
5.0390747672 5.0390747672 5.0390747672 5.0390747672 5.0390747672 5.0390747672 4.9256388911 4.9256388911 4.9256388911 
4.9256388911 4.9256388911 4.9256388911 4.9256388911 4.8159880991 4.8159880991 4.8159880991 4.8159880991 4.8159880991 
4.8159880991 4.8159880991 4.8159880991 4.6087898617 4.6087898617 4.4991390697 4.6087898617 4.4991390697 4.3857031936 
4.6087898617 4.4991390697 4.3857031936 4.2712800401 4.6087898617 4.4991390697 4.3857031936 4.2712800401 4.1588146215 
4.6087898617 4.4991390697 4.3857031936 4.2712800401 4.1588146215 4.0509635631 4.6087898617 4.4991390697 4.3857031936 
4.2712800401 4.1588146215 4.0509635631 3.94975894 4.6087898617 4.4991390697 4.3857031936 4.2712800401 4.1588146215 
4.0509635631 3.94975894 3.8564636551 4.526799744 4.4046155105 4.426884955 4.2807094886 4.2918546451 4.3052269283 
4.1588146215 4.1588146215 4.1588146215 4.1588146215 4.042318168 4.0321740035 4.0201070968 4.0055183285 3.9875336042 
3.9337570603 3.9151549899 3.8932795963 3.8672112905 3.8356650183 3.7967995342 3.8346145692 3.809500442 3.7803704271 
3.7462412737 3.7058097288 3.657329819 3.5984456061 3.7454049075 3.7156421835 3.6816134988 3.6424295543 3.5969754326 
3.5438565869 3.4813459737 3.4073543651 3.5642842451 3.4524645613 3.5233842518 3.3320300872 3.403123212 3.4773852225 
3.20576226 3.2746326772 3.348015857 3.4255060145 3.0774230472 3.1415926536 3.2112816139 3.2864685043 3.3668817272 
2.95115522 3.00855263 3.0719036933 3.1415926536 3.2178377658 3.3005964304 2.8307207459 2.8800620952 2.9351694502 
2.9967168029 3.0653475414 3.1415926536 3.225752376 2.718901062 2.7598010554 2.8058000847 2.8576792927 2.91630358 
2.9825888767 3.0574329311 3.1415926536 3.5642842451 3.5233842518 3.4524645613 3.4773852225 3.403123212 3.3320300872 
3.4255060145 3.348015857 3.2746326772 3.20576226 3.3668817272 3.2864685043 3.2112816139 3.1415926536 3.0774230472 
3.3005964304 3.2178377658 3.1415926536 3.0719036933 3.00855263 2.95115522 3.225752376 3.1415926536 3.0653475414 
2.9967168029 2.9351694502 2.8800620952 2.8307207459 3.1415926536 3.0574329311 2.9825888767 2.91630358 2.8576792927 
2.8058000847 2.7598010554 2.718901062 4.526799744 4.426884955 4.4046155105 4.3052269283 4.2918546451 4.2807094886 
4.1588146215 4.1588146215 4.1588146215 4.1588146215 3.9875336042 4.0055183285 4.0201070968 4.0321740035 4.042318168 
3.7967995342 3.8356650183 3.8672112905 3.8932795963 3.9151549899 3.9337570603 3.5984456061 3.657329819 3.7058097288 
3.7462412737 3.7803704271 3.809500442 3.8346145692 3.4073543651 3.4813459737 3.5438565869 3.5969754326 3.6424295543 
3.6816134988 3.7156421835 3.7454049075 4.7123889804 4.8004512023 4.6243267584 4.9155579264 4.7123889804 4.5092200343 
5.0674903122 4.8353719722 4.5894059886 4.3572876485 5.2659633393 5.0120975802 4.7123889804 4.4126803806 4.1588146215 
5.5125918794 5.2659633393 4.9155579264 4.5092200343 4.1588146215 3.9121860814 5.7885595667 5.6029703303 5.2659633393 
4.7123889804 4.1588146215 3.8218076305 3.6362183941 6.0560271438 5.9702140275 5.7885595667 5.2659633393 4.1588146215 
3.6362183941 3.4545639333 3.368750817 0.22715816343 0.49462574053 0.3129712797 0.77059342779 0.68021497688 0.49462574053 
1.0172219679 1.0172219679 1.0172219679 1.0172219679 1.2156949949 1.271087727 1.3676273807 1.5707963268 2.1243706857 
1.3676273807 1.447813335 1.5707963268 1.7739652728 2.1243706857 2.6469669131 1.4827341049 1.5707963268 1.6937793186 
1.8705049266 2.1243706857 2.4613776767 2.8286213739 1.5707963268 1.6588585487 1.7739652728 1.9258976586 2.1243706857 
2.3709992258 2.6469669131 2.9144344902 1.7563855631 1.8785697967 1.8563003522 2.0024758186 1.9913306621 1.9779583789 
2.1243706857 2.1243706857 2.1243706857 2.1243706857 2.2408671392 2.2510113037 2.2630782103 2.2776669786 2.295651703 
2.3494282469 2.3680303173 2.3899057108 2.4159740166 2.4475202889 2.486385773 2.448570738 2.4736848652 2.5028148801 
2.5369440334 2.5773755784 2.6258554882 2.6847397011 2.5377803997 2.5675431237 2.6015718084 2.6407557529 2.6862098746 
2.7393287203 2.8018393335 2.8758309421 1.6743954455 1.6743954455 1.7840462375 1.6743954455 1.7840462375 1.8974821136 
1.6743954455 1.7840462375 1.8974821136 2.0119052671 1.6743954455 1.7840462375 1.8974821136 2.0119052671 2.1243706857 
1.6743954455 1.7840462375 1.8974821136 2.0119052671 2.1243706857 2.232221744 1.6743954455 1.7840462375 1.8974821136 
2.0119052671 2.1243706857 2.232221744 2.3334263672 1.6743954455 1.7840462375 1.8974821136 2.0119052671 2.1243706857 
2.232221744 2.3334263672 2.426721652 1.4671972081 1.3575464161 1.4671972081 1.24411054 1.3575464161 1.4671972081 
1.1296873865 1.24411054 1.3575464161 1.4671972081 1.0172219679 1.1296873865 1.24411054 1.3575464161 1.4671972081 
0.90937090954 1.0172219679 1.1296873865 1.24411054 1.3575464161 1.4671972081 0.80816628637 0.90937090954 1.0172219679 
1.1296873865 1.24411054 1.3575464161 1.4671972081 0.71487100155 0.80816628637 0.90937090954 1.0172219679 1.1296873865 
1.24411054 1.3575464161 1.4671972081 0.60381225391 0.57404952988 0.69302191562 0.54002084522 0.66790778838 0.79216440667 
0.50083690068 0.63877777351 0.77356233629 0.90072551443 0.45538277901 0.60464862014 0.75168694275 0.89058134991 1.0172219679 
0.40226393329 0.56421707518 0.72561863695 0.87851444325 1.0172219679 1.139116835 0.33975332011 0.51573716537 0.69407236469 
0.86392567495 1.0172219679 1.1502619915 1.2630228569 0.26576171152 0.45685295248 0.6552068806 0.84594095064 1.0172219679 
1.1636342747 1.2852923014 1.3852070904 0.22715816343 0.3129712797 0.49462574053 0.49462574053 0.68021497688 0.77059342779 
1.0172219679 1.0172219679 1.0172219679 1.0172219679 2.1243706857 1.5707963268 1.3676273807 1.271087727 1.2156949949 
2.6469669131 2.1243706857 1.7739652728 1.5707963268 1.447813335 1.3676273807 2.8286213739 2.4613776767 2.1243706857 
1.8705049266 1.6937793186 1.5707963268 1.4827341049 2.9144344902 2.6469669131 2.3709992258 2.1243706857 1.9258976586 
1.7739652728 1.6588585487 1.5707963268 1.7563855631 1.8563003522 1.8785697967 1.9779583789 1.9913306621 2.0024758186 
2.1243706857 2.1243706857 2.1243706857 2.1243706857 2.295651703 2.2776669786 2.2630782103 2.2510113037 2.2408671392 
2.486385773 2.4475202889 2.4159740166 2.3899057108 2.3680303173 2.3494282469 2.6847397011 2.6258554882 2.5773755784 
2.5369440334 2.5028148801 2.4736848652 2.448570738 2.8758309421 2.8018393335 2.7393287203 2.6862098746 2.6407557529 
2.6015718084 2.5675431237 2.5377803997 5.8604937156 5.901393709 5.9723133995 5.9473927383 6.0216547488 6.0927478736 
5.9992719463 6.0767621038 6.1501452836 6.2190157008 6.0578962336 6.1383094565 6.2134963469 0 0.064169606361 
6.1241815303 6.206940195 6.2831853072 0.069688960264 0.13304002361 0.19043743361 6.1990255847 0 0.07624511221 
0.14487585072 0.20642320337 0.26153055843 0.3108719077 0 0.084159722458 0.15900377685 0.22528907359 0.28391336087 
0.3357925689 0.38179159818 0.42269159155 5.8604937156 5.9723133995 5.901393709 6.0927478736 6.0216547488 5.9473927383 
6.2190157008 6.1501452836 6.0767621038 5.9992719463 0.064169606361 0 6.2134963469 6.1383094565 6.0578962336 
0.19043743361 0.13304002361 0.069688960264 6.2831853072 6.206940195 6.1241815303 0.3108719077 0.26153055843 0.20642320337 
0.14487585072 0.07624511221 6.2831853072 6.1990255847 0.42269159155 0.38179159818 0.3357925689 0.28391336087 0.22528907359 
0.15900377685 0.084159722458 0 5.6793730533 5.7091357773 5.5901633916 5.743164462 5.6152775188 5.4910209005 
5.7823484065 5.6444075337 5.5096229709 5.3824597928 5.8278025282 5.678536687 5.5314983644 5.3926039573 5.2659633393 
5.8809213739 5.718968232 5.5575666702 5.4046708639 5.2659633393 5.1440684722 5.9434319871 5.7674481418 5.5891129425 
5.4192596322 5.2659633393 5.1329233157 5.0201624502 6.0174235957 5.8263323547 5.6279784266 5.4372443565 5.2659633393 
5.1195510325 4.9978930058 4.8979782167 1.3852070904 1.2852923014 1.2630228569 1.1636342747 1.1502619915 1.139116835 
1.0172219679 1.0172219679 1.0172219679 1.0172219679 0.84594095064 0.86392567495 0.87851444325 0.89058134991 0.90072551443 
0.6552068806 0.69407236469 0.72561863695 0.75168694275 0.77356233629 0.79216440667 0.45685295248 0.51573716537 0.56421707518 
0.60464862014 0.63877777351 0.66790778838 0.69302191562 0.26576171152 0.33975332011 0.40226393329 0.45538277901 0.50083690068 
0.54002084522 0.57404952988 0.60381225391 
_paraPhiHalf 1 1002 double
0 3.1415926536 0 3.1415926536 1.5707963268 1.5707963268 1.5707963268 1.5707963268 2.5880182947 
0.5535743589 2.5880182947 0.5535743589 0 0 0 0 3.1415926536 3.1415926536 
3.1415926536 3.1415926536 3.1415926536 0.17788134 0.38438696014 0.60631181711 0.82323535693 1.0172219679 1.1799687454 
1.3118704726 1.4175000338 1.5022335207 0.17788134 0.38438696014 0.60631181711 0.82323535693 1.0172219679 1.1799687454 
1.3118704726 1.4175000338 1.5022335207 0.093902416448 0.17615329733 0.2478725152 0.31035131605 0.36486382811 0.41257334776 
0.45449736604 0.4915044461 0.52432611754 0.093902416448 0.17615329733 0.2478725152 0.31035131605 0.36486382811 0.41257334776 
0.45449736604 0.4915044461 0.52432611754 2.9637113136 2.7572056934 2.5352808365 2.3183572967 2.1243706857 1.9616239082 
1.829722181 1.7240926197 1.6393591329 2.9637113136 2.7572056934 2.5352808365 2.3183572967 2.1243706857 1.9616239082 
1.829722181 1.7240926197 1.6393591329 3.0476902371 2.9654393563 2.8937201384 2.8312413375 2.7767288255 2.7290193058 
2.6870952876 2.6500882075 2.617266536 3.0476902371 2.9654393563 2.8937201384 2.8312413375 2.7767288255 2.7290193058 
2.6870952876 2.6500882075 2.617266536 0 0 0 0 3.1415926536 3.1415926536 
3.1415926536 3.1415926536 3.1415926536 0.17788134 0.38438696014 0.60631181711 0.82323535693 1.0172219679 1.1799687454 
1.3118704726 1.4175000338 1.5022335207 0.17788134 0.38438696014 0.60631181711 0.82323535693 1.0172219679 1.1799687454 
1.3118704726 1.4175000338 1.5022335207 0.093902416448 0.17615329733 0.2478725152 0.31035131605 0.36486382811 0.41257334776 
0.45449736604 0.4915044461 0.52432611754 0.093902416448 0.17615329733 0.2478725152 0.31035131605 0.36486382811 0.41257334776 
0.45449736604 0.4915044461 0.52432611754 2.9637113136 2.7572056934 2.5352808365 2.3183572967 2.1243706857 1.9616239082 
1.829722181 1.7240926197 1.6393591329 2.9637113136 2.7572056934 2.5352808365 2.3183572967 2.1243706857 1.9616239082 
1.829722181 1.7240926197 1.6393591329 3.0476902371 2.9654393563 2.8937201384 2.8312413375 2.7767288255 2.7290193058 
2.6870952876 2.6500882075 2.617266536 3.0476902371 2.9654393563 2.8937201384 2.8312413375 2.7767288255 2.7290193058 
2.6870952876 2.6500882075 2.617266536 1.5707963268 1.5707963268 1.5707963268 1.5707963268 1.5707963268 1.5707963268 
1.5707963268 1.5707963268 1.5707963268 1.6743954455 1.7840462375 1.8974821136 2.0119052671 2.1243706857 2.232221744 
2.3334263672 2.426721652 2.5115728246 1.4671972081 1.3575464161 1.24411054 1.1296873865 1.0172219679 0.90937090954 
0.80816628637 0.71487100155 0.63001982895 1.6743954455 1.7840462375 1.8974821136 2.0119052671 2.1243706857 2.232221744 
2.3334263672 2.426721652 2.5115728246 1.4671972081 1.3575464161 1.24411054 1.1296873865 1.0172219679 0.90937090954 
0.80816628637 0.71487100155 0.63001982895 1.5707963268 1.5707963268 1.5707963268 1.5707963268 1.5707963268 1.5707963268 
1.5707963268 1.5707963268 1.5707963268 1.6743954455 1.7840462375 1.8974821136 2.0119052671 2.1243706857 2.232221744 
2.3334263672 2.426721652 2.5115728246 1.4671972081 1.3575464161 1.24411054 1.1296873865 1.0172219679 0.90937090954 
0.80816628637 0.71487100155 0.63001982895 1.6743954455 1.7840462375 1.8974821136 2.0119052671 2.1243706857 2.232221744 
2.3334263672 2.426721652 2.5115728246 1.4671972081 1.3575464161 1.24411054 1.1296873865 1.0172219679 0.90937090954 
0.80816628637 0.71487100155 0.63001982895 2.6824132222 2.7864913217 2.8992382033 3.0186096618 3.1415926536 3.0186096618 
2.8992382033 2.7864913217 2.6824132222 0.45917943135 0.35510133185 0.2423544503 0.12298299178 0 0.12298299178 
0.2423544503 0.35510133185 0.45917943135 0.22715816343 0.49462574053 0.3129712797 0.77059342779 0.68021497688 0.49462574053 
1.0172219679 1.0172219679 1.0172219679 1.0172219679 1.2156949949 1.271087727 1.3676273807 1.5707963268 2.1243706857 
1.3676273807 1.447813335 1.5707963268 1.7739652728 2.1243706857 2.6469669131 1.4827341049 1.5707963268 1.6937793186 
1.8705049266 2.1243706857 2.4613776767 2.8286213739 1.5707963268 1.6588585487 1.7739652728 1.9258976586 2.1243706857 
2.3709992258 2.6469669131 2.9144344902 0.26576171152 0.33975332011 0.45685295248 0.40226393329 0.51573716537 0.6552068806 
0.45538277901 0.56421707518 0.69407236469 0.84594095064 0.50083690068 0.60464862014 0.72561863695 0.86392567495 1.0172219679 
0.54002084522 0.63877777351 0.75168694275 0.87851444325 1.0172219679 1.1636342747 0.57404952988 0.66790778838 0.77356233629 
0.89058134991 1.0172219679 1.1502619915 1.2852923014 0.60381225391 0.69302191562 0.79216440667 0.90072551443 1.0172219679 
1.139116835 1.2630228569 1.3852070904 0.71487100155 0.80816628637 0.80816628637 0.90937090954 0.90937090954 0.90937090954 
1.0172219679 1.0172219679 1.0172219679 1.0172219679 1.1296873865 1.1296873865 1.1296873865 1.1296873865 1.1296873865 
1.24411054 1.24411054 1.24411054 1.24411054 1.24411054 1.24411054 1.3575464161 1.3575464161 1.3575464161 
1.3575464161 1.3575464161 1.3575464161 1.3575464161 1.4671972081 1.4671972081 1.4671972081 1.4671972081 1.4671972081 
1.4671972081 1.4671972081 1.4671972081 1.6743954455 1.6743954455 1.7840462375 1.6743954455 1.7840462375 1.8974821136 
1.6743954455 1.7840462375 1.8974821136 2.0119052671 1.6743954455 1.7840462375 1.8974821136 2.0119052671 2.1243706857 
1.6743954455 1.7840462375 1.8974821136 2.0119052671 2.1243706857 2.232221744 1.6743954455 1.7840462375 1.8974821136 
2.0119052671 2.1243706857 2.232221744 2.3334263672 1.6743954455 1.7840462375 1.8974821136 2.0119052671 2.1243706857 
2.232221744 2.3334263672 2.426721652 1.7563855631 1.8785697967 1.8563003522 2.0024758186 1.9913306621 1.9779583789 
2.1243706857 2.1243706857 2.1243706857 2.1243706857 2.2408671392 2.2510113037 2.2630782103 2.2776669786 2.295651703 
2.3494282469 2.3680303173 2.3899057108 2.4159740166 2.4475202889 2.486385773 2.448570738 2.4736848652 2.5028148801 
2.5369440334 2.5773755784 2.6258554882 2.6847397011 2.5377803997 2.5675431237 2.6015718084 2.6407557529 2.6862098746 
2.7393287203 2.8018393335 2.8758309421 2.718901062 2.8307207459 2.7598010554 2.95115522 2.8800620952 2.8058000847 
3.0774230472 3.00855263 2.9351694502 2.8576792927 3.0774230472 3.1415926536 3.0719036933 2.9967168029 2.91630358 
2.95115522 3.00855263 3.0719036933 3.1415926536 3.0653475414 2.9825888767 2.8307207459 2.8800620952 2.9351694502 
2.9967168029 3.0653475414 3.1415926536 3.0574329311 2.718901062 2.7598010554 2.8058000847 2.8576792927 2.91630358 
2.9825888767 3.0574329311 3.1415926536 2.718901062 2.7598010554 2.8307207459 2.8058000847 2.8800620952 2.95115522 
2.8576792927 2.9351694502 3.00855263 3.0774230472 2.91630358 2.9967168029 3.0719036933 3.1415926536 3.0774230472 
2.9825888767 3.0653475414 3.1415926536 3.0719036933 3.00855263 2.95115522 3.0574329311 3.1415926536 3.0653475414 