# vtk DataFile Version 5.1
vtk output
ASCII
DATASET POLYDATA
POINTS 1002 float
-5.90658 -0.244342 -3.08179 6.00985 0.259761 -4.83252 -5.44153 0.175847 4.18515 
5.75723 -0.518078 4.2616 0.0608457 7.3905 -3.81449 -0.295397 8.02462 3.84421 
-0.480258 -7.1129 -3.07723 -1.15658 -8.07902 3.86485 10.406 5.6264 -0.620892 
-10.6665 5.40738 -0.176704 12.6708 -4.84257 -1.28601 -10.7905 -5.28088 -0.762878 
-4.95347 -0.118075 -3.09644 -3.93012 0.00190386 -3.41661 -2.74898 0.136135 -3.95106 
-1.44167 0.250662 -4.41858 -0.188911 0.265758 -4.74805 0.958851 0.20783 -5.16195 
2.16886 0.209058 -5.62601 3.51008 0.288482 -5.75479 4.83792 0.327707 -5.40115 
-5.43548 0.411978 -2.69686 -4.97184 1.07249 -2.49748 -4.4461 1.8836 -2.63731 
-3.79751 2.88041 -3.06063 -3.09632 3.84629 -3.49982 -2.45477 4.62593 -3.70432 
-1.85944 5.35197 -3.69133 -1.23251 6.13341 -3.67383 -0.572191 6.85628 -3.75105 
-5.76374 -0.879928 -3.40429 -5.45952 -1.57618 -3.53659 -4.93289 -2.31972 -3.32895 
-4.28388 -3.10909 -2.90822 -3.65958 -3.88257 -2.60117 -3.05794 -4.5611 -2.59404 
-2.39735 -5.19251 -2.81212 -1.69718 -5.87231 -3.07247 -1.04487 -6.5566 -3.19763 
-6.59894 0.0673992 -3.00699 -7.4252 0.424955 -3.13609 -8.3407 0.823839 -3.36614 
-9.16547 1.28994 -3.41923 -9.7703 1.85736 -3.2045 -10.2041 2.53089 -2.88467 
-10.5404 3.28727 -2.49305 -10.7504 4.07495 -1.88415 -10.7881 4.80908 -1.05307 
-6.8868 -0.837228 -3.43961 -8.02626 -1.57579 -3.69387 -9.19077 -2.31613 -3.74024 
-10.2828 -2.97356 -3.84434 -11.2438 -3.67781 -4.12228 -11.8857 -4.49955 -4.06373 
-12.0038 -5.18834 -3.27131 -11.6865 -5.48551 -2.1455 -11.2241 -5.44508 -1.27176 
5.58665 0.930532 -5.21875 5.08851 1.61422 -5.48329 4.53083 2.42524 -5.66584 
3.9608 3.38564 -5.85434 3.41816 4.30466 -5.90012 2.85552 5.04285 -5.58515 
2.18701 5.7096 -5.05557 1.42982 6.39036 -4.61175 0.694807 6.98119 -4.25868 
5.64478 -0.436363 -4.71778 5.10132 -1.27669 -4.5441 4.48097 -2.12182 -4.33498 
3.973 -2.80118 -4.01915 3.55222 -3.35732 -3.49093 2.91043 -4.00786 -2.84774 
1.92188 -4.81164 -2.41767 0.874442 -5.63459 -2.41945 0.0700788 -6.39649 -2.73537 
6.8352 0.562895 -4.52418 7.65155 0.917701 -4.26657 8.47173 1.41806 -4.0787 
9.2242 2.05921 -3.81697 9.82306 2.74999 -3.37988 10.2765 3.44091 -2.92197 
10.6014 4.13288 -2.56724 10.7378 4.78216 -2.13749 10.6526 5.30093 -1.45459 
6.96259 -0.298067 -4.26021 7.99463 -0.944383 -3.91922 9.03626 -1.55848 -3.85782 
10.0068 -2.07805 -3.73431 10.9347 -2.62698 -3.26904 11.8939 -3.35769 -2.73888 
12.748 -4.16703 -2.49591 13.1968 -4.75666 -2.35938 13.1197 -4.9552 -1.96773 
-4.6522 0.104593 4.46531 -3.76545 -0.0149296 4.83195 -2.6611 -0.120193 5.24301 
-1.28629 -0.153302 5.4812 0.187482 -0.170842 5.43797 1.53892 -0.255098 5.33054 
2.7481 -0.366985 5.32204 3.87619 -0.435713 5.22253 4.89242 -0.474501 4.83699 
-5.18883 0.885567 4.4351 -4.89264 1.63437 4.70004 -4.54579 2.46622 4.91077 
-4.07745 3.428 5.03116 -3.43398 4.45366 5.05356 -2.70196 5.39675 4.95806 
-2.01827 6.21054 4.74459 -1.40831 6.93976 4.46547 -0.832974 7.56824 4.16677 
-5.16593 -0.612876 4.18487 -4.82809 -1.53871 4.34832 -4.43151 -2.51481 4.58756 
-3.96312 -3.42568 4.68038 -3.40218 -4.27129 4.56249 -2.79326 -5.10967 4.403 
-2.24694 -5.92035 4.30828 -1.82258 -6.67498 4.21812 -1.48088 -7.39803 4.0723 
-6.10061 0.658147 4.06289 -6.81905 1.20821 3.85663 -7.55496 1.87125 3.47072 
-8.26372 2.58508 2.97034 -8.92181 3.24758 2.5167 -9.53538 3.87276 2.13316 
-10.107 4.50553 1.70253 -10.5636 5.04673 1.15236 -10.7726 5.35157 0.503368 
-6.08056 -0.25664 3.84463 -6.74167 -0.72679 3.36094 -7.37158 -1.20089 2.71484 
-7.99277 -1.70052 2.0519 -8.68075 -2.27403 1.51584 -9.41222 -2.90486 1.02514 
-10.0436 -3.5274 0.471665 -10.4686 -4.12032 -0.0468093 -10.6969 -4.70528 -0.431399 
5.42091 0.118526 4.24374 4.96118 0.831708 4.11232 4.35306 1.65494 3.91472 
3.61962 2.58423 3.76764 2.8187 3.55194 3.68534 2.00725 4.49634 3.60097 
1.25069 5.42397 3.54466 0.620916 6.35493 3.59958 0.128896 7.24884 3.73835 
5.50979 -1.13384 4.57698 5.14664 -1.82465 4.83983 4.61392 -2.59512 5.14248 
3.87187 -3.47769 5.55803 2.95053 -4.47392 5.93306 1.95919 -5.45443 5.98133 
1.01427 -6.27115 5.6151 0.174781 -6.93831 5.01209 -0.547497 -7.54189 4.39362 
6.39705 -0.162862 3.65726 7.12008 0.285923 3.16723 7.95365 0.876213 2.9183 
8.80575 1.57877 2.69032 9.51506 2.33236 2.22909 10.0251 3.16505 1.69863 
10.3757 4.08938 1.31495 10.5622 4.92381 0.895283 10.5597 5.44504 0.217799 
6.46072 -0.9457 3.89112 7.29522 -1.39592 3.68621 8.37524 -1.79309 3.79889 
9.67432 -2.08265 4.0325 10.8982 -2.32166 3.87829 11.7281 -2.62966 3.07698 
12.1681 -3.06594 1.89721 12.4355 -3.61804 0.705226 12.6256 -4.23801 -0.365896 
0.0605561 7.8314 -3.35036 0.0262627 8.32289 -2.5468 -0.065293 9.01633 -1.4595 
-0.251065 9.78531 -0.326464 -0.493399 10.1984 0.65908 -0.630825 10.0483 1.52704 
-0.557195 9.6008 2.35775 -0.381631 9.12946 3.0813 -0.279847 8.62742 3.57865 
1.09877 7.56076 -4.03544 2.2355 7.56594 -3.9288 3.35207 7.39187 -3.49297 
4.42611 7.09964 -2.95176 5.56185 6.76425 -2.51986 6.77073 6.43639 -2.21616 
7.90471 6.17147 -1.94108 8.87414 5.99983 -1.5961 9.70451 5.85768 -1.14147 
-0.890579 7.41219 -3.15925 -1.8934 7.3896 -2.3574 -3.07025 7.35337 -1.695 
-4.41283 7.27917 -1.3884 -5.67097 7.11483 -1.30964 -6.69843 6.85504 -1.17048 
-7.69157 6.54152 -0.909788 -8.80913 6.20217 -0.643303 -9.884 5.83025 -0.41098 
0.512784 7.86982 3.4145 1.41616 7.54007 2.90167 2.43913 7.08817 2.35157 
3.64367 6.68556 1.81963 5.04332 6.49125 1.38221 6.46964 6.45407 1.08153 
7.71308 6.393 0.8203 8.74673 6.22881 0.440247 9.64231 5.97684 -0.0805917 
-1.10407 8.45783 4.06203 -2.12736 8.75505 4.12456 -3.42475 8.88807 4.02801 
-4.92378 8.90934 3.85474 -6.39916 8.82483 3.58635 -7.63004 8.50734 3.06681 
-8.58119 7.87955 2.27237 -9.36267 7.06065 1.38501 -10.0581 6.2163 0.557724 
-0.481444 -7.89919 -2.96662 -0.578188 -8.76534 -2.58262 -0.745893 -9.48857 -1.96777 
-0.901355 -9.8431 -1.18977 -1.02412 -9.89935 -0.247707 -1.16397 -9.89549 0.833965 
-1.30214 -9.80991 1.88894 -1.35146 -9.4424 2.74301 -1.28566 -8.7981 3.37528 
0.464609 -6.98978 -2.51003 1.77152 -6.6404 -1.73268 3.41378 -6.37925 -1.08844 
5.08436 -6.5153 -0.98549 6.53469 -6.94375 -1.4571 7.8924 -7.20018 -2.06956 
9.34498 -6.97582 -2.36494 10.7588 -6.35554 -2.23439 11.8858 -5.58767 -1.82507 
-1.28793 -7.42226 -3.40808 -2.30331 -7.46023 -3.45945 -3.70248 -7.25788 -3.30311 
-5.27173 -6.99885 -3.20258 -6.60701 -6.8519 -3.19712 -7.67116 -6.82541 -2.95358 
-8.69028 -6.77292 -2.30429 -9.64599 -6.51289 -1.54928 -10.3536 -5.98281 -1.02636 
-0.382101 -8.31365 3.88057 0.643456 -8.22535 3.7382 1.95379 -7.76524 3.34508 
3.55954 -7.09928 2.73551 5.42618 -6.45339 2.07795 7.35008 -5.91755 1.45229 
9.04541 -5.50027 0.761286 10.4331 -5.21914 -0.0268703 11.6254 -5.03614 -0.760631 
-1.92398 -8.06791 3.51939 -2.76941 -7.88705 3.12771 -3.77246 -7.64442 2.63644 
-4.89008 -7.42046 2.05189 -5.99816 -7.14495 1.46215 -7.08657 -6.71863 0.903037 
-8.20282 -6.22069 0.354256 -9.2544 -5.81756 -0.129842 -10.1124 -5.53871 -0.485328 
11.1987 5.03666 -0.5645 11.906 4.06969 -0.416694 12.5469 2.72626 -0.226143 
13.2888 1.22808 -0.0940558 14.1823 -0.160458 -0.0901055 14.8952 -1.36879 -0.214407 
15.0162 -2.45101 -0.452325 14.5115 -3.40594 -0.775939 13.648 -4.1993 -1.09257 
-11.3119 4.5593 -0.433181 -11.7812 3.52738 -0.628633 -12.1556 2.31814 -0.69046 
-12.6435 1.01984 -0.567282 -13.1888 -0.245352 -0.393284 -13.3536 -1.41822 -0.409949 
-12.9028 -2.52554 -0.625486 -12.1318 -3.58543 -0.807069 -11.4061 -4.53401 -0.825376 
-4.49526 0.521003 -2.94173 -3.97084 1.254 -3.01437 -3.44807 0.664679 -3.62565 
-3.30968 2.18427 -3.28948 -2.79205 1.48813 -3.88431 -2.17126 0.854668 -4.36692 
-2.57425 3.1613 -3.62001 -1.99421 2.44 -4.0732 -1.39254 1.70567 -4.58482 
-0.767003 0.998204 -4.77117 -1.91913 3.94874 -3.86961 -1.26279 3.28262 -4.23342 
-0.598948 2.56908 -4.71441 0.00564308 1.79509 -4.9686 0.536112 1.00987 -5.03644 
-1.34498 4.6382 -3.99821 -0.675837 3.97279 -4.42532 0.0405974 3.34006 -4.9792 
0.682096 2.59909 -5.32407 1.25111 1.77135 -5.40088 1.75399 0.97337 -5.49767 
-0.715654 5.44826 -4.07825 -0.0596856 4.73935 -4.5744 0.657186 4.11935 -5.24773 
1.30755 3.45233 -5.7757 1.89918 2.61137 -5.90298 2.49197 1.74566 -5.87163 
3.04585 0.991193 -5.87606 -0.00207695 6.30326 -4.18354 0.682555 5.61862 -4.63156 
1.40755 4.95827 -5.26347 2.05385 4.32236 -5.89499 2.6209 3.52473 -6.14923 
3.20541 2.57919 -6.0624 3.81636 1.71775 -5.92682 4.37464 1.0056 -5.7507 
-6.12462 0.765779 -2.60215 -6.99104 1.15014 -2.80317 -5.65308 1.48177 -2.42034 
-7.89774 1.61397 -3.0354 -6.46257 1.95618 -2.6243 -5.06947 2.40652 -2.62577 
-8.58885 2.23398 -2.97622 -7.19246 2.59057 -2.70199 -5.71627 3.03708 -2.73542 
-4.32742 3.52317 -3.09687 -9.00496 2.98393 -2.70563 -7.66879 3.39586 -2.47007 
-6.2564 3.81153 -2.55627 -4.83955 4.24719 -2.99987 -3.55183 4.55179 -3.44277 
-9.30875 3.74962 -2.42911 -7.98238 4.20539 -2.2086 -6.6949 4.6098 -2.18251 
-5.37097 4.98033 -2.53866 -4.03118 5.26758 -3.04533 -2.85508 5.37876 -3.41807 
-9.59115 4.48042 -2.02108 -8.28531 4.90093 -1.98218 -7.09963 5.28627 -1.92941 
-5.94948 5.61697 -2.04349 -4.63863 5.89018 -2.35268 -3.31649 6.06693 -2.76581 
-2.20351 6.13171 -3.21302 -9.80035 5.18491 -1.31064 -8.57919 5.54691 -1.48752 
-7.44086 5.89246 -1.6114 -6.43124 6.20293 -1.69518 -5.26736 6.46021 -1.7702 
-3.89435 6.64968 -1.98391 -2.60685 6.77115 -2.46455 -1.543 6.83909 -3.12349 
-9.19924 6.73902 0.420851 -8.44747 7.72034 1.37593 -8.08487 7.18962 0.207413 
-7.57821 8.6238 2.2934 -7.25733 8.26067 1.15294 -6.94038 7.57897 -0.168923 
-6.49543 9.19947 2.92263 -6.26901 9.15441 1.92119 -5.98417 8.67227 0.606307 
-5.83806 7.89956 -0.586744 -5.17712 9.39522 3.22419 -5.14218 9.61838 2.3334 
-4.89688 9.50191 1.16464 -4.7183 8.94368 -0.0126033 -4.62691 8.08735 -0.848367 
-3.7418 9.39996 3.42141 -3.93287 9.73962 2.57168 -3.84415 9.91512 1.51811 
-3.6065 9.71326 0.427812 -3.43202 9.00432 -0.455883 -3.28882 8.09788 -1.10192 
-2.37517 9.31298 3.61786 -2.67396 9.72028 2.84457 -2.80102 10.0544 1.87595 
[...]
POINT_DATA 1002
FIELD FieldData 4
_paraPhi 1 1002 double
6.2831853072 3.1415926536 6.2831853072 3.1415926536 4.7123889804 4.7123889804 1.5707963268 1.5707963268 3.6951670125 
5.7296109483 2.5880182947 0.5535743589 6.2831853072 6.2831853072 6.2831853072 6.2831853072 3.1415926536 3.1415926536 
3.1415926536 3.1415926536 3.1415926536 6.1053039672 5.898798347 5.6768734901 5.4599499503 5.2659633393 5.1032165617 
4.9713148346 4.8656852733 4.7809517865 0.17788134 0.38438696014 0.60631181711 0.82323535693 1.0172219679 1.1799687454 
1.3118704726 1.4175000338 1.5022335207 6.1892828907 6.1070320098 6.035312792 5.9728339911 5.9183214791 5.8706119594 
5.8286879411 5.7916808611 5.7588591896 0.093902416448 0.17615329733 0.2478725152 0.31035131605 0.36486382811 0.41257334776 
0.45449736604 0.4915044461 0.52432611754 3.3194739936 3.5259796137 3.7479044707 3.9648280105 4.1588146215 4.321561399 
4.4534631262 4.5590926874 4.6438261743 2.9637113136 2.7572056934 2.5352808365 2.3183572967 2.1243706857 1.9616239082 
1.829722181 1.7240926197 1.6393591329 3.23549507 3.3177459509 3.3894651688 3.4519439696 3.5064564817 3.5541660013 
3.5960900196 3.6330970997 3.6659187711 3.0476902371 2.9654393563 2.8937201384 2.8312413375 2.7767288255 2.7290193058 
2.6870952876 2.6500882075 2.617266536 6.2831853072 6.2831853072 6.2831853072 6.2831853072 3.1415926536 3.1415926536 
3.1415926536 3.1415926536 3.1415926536 6.1053039672 5.898798347 5.6768734901 5.4599499503 5.2659633393 5.1032165617 
4.9713148346 4.8656852733 4.7809517865 0.17788134 0.38438696014 0.60631181711 0.82323535693 1.0172219679 1.1799687454 
1.3118704726 1.4175000338 1.5022335207 6.1892828907 6.1070320098 6.035312792 5.9728339911 5.9183214791 5.8706119594 
5.8286879411 5.7916808611 5.7588591896 0.093902416448 0.17615329733 0.2478725152 0.31035131605 0.36486382811 0.41257334776 
0.45449736604 0.4915044461 0.52432611754 3.3194739936 3.5259796137 3.7479044707 3.9648280105 4.1588146215 4.321561399 
4.4534631262 4.5590926874 4.6438261743 2.9637113136 2.7572056934 2.5352808365 2.3183572967 2.1243706857 1.9616239082 
1.829722181 1.7240926197 1.6393591329 3.23549507 3.3177459509 3.3894651688 3.4519439696 3.5064564817 3.5541660013 
3.5960900196 3.6330970997 3.6659187711 3.0476902371 2.9654393563 2.8937201384 2.8312413375 2.7767288255 2.7290193058 
2.6870952876 2.6500882075 2.617266536 4.7123889804 4.7123889804 4.7123889804 4.7123889804 4.7123889804 4.7123889804 
4.7123889804 4.7123889804 4.7123889804 4.6087898617 4.4991390697 4.3857031936 4.2712800401 4.1588146215 4.0509635631 
3.94975894 3.8564636551 3.7716124825 4.8159880991 4.9256388911 5.0390747672 5.1534979207 5.2659633393 5.3738143976 
5.4750190208 5.5683143056 5.6531654782 4.6087898617 4.4991390697 4.3857031936 4.2712800401 4.1588146215 4.0509635631 
3.94975894 3.8564636551 3.7716124825 4.8159880991 4.9256388911 5.0390747672 5.1534979207 5.2659633393 5.3738143976 
5.4750190208 5.5683143056 5.6531654782 1.5707963268 1.5707963268 1.5707963268 1.5707963268 1.5707963268 1.5707963268 
1.5707963268 1.5707963268 1.5707963268 1.6743954455 1.7840462375 1.8974821136 2.0119052671 2.1243706857 2.232221744 
2.3334263672 2.426721652 2.5115728246 1.4671972081 1.3575464161 1.24411054 1.1296873865 1.0172219679 0.90937090954 
0.80816628637 0.71487100155 0.63001982895 1.6743954455 1.7840462375 1.8974821136 2.0119052671 2.1243706857 2.232221744 
2.3334263672 2.426721652 2.5115728246 1.4671972081 1.3575464161 1.24411054 1.1296873865 1.0172219679 0.90937090954 
0.80816628637 0.71487100155 0.63001982895 3.6007720849 3.4966939854 3.3839471039 3.2645756454 3.1415926536 3.0186096618 
2.8992382033 2.7864913217 2.6824132222 5.8240058758 5.9280839753 6.0408308569 6.1602023154 6.2831853072 0.12298299178 
0.2423544503 0.35510133185 0.45917943135 6.0560271438 5.7885595667 5.9702140275 5.5125918794 5.6029703303 5.7885595667 
5.2659633393 5.2659633393 5.2659633393 5.2659633393 5.0674903122 5.0120975802 4.9155579264 4.7123889804 4.1588146215 
4.9155579264 4.8353719722 4.7123889804 4.5092200343 4.1588146215 3.6362183941 4.8004512023 4.7123889804 4.5894059886 
4.4126803806 4.1588146215 3.8218076305 3.4545639333 4.7123889804 4.6243267584 4.5092200343 4.3572876485 4.1588146215 
3.9121860814 3.6362183941 3.368750817 6.0174235957 5.9434319871 5.8263323547 5.8809213739 5.7674481418 5.6279784266 
5.8278025282 5.718968232 5.5891129425 5.4372443565 5.7823484065 5.678536687 5.5575666702 5.4192596322 5.2659633393 
5.743164462 5.6444075337 5.5314983644 5.4046708639 5.2659633393 5.1195510325 5.7091357773 5.6152775188 5.5096229709 
5.3926039573 5.2659633393 5.1329233157 4.9978930058 5.6793730533 5.5901633916 5.4910209005 5.3824597928 5.2659633393 
5.1440684722 5.0201624502 4.8979782167 5.5683143056 5.4750190208 5.4750190208 5.3738143976 5.3738143976 5.3738143976 
5.2659633393 5.2659633393 5.2659633393 5.2659633393 5.1534979207 5.1534979207 5.1534979207 5.1534979207 5.1534979207 
5.0390747672 5.0390747672 5.0390747672 5.0390747672 5.0390747672 5.0390747672 4.9256388911 4.9256388911 4.9256388911 
4.9256388911 4.9256388911 4.9256388911 4.9256388911 4.8159880991 4.8159880991 4.8159880991 4.8159880991 4.8159880991 
4.8159880991 4.8159880991 4.8159880991 4.6087898617 4.6087898617 4.4991390697 4.6087898617 4.4991390697 4.3857031936 
4.6087898617 4.4991390697 4.3857031936 4.2712800401 4.6087898617 4.4991390697 4.3857031936 4.2712800401 4.1588146215 
4.6087898617 4.4991390697 4.3857031936 4.2712800401 4.1588146215 4.0509635631 4.6087898617 4.4991390697 4.3857031936 
4.2712800401 4.1588146215 4.0509635631 3.94975894 4.6087898617 4.4991390697 4.3857031936 4.2712800401 4.1588146215 
4.0509635631 3.94975894 3.8564636551 4.526799744 4.4046155105 4.426884955 4.2807094886 4.2918546451 4.3052269283 
4.1588146215 4.1588146215 4.1588146215 4.1588146215 4.042318168 4.0321740035 4.0201070968 4.0055183285 3.9875336042 
3.9337570603 3.9151549899 3.8932795963 3.8672112905 3.8356650183 3.7967995342 3.8346145692 3.809500442 3.7803704271 
3.7462412737 3.7058097288 3.657329819 3.5984456061 3.7454049075 3.7156421835 3.6816134988 3.6424295543 3.5969754326 
3.5438565869 3.4813459737 3.4073543651 3.5642842451 3.4524645613 3.5233842518 3.3320300872 3.403123212 3.4773852225 
3.20576226 3.2746326772 3.348015857 3.4255060145 3.0774230472 3.1415926536 3.2112816139 3.2864685043 3.3668817272 
2.95115522 3.00855263 3.0719036933 3.1415926536 3.2178377658 3.3005964304 2.8307207459 2.8800620952 2.9351694502 
2.9967168029 3.0653475414 3.1415926536 3.225752376 2.718901062 2.7598010554 2.8058000847 2.8576792927 2.91630358 
2.9825888767 3.0574329311 3.1415926536 3.5642842451 3.5233842518 3.4524645613 3.4773852225 3.403123212 3.3320300872 
3.4255060145 3.348015857 3.2746326772 3.20576226 3.3668817272 3.2864685043 3.2112816139 3.1415926536 3.0774230472 
3.3005964304 3.2178377658 3.1415926536 3.0719036933 3.00855263 2.95115522 3.225752376 3.1415926536 3.0653475414 
2.9967168029 2.9351694502 2.8800620952 2.8307207459 3.1415926536 3.0574329311 2.9825888767 2.91630358 2.8576792927 
2.8058000847 2.7598010554 2.718901062 4.526799744 4.426884955 4.4046155105 4.3052269283 4.2918546451 4.2807094886 
4.1588146215 4.1588146215 4.1588146215 4.1588146215 3.9875336042 4.0055183285 4.0201070968 4.0321740035 4.042318168 
3.7967995342 3.8356650183 3.8672112905 3.8932795963 3.9151549899 3.9337570603 3.5984456061 3.657329819 3.7058097288 
3.7462412737 3.7803704271 3.809500442 3.8346145692 3.4073543651 3.4813459737 3.5438565869 3.5969754326 3.6424295543 
3.6816134988 3.7156421835 3.7454049075 4.7123889804 4.8004512023 4.6243267584 4.9155579264 4.7123889804 4.5092200343 
5.0674903122 4.8353719722 4.5894059886 4.3572876485 5.2659633393 5.0120975802 4.7123889804 4.4126803806 4.1588146215 
5.5125918794 5.2659633393 4.9155579264 4.5092200343 4.1588146215 3.9121860814 5.7885595667 5.6029703303 5.2659633393 
4.7123889804 4.1588146215 3.8218076305 3.6362183941 6.0560271438 5.9702140275 5.7885595667 5.2659633393 4.1588146215 
3.6362183941 3.4545639333 3.368750817 0.22715816343 0.49462574053 0.3129712797 0.77059342779 0.68021497688 0.49462574053 
1.0172219679 1.0172219679 1.0172219679 1.0172219679 1.2156949949 1.271087727 1.3676273807 1.5707963268 2.1243706857 
1.3676273807 1.447813335 1.5707963268 1.7739652728 2.1243706857 2.6469669131 1.4827341049 1.5707963268 1.6937793186 
1.8705049266 2.1243706857 2.4613776767 2.8286213739 1.5707963268 1.6588585487 1.7739652728 1.9258976586 2.1243706857 
2.3709992258 2.6469669131 2.9144344902 1.7563855631 1.8785697967 1.8563003522 2.0024758186 1.9913306621 1.9779583789 
2.1243706857 2.1243706857 2.1243706857 2.1243706857 2.2408671392 2.2510113037 2.2630782103 2.2776669786 2.295651703 
2.3494282469 2.3680303173 2.3899057108 2.4159740166 2.4475202889 2.486385773 2.448570738 2.4736848652 2.5028148801 
2.5369440334 2.5773755784 2.6258554882 2.6847397011 2.5377803997 2.5675431237 2.6015718084 2.6407557529 2.6862098746 
2.7393287203 2.8018393335 2.8758309421 1.6743954455 1.6743954455 1.7840462375 1.6743954455 1.7840462375 1.8974821136 
1.6743954455 1.7840462375 1.8974821136 2.0119052671 1.6743954455 1.7840462375 1.8974821136 2.0119052671 2.1243706857 
1.6743954455 1.7840462375 1.8974821136 2.0119052671 2.1243706857 2.232221744 1.6743954455 1.7840462375 1.8974821136 
2.0119052671 2.1243706857 2.232221744 2.3334263672 1.6743954455 1.7840462375 1.8974821136 2.0119052671 2.1243706857 
2.232221744 2.3334263672 2.426721652 1.4671972081 1.3575464161 1.4671972081 1.24411054 1.3575464161 1.4671972081 
1.1296873865 1.24411054 1.3575464161 1.4671972081 1.0172219679 1.1296873865 1.24411054 1.3575464161 1.4671972081 
0.90937090954 1.0172219679 1.1296873865 1.24411054 1.3575464161 1.4671972081 0.80816628637 0.90937090954 1.0172219679 
1.1296873865 1.24411054 1.3575464161 1.4671972081 0.71487100155 0.80816628637 0.90937090954 1.0172219679 1.1296873865 
1.24411054 1.3575464161 1.4671972081 0.60381225391 0.57404952988 0.69302191562 0.54002084522 0.66790778838 0.79216440667 
0.50083690068 0.63877777351 0.77356233629 0.90072551443 0.45538277901 0.60464862014 0.75168694275 0.89058134991 1.0172219679 
0.40226393329 0.56421707518 0.72561863695 0.87851444325 1.0172219679 1.139116835 0.33975332011 0.51573716537 0.69407236469 
0.86392567495 1.0172219679 1.1502619915 1.2630228569 0.26576171152 0.45685295248 0.6552068806 0.84594095064 1.0172219679 
1.1636342747 1.2852923014 1.3852070904 0.22715816343 0.3129712797 0.49462574053 0.49462574053 0.68021497688 0.77059342779 
1.0172219679 1.0172219679 1.0172219679 1.0172219679 2.1243706857 1.5707963268 1.3676273807 1.271087727 1.2156949949 
2.6469669131 2.1243706857 1.7739652728 1.5707963268 1.447813335 1.3676273807 2.8286213739 2.4613776767 2.1243706857 
1.8705049266 1.6937793186 1.5707963268 1.4827341049 2.9144344902 2.6469669131 2.3709992258 2.1243706857 1.9258976586 
1.7739652728 1.6588585487 1.5707963268 1.7563855631 1.8563003522 1.8785697967 1.9779583789 1.9913306621 2.0024758186 
2.1243706857 2.1243706857 2.1243706857 2.1243706857 2.295651703 2.2776669786 2.2630782103 2.2510113037 2.2408671392 
2.486385773 2.4475202889 2.4159740166 2.3899057108 2.3680303173 2.3494282469 2.6847397011 2.6258554882 2.5773755784 
2.5369440334 2.5028148801 2.4736848652 2.448570738 2.8758309421 2.8018393335 2.7393287203 2.6862098746 2.6407557529 
2.6015718084 2.5675431237 2.5377803997 5.8604937156 5.901393709 5.9723133995 5.9473927383 6.0216547488 6.0927478736 
5.9992719463 6.0767621038 6.1501452836 6.2190157008 6.0578962336 6.1383094565 6.2134963469 0 0.064169606361 
6.1241815303 6.206940195 6.2831853072 0.069688960264 0.13304002361 0.19043743361 6.1990255847 0 0.07624511221 
0.14487585072 0.20642320337 0.26153055843 0.3108719077 0 0.084159722458 0.15900377685 0.22528907359 0.28391336087 
0.3357925689 0.38179159818 0.42269159155 5.8604937156 5.9723133995 5.901393709 6.0927478736 6.0216547488 5.9473927383 
6.2190157008 6.1501452836 6.0767621038 5.9992719463 0.064169606361 0 6.2134963469 6.1383094565 6.0578962336 
0.19043743361 0.13304002361 0.069688960264 6.2831853072 6.206940195 6.1241815303 0.3108719077 0.26153055843 0.20642320337 
0.14487585072 0.07624511221 6.2831853072 6.1990255847 0.42269159155 0.38179159818 0.3357925689 0.28391336087 0.22528907359 
0.15900377685 0.084159722458 0 5.6793730533 5.7091357773 5.5901633916 5.743164462 5.6152775188 5.4910209005 
5.7823484065 5.6444075337 5.5096229709 5.3824597928 5.8278025282 5.678536687 5.5314983644 5.3926039573 5.2659633393 
5.8809213739 5.718968232 5.5575666702 5.4046708639 5.2659633393 5.1440684722 5.9434319871 5.7674481418 5.5891129425 
5.4192596322 5.2659633393 5.1329233157 5.0201624502 6.0174235957 5.8263323547 5.6279784266 5.4372443565 5.2659633393 
5.1195510325 4.9978930058 4.8979782167 1.3852070904 1.2852923014 1.2630228569 1.1636342747 1.1502619915 1.139116835 
1.0172219679 1.0172219679 1.0172219679 1.0172219679 0.84594095064 0.86392567495 0.87851444325 0.89058134991 0.90072551443 
0.6552068806 0.69407236469 0.72561863695 0.75168694275 0.77356233629 0.79216440667 0.45685295248 0.51573716537 0.56421707518 
0.60464862014 0.63877777351 0.66790778838 0.69302191562 0.26576171152 0.33975332011 0.40226393329 0.45538277901 0.50083690068 
0.54002084522 0.57404952988 0.60381225391 
_paraPhiHalf 1 1002 double
0 3.1415926536 0 3.1415926536 1.5707963268 1.5707963268 1.5707963268 1.5707963268 2.5880182947 
0.5535743589 2.5880182947 0.5535743589 0 0 0 0 3.1415926536 3.1415926536 
3.1415926536 3.1415926536 3.1415926536 0.17788134 0.38438696014 0.60631181711 0.82323535693 1.0172219679 1.1799687454 
1.3118704726 1.4175000338 1.5022335207 0.17788134 0.38438696014 0.60631181711 0.82323535693 1.0172219679 1.1799687454 
1.3118704726 1.4175000338 1.5022335207 0.093902416448 0.17615329733 0.2478725152 0.31035131605 0.36486382811 0.41257334776 
0.45449736604 0.4915044461 0.52432611754 0.093902416448 0.17615329733 0.2478725152 0.31035131605 0.36486382811 0.41257334776 
0.45449736604 0.4915044461 0.52432611754 2.9637113136 2.7572056934 2.5352808365 2.3183572967 2.1243706857 1.9616239082 
1.829722181 1.7240926197 1.6393591329 2.9637113136 2.7572056934 2.5352808365 2.3183572967 2.1243706857 1.9616239082 
1.829722181 1.7240926197 1.6393591329 3.0476902371 2.9654393563 2.8937201384 2.8312413375 2.7767288255 2.7290193058 
2.6870952876 2.6500882075 2.617266536 3.0476902371 2.9654393563 2.8937201384 2.8312413375 2.7767288255 2.7290193058 
2.6870952876 2.6500882075 2.617266536 0 0 0 0 3.1415926536 3.1415926536 
3.1415926536 3.1415926536 3.1415926536 0.17788134 0.38438696014 0.60631181711 0.82323535693 1.0172219679 1.1799687454 
1.3118704726 1.4175000338 1.5022335207 0.17788134 0.38438696014 0.60631181711 0.82323535693 1.0172219679 1.1799687454 
1.3118704726 1.4175000338 1.5022335207 0.093902416448 0.17615329733 0.2478725152 0.31035131605 0.36486382811 0.41257334776 
0.45449736604 0.4915044461 0.52432611754 0.093902416448 0.17615329733 0.2478725152 0.31035131605 0.36486382811 0.41257334776 
0.45449736604 0.4915044461 0.52432611754 2.9637113136 2.7572056934 2.5352808365 2.3183572967 2.1243706857 1.9616239082 
1.829722181 1.7240926197 1.6393591329 2.9637113136 2.7572056934 2.5352808365 2.3183572967 2.1243706857 1.9616239082 
1.829722181 1.7240926197 1.6393591329 3.0476902371 2.9654393563 2.8937201384 2.8312413375 2.7767288255 2.7290193058 
2.6870952876 2.6500882075 2.617266536 3.0476902371 2.9654393563 2.8937201384 2.8312413375 2.7767288255 2.7290193058 
2.6870952876 2.6500882075 2.617266536 1.5707963268 1.5707963268 1.5707963268 1.5707963268 1.5707963268 1.5707963268 
1.5707963268 1.5707963268 1.5707963268 1.6743954455 1.7840462375 1.8974821136 2.0119052671 2.1243706857 2.232221744 
2.3334263672 2.426721652 2.5115728246 1.4671972081 1.3575464161 1.24411054 1.1296873865 1.0172219679 0.90937090954 
0.80816628637 0.71487100155 0.63001982895 1.6743954455 1.7840462375 1.8974821136 2.0119052671 2.1243706857 2.232221744 
2.3334263672 2.426721652 2.5115728246 1.4671972081 1.3575464161 1.24411054 1.1296873865 1.0172219679 0.90937090954 
0.80816628637 0.71487100155 0.63001982895 1.5707963268 1.5707963268 1.5707963268 1.5707963268 1.5707963268 1.5707963268 
1.5707963268 1.5707963268 1.5707963268 1.6743954455 1.7840462375 1.8974821136 2.0119052671 2.1243706857 2.232221744 
2.3334263672 2.426721652 2.5115728246 1.4671972081 1.3575464161 1.24411054 1.1296873865 1.0172219679 0.90937090954 
0.80816628637 0.71487100155 0.63001982895 1.6743954455 1.7840462375 1.8974821136 2.0119052671 2.1243706857 2.232221744 
2.3334263672 2.426721652 2.5115728246 1.4671972081 1.3575464161 1.24411054 1.1296873865 1.0172219679 0.90937090954 
0.80816628637 0.71487100155 0.63001982895 2.6824132222 2.7864913217 2.8992382033 3.0186096618 3.1415926536 3.0186096618 
2.8992382033 2.7864913217 2.6824132222 0.45917943135 0.35510133185 0.2423544503 0.12298299178 0 0.12298299178 
0.2423544503 0.35510133185 0.45917943135 0.22715816343 0.49462574053 0.3129712797 0.77059342779 0.68021497688 0.49462574053 
1.0172219679 1.0172219679 1.0172219679 1.0172219679 1.2156949949 1.271087727 1.3676273807 1.5707963268 2.1243706857 
1.3676273807 1.447813335 1.5707963268 1.7739652728 2.1243706857 2.6469669131 1.4827341049 1.5707963268 1.6937793186 
1.8705049266 2.1243706857 2.4613776767 2.8286213739 1.5707963268 1.6588585487 1.7739652728 1.9258976586 2.1243706857 
2.3709992258 2.6469669131 2.9144344902 0.26576171152 0.33975332011 0.45685295248 0.40226393329 0.51573716537 0.6552068806 
0.45538277901 0.56421707518 0.69407236469 0.84594095064 0.50083690068 0.60464862014 0.72561863695 0.86392567495 1.0172219679 
0.54002084522 0.63877777351 0.75168694275 0.87851444325 1.0172219679 1.1636342747 0.57404952988 0.66790778838 0.77356233629 
0.89058134991 1.0172219679 1.1502619915 1.2852923014 0.60381225391 0.69302191562 0.79216440667 0.90072551443 1.0172219679 
1.139116835 1.2630228569 1.3852070904 0.71487100155 0.80816628637 0.80816628637 0.90937090954 0.90937090954 0.90937090954 
1.0172219679 1.0172219679 1.0172219679 1.0172219679 1.1296873865 1.1296873865 1.1296873865 1.1296873865 1.1296873865 
1.24411054 1.24411054 1.24411054 1.24411054 1.24411054 1.24411054 1.3575464161 1.3575464161 1.3575464161 
1.3575464161 1.3575464161 1.3575464161 1.3575464161 1.4671972081 1.4671972081 1.4671972081 1.4671972081 1.4671972081 
1.4671972081 1.4671972081 1.4671972081 1.6743954455 1.6743954455 1.7840462375 1.6743954455 1.7840462375 1.8974821136 
1.6743954455 1.7840462375 1.8974821136 2.0119052671 1.6743954455 1.7840462375 1.8974821136 2.0119052671 2.1243706857 
1.6743954455 1.7840462375 1.8974821136 2.0119052671 2.1243706857 2.232221744 1.6743954455 1.7840462375 1.8974821136 
2.0119052671 2.1243706857 2.232221744 2.3334263672 1.6743954455 1.7840462375 1.8974821136 2.0119052671 2.1243706857 
2.232221744 2.3334263672 2.426721652 1.7563855631 1.8785697967 1.8563003522 2.0024758186 1.9913306621 1.9779583789 
2.1243706857 2.1243706857 2.1243706857 2.1243706857 2.2408671392 2.2510113037 2.2630782103 2.2776669786 2.295651703 
2.3494282469 2.3680303173 2.3899057108 2.4159740166 2.4475202889 2.486385773 2.448570738 2.4736848652 2.5028148801 
2.5369440334 2.5773755784 2.6258554882 2.6847397011 2.5377803997 2.5675431237 2.6015718084 2.6407557529 2.6862098746 
2.7393287203 2.8018393335 2.8758309421 2.718901062 2.8307207459 2.7598010554 2.95115522 2.8800620952 2.8058000847 
3.0774230472 3.00855263 2.9351694502 2.8576792927 3.0774230472 3.1415926536 3.0719036933 2.9967168029 2.91630358 
2.95115522 3.00855263 3.0719036933 3.1415926536 3.0653475414 2.9825888767 2.8307207459 2.8800620952 2.9351694502 
2.9967168029 3.0653475414 3.1415926536 3.0574329311 2.718901062 2.7598010554 2.8058000847 2.8576792927 2.91630358 
2.9825888767 3.0574329311 3.1415926536 2.718901062 2.7598010554 2.8307207459 2.8058000847 2.8800620952 2.95115522 
2.8576792927 2.9351694502 3.00855263 3.0774230472 2.91630358 2.9967168029 3.0719036933 3.1415926536 3.0774230472 
2.9825888767 3.0653475414 3.1415926536 3.0719036933 3.00855263 2.95115522 3.0574329311 3.1415926536 3.0653475414 