# vtk DataFile Version 5.1
vtk output
ASCII
DATASET POLYDATA
POINTS 1002 float
-5.15231 -0.394972 -3.13743 5.59208 0.618045 -4.15493 -4.61808 0.164454 3.33357 
5.03145 -0.360947 4.9706 -0.245376 6.12997 -2.70577 0.0464553 5.62169 2.64848 
-1.27242 -5.01962 -2.36494 -0.497194 -5.79416 3.19032 8.50133 2.47547 0.0758035 
-8.87201 4.61293 0.484346 9.5418 -5.24948 -1.39322 -8.83472 -4.802 0.251518 
-4.30853 -0.181345 -3.39147 -3.38299 -0.0179127 -3.78609 -2.40105 0.0931011 -4.09454 
-1.33934 0.237446 -4.11546 -0.136638 0.470936 -4.03285 1.18973 0.720043 -4.21484 
2.49534 0.875912 -4.61411 3.65346 0.89979 -4.81423 4.66602 0.80317 -4.60653 
-4.71801 0.324847 -3.48223 -4.23187 1.08876 -3.8448 -3.73344 1.85353 -3.98489 
-3.22707 2.56134 -3.8014 -2.66879 3.18521 -3.50274 -2.05003 3.78929 -3.3331 
-1.45397 4.44788 -3.25792 -0.965088 5.11554 -3.12672 -0.580238 5.68722 -2.92159 
-5.04322 -0.969244 -3.07676 -4.93028 -1.58305 -3.27695 -4.8334 -2.23459 -3.54634 
-4.66315 -2.90956 -3.4911 -4.27575 -3.53714 -2.97381 -3.69547 -4.03248 -2.38181 
-3.10478 -4.39269 -2.16291 -2.56545 -4.66758 -2.2926 -1.97445 -4.87665 -2.43281 
-5.70506 -0.169147 -3.23597 -6.22522 0.130665 -3.31764 -6.68771 0.554107 -3.05893 
-7.14494 1.0814 -2.49158 -7.59993 1.62009 -2.09157 -7.92845 2.13889 -2.05846 
-8.09749 2.71669 -1.92683 -8.27361 3.39227 -1.28327 -8.56563 4.07023 -0.329884 
-5.90405 -0.98157 -2.92343 -6.66346 -1.58345 -2.88125 -7.4171 -2.1862 -2.9726 
-8.15004 -2.83793 -3.01717 -8.76399 -3.53834 -2.85025 -9.13073 -4.1579 -2.39903 
-9.24835 -4.56551 -1.67558 -9.21343 -4.76285 -0.841358 -9.07701 -4.82515 -0.151762 
5.15478 1.07916 -4.24108 4.69989 1.56415 -4.11897 4.18404 2.1433 -3.96091 
3.58608 2.86694 -4.05396 2.94233 3.64528 -4.35865 2.28395 4.31366 -4.44631 
1.60999 4.83713 -4.0794 0.938852 5.30015 -3.49389 0.311953 5.74142 -3.00921 
5.43312 0.265739 -4.22111 5.13785 -0.177184 -4.12827 4.6313 -0.721602 -3.86157 
3.92332 -1.28986 -3.56065 3.09687 -1.82735 -3.39374 2.18649 -2.40015 -3.3315 
1.18489 -3.06524 -3.20115 0.181214 -3.7615 -2.94283 -0.663765 -4.41511 -2.63987 
6.24406 0.70589 -3.80401 6.97558 0.878897 -3.59348 7.75703 1.143 -3.53676 
8.43317 1.39622 -3.39741 8.85897 1.56148 -2.93696 9.05447 1.70804 -2.21306 
9.11266 1.9279 -1.46184 9.04693 2.18303 -0.825901 8.83311 2.37566 -0.322578 
6.49334 0.133845 -3.69022 7.48363 -0.452557 -3.31602 8.39292 -1.03709 -3.26145 
9.11495 -1.5846 -3.36825 9.69518 -2.23727 -3.2844 10.1519 -3.09772 -3.04489 
10.3681 -3.99963 -2.89433 10.2755 -4.69326 -2.71098 9.95883 -5.0946 -2.20674 
-3.90505 0.146904 3.59784 -3.08994 0.161762 3.81554 -2.17654 0.185773 4.0354 
-1.19316 0.190381 4.35631 -0.149602 0.175987 4.77978 0.964826 0.145775 5.12912 
2.11575 0.0613008 5.23543 3.21467 -0.098685 5.14153 4.19103 -0.269471 5.01976 
-4.42861 0.68578 3.43317 -4.22958 1.26489 3.64364 -4.00925 1.88081 3.89735 
-3.70196 2.48883 3.99365 -3.21271 3.07525 3.80843 -2.53071 3.68034 3.48604 
-1.77566 4.31602 3.24769 -1.07733 4.90064 3.10319 -0.475115 5.33829 2.922 
-4.36932 -0.37 3.45848 -4.06402 -0.954403 3.53894 -3.68508 -1.59519 3.51961 
-3.24359 -2.27673 3.49356 -2.77233 -2.99366 3.66185 -2.3031 -3.74938 4.02672 
-1.84327 -4.48815 4.2857 -1.38571 -5.10728 4.17987 -0.933787 -5.54385 3.74923 
-5.21173 0.547173 3.06197 -5.90467 1.01317 2.81371 -6.66783 1.54337 2.63492 
-7.38194 2.09609 2.41484 -7.99698 2.61579 2.02088 -8.60812 3.08719 1.57227 
-9.19105 3.55084 1.32241 -9.48945 4.00937 1.2404 -9.34028 4.38648 1.02069 
-5.16918 -0.134138 3.10174 -5.76404 -0.45688 2.77631 -6.37128 -0.79045 2.33177 
-6.92678 -1.15554 1.84624 -7.37755 -1.64726 1.42216 -7.7527 -2.33586 1.09398 
-8.11941 -3.118 0.859723 -8.46519 -3.80592 0.695395 -8.71445 -4.34157 0.521617 
4.85921 0.250689 4.83069 4.55887 0.950631 4.7463 4.11051 1.67404 4.68773 
3.61558 2.34537 4.62183 3.19371 3.02175 4.55291 2.77701 3.77107 4.43678 
2.19405 4.45942 4.15411 1.4468 4.93494 3.67459 0.695866 5.26951 3.12537 
4.68688 -0.917047 5.11786 4.36622 -1.47296 5.16586 4.02189 -1.96752 5.01478 
3.55539 -2.31081 4.58169 2.92898 -2.49538 3.9372 2.18862 -2.70728 3.37293 
1.39588 -3.20879 3.15898 0.628048 -4.05444 3.23753 -0.0182672 -5.01393 3.3162 
5.78325 0.0155025 4.81982 6.59056 0.466084 4.57377 7.29769 0.876387 4.19762 
7.77412 1.15035 3.66046 8.07164 1.30151 2.96953 8.32344 1.43785 2.21702 
8.53284 1.64755 1.52905 8.62633 1.92665 0.957743 8.60124 2.21688 0.48248 
5.58415 -0.728248 5.11089 6.13346 -1.09332 5.20548 6.70771 -1.51585 4.89149 
7.29133 -2.0302 3.95284 7.82729 -2.55283 2.71395 8.30291 -3.00632 1.68891 
8.74812 -3.48831 0.919084 9.14315 -4.11016 0.133862 9.42088 -4.76953 -0.701371 
-0.364237 6.59009 -2.41213 -0.459484 7.04184 -2.04217 -0.512469 7.47053 -1.52016 
-0.518976 7.82841 -0.81308 -0.463095 7.98072 -0.019517 -0.332842 7.78367 0.687267 
-0.177287 7.26258 1.24254 -0.0681013 6.62191 1.71902 -0.00950333 6.0559 2.18725 
0.464775 6.27849 -2.65991 1.29984 6.35559 -2.60794 2.19669 6.31392 -2.46148 
3.0949 6.13176 -2.14488 4.06154 5.81745 -1.66778 5.16738 5.3251 -1.13618 
6.27656 4.60301 -0.686471 7.19252 3.76334 -0.378795 7.8999 3.01937 -0.155661 
-0.993429 6.21874 -2.62737 -1.82079 6.26545 -2.5312 -2.76384 6.23473 -2.27693 
-3.80754 6.08944 -1.90382 -4.866 5.93041 -1.65656 -5.84142 5.92165 -1.57117 
-6.69969 5.9755 -1.33665 -7.4747 5.79905 -0.774066 -8.20292 5.28812 -0.0772602 
0.91192 5.58711 2.5557 1.77416 5.57149 2.39143 2.66241 5.63344 2.23236 
3.65692 5.64312 2.12856 4.70618 5.35001 1.98678 5.61498 4.72096 1.66402 
6.33092 3.99446 1.17313 7.00891 3.36704 0.679445 7.75058 2.86775 0.314524 
-0.909083 5.88712 2.43318 -1.95617 6.10054 2.29415 -3.03641 6.1213 2.25128 
-4.13356 5.99622 2.17436 -5.29859 5.99739 1.89138 -6.51017 6.22948 1.451 
-7.57681 6.38756 1.09449 -8.30502 6.13235 0.917824 -8.69012 5.46397 0.769886 
-1.04618 -5.49118 -2.02676 -0.703495 -6.01539 -1.55313 -0.355486 -6.48765 -0.987419 
-0.127762 -6.78243 -0.411009 -0.0677589 -6.88695 0.130548 -0.135774 -6.89181 0.684259 
-0.261037 -6.82558 1.3134 -0.381472 -6.62419 1.99251 -0.461968 -6.26071 2.6377 
-0.0917896 -4.72393 -2.23067 1.34423 -4.3869 -1.88257 2.93684 -4.13398 -1.52182 
4.48465 -4.0843 -1.38815 5.81202 -4.30823 -1.41001 6.88598 -4.81038 -1.34422 
7.76971 -5.42115 -1.21655 8.50754 -5.80208 -1.21957 9.09996 -5.72413 -1.33893 
-2.22545 -5.53976 -2.20304 -3.22096 -6.06017 -2.08026 -4.27962 -6.59343 -2.0848 
-5.29046 -7.13252 -2.15853 -6.15093 -7.52511 -2.07651 -6.91324 -7.51167 -1.67489 
-7.6268 -7.01905 -1.06161 -8.20988 -6.26679 -0.481826 -8.59695 -5.50145 -0.0560487 
0.269927 -5.34723 2.6633 1.25244 -4.47615 2.03773 2.43556 -3.52936 1.5542 
3.70928 -3.16379 1.32212 4.94852 -3.73068 1.2256 6.09649 -4.7959 1.11261 
7.13651 -5.60533 0.866789 8.04984 -5.83538 0.344894 8.84061 -5.6358 -0.476234 
-1.15234 -6.10173 3.12252 -1.86529 -6.02242 2.74425 -2.7682 -5.87666 2.31711 
-3.84717 -5.9128 2.07426 -4.90783 -5.91769 1.86642 -5.84249 -5.645 1.42327 
-6.73489 -5.3055 0.850146 -7.60444 -5.14962 0.459753 -8.32728 -5.05495 0.319089 
9.36924 2.04069 0.142025 10.3152 1.67196 0.195741 11.1992 1.17617 0.0754083 
11.857 0.367088 -0.290268 12.1579 -0.688538 -0.815381 12.0455 -1.76582 -1.37901 
11.5813 -2.75876 -1.85109 10.9202 -3.68232 -2.04359 10.2123 -4.53045 -1.8538 
-9.37607 3.6465 0.456028 -9.961 2.72584 0.273144 -10.5869 1.78911 0.0158117 
-11.1237 0.707354 -0.160509 -11.3502 -0.394686 -0.137734 -11.089 -1.30025 0.0673176 
-10.4423 -2.11913 0.302004 -9.74737 -3.05987 0.408657 -9.22577 -4.02949 0.36264 
-3.81585 0.529879 -3.66204 -3.29602 1.24666 -3.85955 -2.85171 0.629725 -3.88417 
-2.75255 1.94333 -3.82463 -2.28485 1.2915 -3.91494 -1.84052 0.698944 -4.03022 
-2.16589 2.61021 -3.62441 -1.64859 1.9954 -3.90653 -1.19413 1.39838 -4.09082 
-0.70854 0.890362 -4.065 -1.54063 3.27505 -3.49544 -0.977825 2.75105 -3.96423 
-0.466459 2.21106 -4.3614 0.0355695 1.6742 -4.33348 0.610548 1.17794 -4.1595 
-0.942502 3.97485 -3.48304 -0.368444 3.52932 -4.06825 0.203952 3.06344 -4.68336 
0.772477 2.51071 -4.77741 1.38879 1.91281 -4.48982 1.99512 1.36227 -4.40905 
-0.440458 4.67062 -3.42242 0.13397 4.2548 -4.04179 0.734566 3.83035 -4.76006 
1.35663 3.27565 -5.00641 2.02456 2.58012 -4.7082 2.68287 1.90486 -4.47206 
3.2263 1.35879 -4.61186 -0.0361717 5.27075 -3.24181 0.559501 4.8478 -3.81505 
1.18697 4.41866 -4.50235 1.83088 3.88002 -4.84097 2.5031 3.15766 -4.62343 
3.17847 2.38048 -4.2994 3.77008 1.7357 -4.32217 4.24605 1.24173 -4.5463 
-5.24415 0.616129 -3.65298 -5.7303 0.972277 -3.6549 -4.72641 1.46972 -4.00781 
-6.19621 1.45411 -3.19973 -5.17869 1.91222 -3.85516 -4.20361 2.33536 -4.04676 
-6.69995 2.04162 -2.53863 -5.63101 2.46961 -3.2369 -4.61061 2.8634 -3.77619 
-3.6694 3.10449 -3.78592 -7.16192 2.64341 -2.21787 -6.13309 3.10014 -2.58665 
-5.02238 3.44603 -3.15961 -4.03186 3.65781 -3.5555 -3.07295 3.74189 -3.50932 
-7.43625 3.2518 -2.17945 -6.58285 3.733 -2.33741 -5.51672 4.0403 -2.61139 
-4.43879 4.20484 -3.06232 -3.43473 4.30334 -3.37038 -2.43381 4.37 -3.34163 
-7.5997 3.93764 -1.83462 -6.88354 4.40302 -2.18993 -6.00065 4.65289 -2.33769 
-4.9658 4.7551 -2.54198 -3.89269 4.86005 -2.90973 -2.84255 4.97892 -3.16167 
-1.85205 5.06256 -3.15693 -7.85295 4.66762 -1.00583 -7.14396 5.1338 -1.64711 
-6.37714 5.3251 -1.99832 -5.47065 5.34456 -2.09887 -4.42738 5.41847 -2.27915 
-3.33497 5.57397 -2.61862 -2.29909 5.68654 -2.85447 -1.3829 5.71402 -2.89534 
-7.99927 6.15176 0.241846 -7.54531 6.6158 0.490287 -7.16637 6.45996 -0.383846 
-6.7085 6.51672 0.780645 -6.56752 6.60099 0.0335857 -6.2189 6.38545 -0.82599 
-5.59565 6.1584 1.15536 -5.65036 6.32026 0.449572 -5.45521 6.42616 -0.27677 
-5.18175 6.30278 -1.00585 -4.44585 6.08876 1.5005 -4.61763 6.16474 0.790587 
-4.52786 6.36953 0.123986 -4.31468 6.5498 -0.532876 -4.09326 6.45892 -1.21019 
-3.32522 6.38274 1.71727 -3.57608 6.49727 1.04331 -3.60216 6.62735 0.351416 
-3.42569 6.81512 -0.30782 -3.22242 6.87691 -0.955994 -3.02242 6.66568 -1.62453 
-2.16985 6.58822 1.85591 -2.42233 6.95289 1.27446 -2.5779 7.16615 0.592729 
[...]
POINT_DATA 1002
FIELD FieldData 4
_paraPhi 1 1002 double
6.2831853072 3.1415926536 6.2831853072 3.1415926536 4.7123889804 4.7123889804 1.5707963268 1.5707963268 3.6951670125 
5.7296109483 2.5880182947 0.5535743589 6.2831853072 6.2831853072 6.2831853072 6.2831853072 3.1415926536 3.1415926536 
3.1415926536 3.1415926536 3.1415926536 6.1053039672 5.898798347 5.6768734901 5.4599499503 5.2659633393 5.1032165617 
4.9713148346 4.8656852733 4.7809517865 0.17788134 0.38438696014 0.60631181711 0.82323535693 1.0172219679 1.1799687454 
1.3118704726 1.4175000338 1.5022335207 6.1892828907 6.1070320098 6.035312792 5.9728339911 5.9183214791 5.8706119594 
5.8286879411 5.7916808611 5.7588591896 0.093902416448 0.17615329733 0.2478725152 0.31035131605 0.36486382811 0.41257334776 
0.45449736604 0.4915044461 0.52432611754 3.3194739936 3.5259796137 3.7479044707 3.9648280105 4.1588146215 4.321561399 
4.4534631262 4.5590926874 4.6438261743 2.9637113136 2.7572056934 2.5352808365 2.3183572967 2.1243706857 1.9616239082 
1.829722181 1.7240926197 1.6393591329 3.23549507 3.3177459509 3.3894651688 3.4519439696 3.5064564817 3.5541660013 
3.5960900196 3.6330970997 3.6659187711 3.0476902371 2.9654393563 2.8937201384 2.8312413375 2.7767288255 2.7290193058 
2.6870952876 2.6500882075 2.617266536 6.2831853072 6.2831853072 6.2831853072 6.2831853072 3.1415926536 3.1415926536 
3.1415926536 3.1415926536 3.1415926536 6.1053039672 5.898798347 5.6768734901 5.4599499503 5.2659633393 5.1032165617 
4.9713148346 4.8656852733 4.7809517865 0.17788134 0.38438696014 0.60631181711 0.82323535693 1.0172219679 1.1799687454 
1.3118704726 1.4175000338 1.5022335207 6.1892828907 6.1070320098 6.035312792 5.9728339911 5.9183214791 5.8706119594 
5.8286879411 5.7916808611 5.7588591896 0.093902416448 0.17615329733 0.2478725152 0.31035131605 0.36486382811 0.41257334776 
0.45449736604 0.4915044461 0.52432611754 3.3194739936 3.5259796137 3.7479044707 3.9648280105 4.1588146215 4.321561399 
4.4534631262 4.5590926874 4.6438261743 2.9637113136 2.7572056934 2.5352808365 2.3183572967 2.1243706857 1.9616239082 
1.829722181 1.7240926197 1.6393591329 3.23549507 3.3177459509 3.3894651688 3.4519439696 3.5064564817 3.5541660013 
3.5960900196 3.6330970997 3.6659187711 3.0476902371 2.9654393563 2.8937201384 2.8312413375 2.7767288255 2.7290193058 
2.6870952876 2.6500882075 2.617266536 4.7123889804 4.7123889804 4.7123889804 4.7123889804 4.7123889804 4.7123889804 
4.7123889804 4.7123889804 4.7123889804 4.6087898617 4.4991390697 4.3857031936 4.2712800401 4.1588146215 4.0509635631 
3.94975894 3.8564636551 3.7716124825 4.8159880991 4.9256388911 5.0390747672 5.1534979207 5.2659633393 5.3738143976 
5.4750190208 5.5683143056 5.6531654782 4.6087898617 4.4991390697 4.3857031936 4.2712800401 4.1588146215 4.0509635631 
3.94975894 3.8564636551 3.7716124825 4.8159880991 4.9256388911 5.0390747672 5.1534979207 5.2659633393 5.3738143976 
5.4750190208 5.5683143056 5.6531654782 1.5707963268 1.5707963268 1.5707963268 1.5707963268 1.5707963268 1.5707963268 
1.5707963268 1.5707963268 1.5707963268 1.6743954455 1.7840462375 1.8974821136 2.0119052671 2.1243706857 2.232221744 
2.3334263672 2.426721652 2.5115728246 1.4671972081 1.3575464161 1.24411054 1.1296873865 1.0172219679 0.90937090954 
0.80816628637 0.71487100155 0.63001982895 1.6743954455 1.7840462375 1.8974821136 2.0119052671 2.1243706857 2.232221744 
2.3334263672 2.426721652 2.5115728246 1.4671972081 1.3575464161 1.24411054 1.1296873865 1.0172219679 0.90937090954 
0.80816628637 0.71487100155 0.63001982895 3.6007720849 3.4966939854 3.3839471039 3.2645756454 3.1415926536 3.0186096618 
2.8992382033 2.7864913217 2.6824132222 5.8240058758 5.9280839753 6.0408308569 6.1602023154 6.2831853072 0.12298299178 
0.2423544503 0.35510133185 0.45917943135 6.0560271438 5.7885595667 5.9702140275 5.5125918794 5.6029703303 5.7885595667 
5.2659633393 5.2659633393 5.2659633393 5.2659633393 5.0674903122 5.0120975802 4.9155579264 4.7123889804 4.1588146215 
4.9155579264 4.8353719722 4.7123889804 4.5092200343 4.1588146215 3.6362183941 4.8004512023 4.7123889804 4.5894059886 
4.4126803806 4.1588146215 3.8218076305 3.4545639333 4.7123889804 4.6243267584 4.5092200343 4.3572876485 4.1588146215 
3.9121860814 3.6362183941 3.368750817 6.0174235957 5.9434319871 5.8263323547 5.8809213739 5.7674481418 5.6279784266 
5.8278025282 5.718968232 5.5891129425 5.4372443565 5.7823484065 5.678536687 5.5575666702 5.4192596322 5.2659633393 
5.743164462 5.6444075337 5.5314983644 5.4046708639 5.2659633393 5.1195510325 5.7091357773 5.6152775188 5.5096229709 
5.3926039573 5.2659633393 5.1329233157 4.9978930058 5.6793730533 5.5901633916 5.4910209005 5.3824597928 5.2659633393 
5.1440684722 5.0201624502 4.8979782167 5.5683143056 5.4750190208 5.4750190208 5.3738143976 5.3738143976 5.3738143976 
5.2659633393 5.2659633393 5.2659633393 5.2659633393 5.1534979207 5.1534979207 5.1534979207 5.1534979207 5.1534979207 
5.0390747672 5.0390747672 5.0390747672 5.0390747672 5.0390747672 5.0390747672 4.9256388911 4.9256388911 4.9256388911 
4.9256388911 4.9256388911 4.9256388911 4.9256388911 4.8159880991 4.8159880991 4.8159880991 4.8159880991 4.8159880991 
4.8159880991 4.8159880991 4.8159880991 4.6087898617 4.6087898617 4.4991390697 4.6087898617 4.4991390697 4.3857031936 
4.6087898617 4.4991390697 4.3857031936 4.2712800401 4.6087898617 4.4991390697 4.3857031936 4.2712800401 4.1588146215 
4.6087898617 4.4991390697 4.3857031936 4.2712800401 4.1588146215 4.0509635631 4.6087898617 4.4991390697 4.3857031936 
4.2712800401 4.1588146215 4.0509635631 3.94975894 4.6087898617 4.4991390697 4.3857031936 4.2712800401 4.1588146215 
4.0509635631 3.94975894 3.8564636551 4.526799744 4.4046155105 4.426884955 4.2807094886 4.2918546451 4.3052269283 
4.1588146215 4.1588146215 4.1588146215 4.1588146215 4.042318168 4.0321740035 4.0201070968 4.0055183285 3.9875336042 
3.9337570603 3.9151549899 3.8932795963 3.8672112905 3.8356650183 3.7967995342 3.8346145692 3.809500442 3.7803704271 
3.7462412737 3.7058097288 3.657329819 3.5984456061 3.7454049075 3.7156421835 3.6816134988 3.6424295543 3.5969754326 
3.5438565869 3.4813459737 3.4073543651 3.5642842451 3.4524645613 3.5233842518 3.3320300872 3.403123212 3.4773852225 
3.20576226 3.2746326772 3.348015857 3.4255060145 3.0774230472 3.1415926536 3.2112816139 3.2864685043 3.3668817272 
2.95115522 3.00855263 3.0719036933 3.1415926536 3.2178377658 3.3005964304 2.8307207459 2.8800620952 2.9351694502 
2.9967168029 3.0653475414 3.1415926536 3.225752376 2.718901062 2.7598010554 2.8058000847 2.8576792927 2.91630358 
2.9825888767 3.0574329311 3.1415926536 3.5642842451 3.5233842518 3.4524645613 3.4773852225 3.403123212 3.3320300872 
3.4255060145 3.348015857 3.2746326772 3.20576226 3.3668817272 3.2864685043 3.2112816139 3.1415926536 3.0774230472 
3.3005964304 3.2178377658 3.1415926536 3.0719036933 3.00855263 2.95115522 3.225752376 3.1415926536 3.0653475414 
2.9967168029 2.9351694502 2.8800620952 2.8307207459 3.1415926536 3.0574329311 2.9825888767 2.91630358 2.8576792927 
2.8058000847 2.7598010554 2.718901062 4.526799744 4.426884955 4.4046155105 4.3052269283 4.2918546451 4.2807094886 
4.1588146215 4.1588146215 4.1588146215 4.1588146215 3.9875336042 4.0055183285 4.0201070968 4.0321740035 4.042318168 
3.7967995342 3.8356650183 3.8672112905 3.8932795963 3.9151549899 3.9337570603 3.5984456061 3.657329819 3.7058097288 
3.7462412737 3.7803704271 3.809500442 3.8346145692 3.4073543651 3.4813459737 3.5438565869 3.5969754326 3.6424295543 
3.6816134988 3.7156421835 3.7454049075 4.7123889804 4.8004512023 4.6243267584 4.9155579264 4.7123889804 4.5092200343 
5.0674903122 4.8353719722 4.5894059886 4.3572876485 5.2659633393 5.0120975802 4.7123889804 4.4126803806 4.1588146215 
5.5125918794 5.2659633393 4.9155579264 4.5092200343 4.1588146215 3.9121860814 5.7885595667 5.6029703303 5.2659633393 
4.7123889804 4.1588146215 3.8218076305 3.6362183941 6.0560271438 5.9702140275 5.7885595667 5.2659633393 4.1588146215 
3.6362183941 3.4545639333 3.368750817 0.22715816343 0.49462574053 0.3129712797 0.77059342779 0.68021497688 0.49462574053 
1.0172219679 1.0172219679 1.0172219679 1.0172219679 1.2156949949 1.271087727 1.3676273807 1.5707963268 2.1243706857 
1.3676273807 1.447813335 1.5707963268 1.7739652728 2.1243706857 2.6469669131 1.4827341049 1.5707963268 1.6937793186 
1.8705049266 2.1243706857 2.4613776767 2.8286213739 1.5707963268 1.6588585487 1.7739652728 1.9258976586 2.1243706857 
2.3709992258 2.6469669131 2.9144344902 1.7563855631 1.8785697967 1.8563003522 2.0024758186 1.9913306621 1.9779583789 
2.1243706857 2.1243706857 2.1243706857 2.1243706857 2.2408671392 2.2510113037 2.2630782103 2.2776669786 2.295651703 
2.3494282469 2.3680303173 2.3899057108 2.4159740166 2.4475202889 2.486385773 2.448570738 2.4736848652 2.5028148801 
2.5369440334 2.5773755784 2.6258554882 2.6847397011 2.5377803997 2.5675431237 2.6015718084 2.6407557529 2.6862098746 
2.7393287203 2.8018393335 2.8758309421 1.6743954455 1.6743954455 1.7840462375 1.6743954455 1.7840462375 1.8974821136 
1.6743954455 1.7840462375 1.8974821136 2.0119052671 1.6743954455 1.7840462375 1.8974821136 2.0119052671 2.1243706857 
1.6743954455 1.7840462375 1.8974821136 2.0119052671 2.1243706857 2.232221744 1.6743954455 1.7840462375 1.8974821136 
2.0119052671 2.1243706857 2.232221744 2.3334263672 1.6743954455 1.7840462375 1.8974821136 2.0119052671 2.1243706857 
2.232221744 2.3334263672 2.426721652 1.4671972081 1.3575464161 1.4671972081 1.24411054 1.3575464161 1.4671972081 
1.1296873865 1.24411054 1.3575464161 1.4671972081 1.0172219679 1.1296873865 1.24411054 1.3575464161 1.4671972081 
0.90937090954 1.0172219679 1.1296873865 1.24411054 1.3575464161 1.4671972081 0.80816628637 0.90937090954 1.0172219679 
1.1296873865 1.24411054 1.3575464161 1.4671972081 0.71487100155 0.80816628637 0.90937090954 1.0172219679 1.1296873865 
1.24411054 1.3575464161 1.4671972081 0.60381225391 0.57404952988 0.69302191562 0.54002084522 0.66790778838 0.79216440667 
0.50083690068 0.63877777351 0.77356233629 0.90072551443 0.45538277901 0.60464862014 0.75168694275 0.89058134991 1.0172219679 
0.40226393329 0.56421707518 0.72561863695 0.87851444325 1.0172219679 1.139116835 0.33975332011 0.51573716537 0.69407236469 
0.86392567495 1.0172219679 1.1502619915 1.2630228569 0.26576171152 0.45685295248 0.6552068806 0.84594095064 1.0172219679 
1.1636342747 1.2852923014 1.3852070904 0.22715816343 0.3129712797 0.49462574053 0.49462574053 0.68021497688 0.77059342779 
1.0172219679 1.0172219679 1.0172219679 1.0172219679 2.1243706857 1.5707963268 1.3676273807 1.271087727 1.2156949949 
2.6469669131 2.1243706857 1.7739652728 1.5707963268 1.447813335 1.3676273807 2.8286213739 2.4613776767 2.1243706857 
1.8705049266 1.6937793186 1.5707963268 1.4827341049 2.9144344902 2.6469669131 2.3709992258 2.1243706857 1.9258976586 
1.7739652728 1.6588585487 1.5707963268 1.7563855631 1.8563003522 1.8785697967 1.9779583789 1.9913306621 2.0024758186 
2.1243706857 2.1243706857 2.1243706857 2.1243706857 2.295651703 2.2776669786 2.2630782103 2.2510113037 2.2408671392 
2.486385773 2.4475202889 2.4159740166 2.3899057108 2.3680303173 2.3494282469 2.6847397011 2.6258554882 2.5773755784 
2.5369440334 2.5028148801 2.4736848652 2.448570738 2.8758309421 2.8018393335 2.7393287203 2.6862098746 2.6407557529 
2.6015718084 2.5675431237 2.5377803997 5.8604937156 5.901393709 5.9723133995 5.9473927383 6.0216547488 6.0927478736 
5.9992719463 6.0767621038 6.1501452836 6.2190157008 6.0578962336 6.1383094565 6.2134963469 0 0.064169606361 
6.1241815303 6.206940195 6.2831853072 0.069688960264 0.13304002361 0.19043743361 6.1990255847 0 0.07624511221 
0.14487585072 0.20642320337 0.26153055843 0.3108719077 0 0.084159722458 0.15900377685 0.22528907359 0.28391336087 
0.3357925689 0.38179159818 0.42269159155 5.8604937156 5.9723133995 5.901393709 6.0927478736 6.0216547488 5.9473927383 
6.2190157008 6.1501452836 6.0767621038 5.9992719463 0.064169606361 0 6.2134963469 6.1383094565 6.0578962336 
0.19043743361 0.13304002361 0.069688960264 6.2831853072 6.206940195 6.1241815303 0.3108719077 0.26153055843 0.20642320337 
0.14487585072 0.07624511221 6.2831853072 6.1990255847 0.42269159155 0.38179159818 0.3357925689 0.28391336087 0.22528907359 
0.15900377685 0.084159722458 0 5.6793730533 5.7091357773 5.5901633916 5.743164462 5.6152775188 5.4910209005 
5.7823484065 5.6444075337 5.5096229709 5.3824597928 5.8278025282 5.678536687 5.5314983644 5.3926039573 5.2659633393 
5.8809213739 5.718968232 5.5575666702 5.4046708639 5.2659633393 5.1440684722 5.9434319871 5.7674481418 5.5891129425 
5.4192596322 5.2659633393 5.1329233157 5.0201624502 6.0174235957 5.8263323547 5.6279784266 5.4372443565 5.2659633393 
5.1195510325 4.9978930058 4.8979782167 1.3852070904 1.2852923014 1.2630228569 1.1636342747 1.1502619915 1.139116835 
1.0172219679 1.0172219679 1.0172219679 1.0172219679 0.84594095064 0.86392567495 0.87851444325 0.89058134991 0.90072551443 
0.6552068806 0.69407236469 0.72561863695 0.75168694275 0.77356233629 0.79216440667 0.45685295248 0.51573716537 0.56421707518 
0.60464862014 0.63877777351 0.66790778838 0.69302191562 0.26576171152 0.33975332011 0.40226393329 0.45538277901 0.50083690068 
0.54002084522 0.57404952988 0.60381225391 
_paraPhiHalf 1 1002 double
0 3.1415926536 0 3.1415926536 1.5707963268 1.5707963268 1.5707963268 1.5707963268 2.5880182947 
0.5535743589 2.5880182947 0.5535743589 0 0 0 0 3.1415926536 3.1415926536 
3.1415926536 3.1415926536 3.1415926536 0.17788134 0.38438696014 0.60631181711 0.82323535693 1.0172219679 1.1799687454 
1.3118704726 1.4175000338 1.5022335207 0.17788134 0.38438696014 0.60631181711 0.82323535693 1.0172219679 1.1799687454 
1.3118704726 1.4175000338 1.5022335207 0.093902416448 0.17615329733 0.2478725152 0.31035131605 0.36486382811 0.41257334776 
0.45449736604 0.4915044461 0.52432611754 0.093902416448 0.17615329733 0.2478725152 0.31035131605 0.36486382811 0.41257334776 
0.45449736604 0.4915044461 0.52432611754 2.9637113136 2.7572056934 2.5352808365 2.3183572967 2.1243706857 1.9616239082 
1.829722181 1.7240926197 1.6393591329 2.9637113136 2.7572056934 2.5352808365 2.3183572967 2.1243706857 1.9616239082 
1.829722181 1.7240926197 1.6393591329 3.0476902371 2.9654393563 2.8937201384 2.8312413375 2.7767288255 2.7290193058 
2.6870952876 2.6500882075 2.617266536 3.0476902371 2.9654393563 2.8937201384 2.8312413375 2.7767288255 2.7290193058 
2.6870952876 2.6500882075 2.617266536 0 0 0 0 3.1415926536 3.1415926536 
3.1415926536 3.1415926536 3.1415926536 0.17788134 0.38438696014 0.60631181711 0.82323535693 1.0172219679 1.1799687454 
1.3118704726 1.4175000338 1.5022335207 0.17788134 0.38438696014 0.60631181711 0.82323535693 1.0172219679 1.1799687454 
1.3118704726 1.4175000338 1.5022335207 0.093902416448 0.17615329733 0.2478725152 0.31035131605 0.36486382811 0.41257334776 
0.45449736604 0.4915044461 0.52432611754 0.093902416448 0.17615329733 0.2478725152 0.31035131605 0.36486382811 0.41257334776 
0.45449736604 0.4915044461 0.52432611754 2.9637113136 2.7572056934 2.5352808365 2.3183572967 2.1243706857 1.9616239082 
1.829722181 1.7240926197 1.6393591329 2.9637113136 2.7572056934 2.5352808365 2.3183572967 2.1243706857 1.9616239082 
1.829722181 1.7240926197 1.6393591329 3.0476902371 2.9654393563 2.8937201384 2.8312413375 2.7767288255 2.7290193058 
2.6870952876 2.6500882075 2.617266536 3.0476902371 2.9654393563 2.8937201384 2.8312413375 2.7767288255 2.7290193058 
2.6870952876 2.6500882075 2.617266536 1.5707963268 1.5707963268 1.5707963268 1.5707963268 1.5707963268 1.5707963268 
1.5707963268 1.5707963268 1.5707963268 1.6743954455 1.7840462375 1.8974821136 2.0119052671 2.1243706857 2.232221744 
2.3334263672 2.426721652 2.5115728246 1.4671972081 1.3575464161 1.24411054 1.1296873865 1.0172219679 0.90937090954 
0.80816628637 0.71487100155 0.63001982895 1.6743954455 1.7840462375 1.8974821136 2.0119052671 2.1243706857 2.232221744 
2.3334263672 2.426721652 2.5115728246 1.4671972081 1.3575464161 1.24411054 1.1296873865 1.0172219679 0.90937090954 
0.80816628637 0.71487100155 0.63001982895 1.5707963268 1.5707963268 1.5707963268 1.5707963268 1.5707963268 1.5707963268 
1.5707963268 1.5707963268 1.5707963268 1.6743954455 1.7840462375 1.8974821136 2.0119052671 2.1243706857 2.232221744 
2.3334263672 2.426721652 2.5115728246 1.4671972081 1.3575464161 1.24411054 1.1296873865 1.0172219679 0.90937090954 
0.80816628637 0.71487100155 0.63001982895 1.6743954455 1.7840462375 1.8974821136 2.0119052671 2.1243706857 2.232221744 
2.3334263672 2.426721652 2.5115728246 1.4671972081 1.3575464161 1.24411054 1.1296873865 1.0172219679 0.90937090954 
0.80816628637 0.71487100155 0.63001982895 2.6824132222 2.7864913217 2.8992382033 3.0186096618 3.1415926536 3.0186096618 
2.8992382033 2.7864913217 2.6824132222 0.45917943135 0.35510133185 0.2423544503 0.12298299178 0 0.12298299178 
0.2423544503 0.35510133185 0.45917943135 0.22715816343 0.49462574053 0.3129712797 0.77059342779 0.68021497688 0.49462574053 
1.0172219679 1.0172219679 1.0172219679 1.0172219679 1.2156949949 1.271087727 1.3676273807 1.5707963268 2.1243706857 
1.3676273807 1.447813335 1.5707963268 1.7739652728 2.1243706857 2.6469669131 1.4827341049 1.5707963268 1.6937793186 
1.8705049266 2.1243706857 2.4613776767 2.8286213739 1.5707963268 1.6588585487 1.7739652728 1.9258976586 2.1243706857 
2.3709992258 2.6469669131 2.9144344902 0.26576171152 0.33975332011 0.45685295248 0.40226393329 0.51573716537 0.6552068806 
0.45538277901 0.56421707518 0.69407236469 0.84594095064 0.50083690068 0.60464862014 0.72561863695 0.86392567495 1.0172219679 
0.54002084522 0.63877777351 0.75168694275 0.87851444325 1.0172219679 1.1636342747 0.57404952988 0.66790778838 0.77356233629 
0.89058134991 1.0172219679 1.1502619915 1.2852923014 0.60381225391 0.69302191562 0.79216440667 0.90072551443 1.0172219679 
1.139116835 1.2630228569 1.3852070904 0.71487100155 0.80816628637 0.80816628637 0.90937090954 0.90937090954 0.90937090954 
1.0172219679 1.0172219679 1.0172219679 1.0172219679 1.1296873865 1.1296873865 1.1296873865 1.1296873865 1.1296873865 
1.24411054 1.24411054 1.24411054 1.24411054 1.24411054 1.24411054 1.3575464161 1.3575464161 1.3575464161 
1.3575464161 1.3575464161 1.3575464161 1.3575464161 1.4671972081 1.4671972081 1.4671972081 1.4671972081 1.4671972081 
1.4671972081 1.4671972081 1.4671972081 1.6743954455 1.6743954455 1.7840462375 1.6743954455 1.7840462375 1.8974821136 
1.6743954455 1.7840462375 1.8974821136 2.0119052671 1.6743954455 1.7840462375 1.8974821136 2.0119052671 2.1243706857 
1.6743954455 1.7840462375 1.8974821136 2.0119052671 2.1243706857 2.232221744 1.6743954455 1.7840462375 1.8974821136 
2.0119052671 2.1243706857 2.232221744 2.3334263672 1.6743954455 1.7840462375 1.8974821136 2.0119052671 2.1243706857 
2.232221744 2.3334263672 2.426721652 1.7563855631 1.8785697967 1.8563003522 2.0024758186 1.9913306621 1.9779583789 
2.1243706857 2.1243706857 2.1243706857 2.1243706857 2.2408671392 2.2510113037 2.2630782103 2.2776669786 2.295651703 
2.3494282469 2.3680303173 2.3899057108 2.4159740166 2.4475202889 2.486385773 2.448570738 2.4736848652 2.5028148801 
2.5369440334 2.5773755784 2.6258554882 2.6847397011 2.5377803997 2.5675431237 2.6015718084 2.6407557529 2.6862098746 
2.7393287203 2.8018393335 2.8758309421 2.718901062 2.8307207459 2.7598010554 2.95115522 2.8800620952 2.8058000847 
3.0774230472 3.00855263 2.9351694502 2.8576792927 3.0774230472 3.1415926536 3.0719036933 2.9967168029 2.91630358 
2.95115522 3.00855263 3.0719036933 3.1415926536 3.0653475414 2.9825888767 2.8307207459 2.8800620952 2.9351694502 
2.9967168029 3.0653475414 3.1415926536 3.0574329311 2.718901062 2.7598010554 2.8058000847 2.8576792927 2.91630358 
2.9825888767 3.0574329311 3.1415926536 2.718901062 2.7598010554 2.8307207459 2.8058000847 2.8800620952 2.95115522 
2.8576792927 2.9351694502 3.00855263 3.0774230472 2.91630358 2.9967168029 3.0719036933 3.1415926536 3.0774230472 
2.9825888767 3.0653475414 3.1415926536 3.0719036933 3.00855263 2.95115522 3.0574329311 3.1415926536 3.0653475414 