# vtk DataFile Version 5.1
vtk output
ASCII
DATASET POLYDATA
POINTS 1002 float
-4.76537 0.0571808 -4.75201 4.61429 0.348448 -2.84035 -4.39064 0.0688413 5.7946 
4.77291 -0.361494 4.34992 0.737863 6.37892 -1.94847 0.359849 7.69802 3.84031 
0.0594525 -6.73912 -3.73287 0.331022 -5.78988 3.01701 8.52571 5.37552 -2.03809 
-10.0299 4.64445 -1.39396 9.44648 -5.86708 -0.28597 -9.3075 -5.27182 -1.15692 
-3.99153 0.0268797 -4.70652 -3.20411 -0.0850397 -4.28156 -2.3394 -0.253553 -3.49229 
-1.34706 -0.326779 -2.68761 -0.220773 -0.181818 -2.29867 0.984597 0.0714096 -2.35417 
2.13451 0.233121 -2.52074 3.1059 0.280279 -2.60841 3.90427 0.308241 -2.69186 
-4.56472 0.540954 -4.43802 -4.29027 1.07339 -3.89561 -3.81576 1.68566 -3.17713 
-3.11555 2.3783 -2.49158 -2.3509 3.10612 -2.04668 -1.6706 3.81735 -1.84391 
-1.03399 4.49523 -1.74944 -0.374074 5.14866 -1.71375 0.246601 5.78115 -1.77976 
-4.47562 -0.457907 -5.04658 -4.18247 -1.10128 -5.37029 -3.83765 -1.87588 -5.65083 
-3.3725 -2.68474 -5.76935 -2.83146 -3.47231 -5.65835 -2.33226 -4.31385 -5.37747 
-1.85947 -5.20351 -5.03911 -1.29403 -5.95343 -4.67818 -0.620782 -6.43938 -4.25056 
-5.4938 0.370954 -4.5125 -6.3597 0.759026 -4.27616 -7.28042 1.22064 -4.0151 
-8.11198 1.67086 -3.68149 -8.82694 2.09286 -3.37985 -9.53297 2.63495 -3.23334 
-10.1947 3.35593 -3.09651 -10.5644 4.04588 -2.72444 -10.4805 4.47864 -2.10299 
-5.44335 -0.266659 -4.6926 -6.23547 -0.649736 -4.41632 -7.01611 -1.08747 -4.07145 
-7.684 -1.63176 -3.77219 -8.27025 -2.34672 -3.54832 -8.80401 -3.19804 -3.37166 
-9.18668 -4.04243 -3.11018 -9.34732 -4.72059 -2.6083 -9.35627 -5.13317 -1.89478 
4.49803 0.991665 -2.80879 4.35564 1.68433 -2.75929 4.13158 2.41529 -2.70288 
3.81331 3.14507 -2.6796 3.43406 3.85628 -2.71981 2.99146 4.55937 -2.74128 
2.45859 5.20451 -2.61327 1.86944 5.7065 -2.35437 1.28841 6.07101 -2.10706 
4.31903 -0.322862 -2.72626 4.0346 -1.01975 -2.53551 3.69165 -1.70363 -2.30838 
3.22307 -2.41241 -2.16377 2.66869 -3.20643 -2.19967 2.11312 -4.00926 -2.42508 
1.55664 -4.69596 -2.79207 0.983866 -5.31723 -3.2123 0.4611 -6.00399 -3.56029 
5.28834 0.786564 -3.00519 6.02855 1.24367 -3.1547 6.6986 1.73448 -3.21114 
7.23125 2.33543 -3.18665 7.7531 3.08136 -3.30058 8.3858 3.87925 -3.65892 
8.96696 4.57861 -3.90439 9.19662 5.07327 -3.61992 8.99136 5.32848 -2.8705 
5.1578 -0.068755 -2.96315 5.80408 -0.633523 -3.02165 6.50269 -1.33018 -2.92673 
7.14472 -2.04392 -2.76659 7.7188 -2.73789 -2.71803 8.32573 -3.54236 -2.67532 
8.94297 -4.4745 -2.32967 9.38209 -5.28225 -1.65783 9.53019 -5.73774 -0.919901 
-3.56292 0.257107 5.87769 -2.72412 0.3794 5.75219 -1.81413 0.405882 5.65934 
-0.772258 0.339555 5.77687 0.332559 0.224977 5.91474 1.35212 0.118726 5.76151 
2.26017 0.0315846 5.35586 3.13796 -0.0703355 4.95587 3.99789 -0.206608 4.64754 
-4.12154 0.727191 5.90794 -3.75693 1.46707 5.95418 -3.2893 2.38146 6.0138 
-2.82271 3.45726 6.05264 -2.42085 4.45333 5.88386 -1.96863 5.14415 5.39677 
-1.35852 5.6363 4.7669 -0.681973 6.20683 4.27913 -0.0940795 6.94098 4.0157 
-4.09346 -0.496967 5.66005 -3.79386 -1.15944 5.41199 -3.55858 -1.85709 5.25024 
-3.3023 -2.55199 5.22637 -2.84849 -3.23878 5.08965 -2.19442 -3.85572 4.6519 
-1.51113 -4.34951 4.09784 -0.881276 -4.79406 3.66546 -0.268762 -5.28112 3.34174 
-5.08427 0.24423 5.50122 -5.78639 0.443199 4.82476 -6.4849 0.768452 3.93358 
-7.19199 1.27231 3.07351 -7.84362 1.86487 2.2646 -8.35115 2.42885 1.42112 
-8.78471 2.99194 0.609331 -9.2725 3.61879 -0.0991215 -9.75239 4.22392 -0.75751 
-5.13959 -0.497207 5.42383 -6.07479 -1.14618 4.77838 -7.12301 -1.84972 3.97192 
-8.11836 -2.54933 3.20821 -8.92111 -3.16423 2.51049 -9.47396 -3.63956 1.73398 
-9.74765 -4.02391 0.886575 -9.75032 -4.43331 0.113705 -9.56803 -4.88898 -0.550682 
4.42737 0.362248 4.17181 3.98746 1.13445 3.97835 3.52521 1.98018 3.89917 
3.06673 2.94331 3.86259 2.55468 3.95259 3.68993 1.99552 4.8449 3.48661 
1.51407 5.60472 3.548 1.1521 6.35644 3.83755 0.797498 7.1026 4.00438 
4.55759 -0.989873 4.60895 4.24876 -1.66022 4.73265 3.91692 -2.34309 4.75741 
3.58228 -3.04196 4.78836 3.13813 -3.77808 4.86442 2.49844 -4.49748 4.85524 
1.77594 -5.06971 4.60517 1.15931 -5.42884 4.12824 0.701168 -5.63611 3.56268 
5.29183 -0.0706498 3.88111 5.75261 0.271572 3.26491 6.18252 0.698936 2.56793 
6.65206 1.2306 1.90034 7.13737 1.85098 1.30008 7.50834 2.52881 0.720487 
7.73367 3.24558 0.144878 7.94095 3.98894 -0.447826 8.22248 4.72179 -1.15728 
5.38598 -0.915895 4.14655 5.98869 -1.50357 3.73343 6.63965 -2.10687 3.22845 
7.40557 -2.75743 2.88914 8.18933 -3.44519 2.69356 8.77696 -4.05066 2.29665 
9.11498 -4.51846 1.57973 9.32309 -4.95843 0.801546 9.45376 -5.4401 0.180658 
0.608197 6.98142 -1.99922 0.405782 7.71111 -1.90616 0.26726 8.45922 -1.42783 
0.291462 8.99581 -0.553907 0.362539 9.20608 0.413235 0.30888 9.22193 1.24478 
0.1903 9.15453 2.00794 0.176528 8.90789 2.76781 0.273337 8.39331 3.41378 
1.51966 6.75155 -2.26289 2.38829 7.04362 -2.63993 3.3999 7.2565 -2.99523 
4.58567 7.52373 -3.27226 5.85009 7.89922 -3.544 6.97506 8.13412 -3.82618 
7.77842 7.91379 -3.89156 8.23262 7.23007 -3.53006 8.43651 6.31663 -2.82861 
-0.10414 6.31349 -1.70335 -1.07626 6.22447 -1.39898 -2.22714 6.09719 -0.978661 
-3.51468 5.92898 -0.588799 -4.81813 5.77412 -0.53677 -6.09569 5.68381 -0.895672 
-7.37872 5.61071 -1.36604 -8.5767 5.44703 -1.6312 -9.49268 5.12481 -1.61263 
1.07494 8.00724 3.72326 1.84432 8.00484 3.24269 2.69348 7.65697 2.35495 
3.6426 7.15997 1.26392 4.6662 6.78999 0.28776 5.66136 6.61978 -0.40654 
6.52525 6.49241 -0.886648 7.25985 6.25257 -1.29804 7.92335 5.86875 -1.69664 
-0.441031 7.5905 3.49448 -1.36543 7.21534 2.99398 -2.35228 6.82186 2.64267 
-3.3825 6.7714 2.57925 -4.49351 7.02784 2.51565 -5.68957 7.05619 2.04005 
-6.90546 6.53518 1.12698 -8.07169 5.75365 0.100662 -9.13447 5.10374 -0.76211 
0.260887 -7.3464 -3.31597 0.442184 -7.88527 -2.6836 0.538254 -8.16515 -1.92763 
0.517501 -8.03309 -1.15082 0.441091 -7.59155 -0.396808 0.426367 -7.14402 0.33938 
0.494997 -6.83464 1.06943 0.536217 -6.55178 1.78194 0.467577 -6.19201 2.44087 
0.980032 -6.58297 -3.09583 1.99838 -6.60279 -2.48493 3.05382 -6.85403 -2.04624 
4.0933 -7.11807 -1.76013 5.11738 -7.13609 -1.43422 6.17178 -6.96809 -0.983067 
7.2523 -6.82507 -0.57763 8.24182 -6.68535 -0.382899 8.99245 -6.37976 -0.339073 
-0.672372 -7.28027 -4.06944 -1.42905 -7.5843 -4.09158 -2.31531 -7.34084 -3.63241 
-3.38322 -6.56528 -2.83238 -4.5589 -5.7634 -2.09909 -5.75583 -5.46873 -1.70125 
-6.92002 -5.64867 -1.56125 -7.94343 -5.83281 -1.48462 -8.72872 -5.69511 -1.36211 
1.15954 -6.20757 2.96446 2.08794 -6.61035 2.86752 3.12705 -6.98518 2.79425 
4.22478 -7.34073 2.72722 5.33693 -7.54268 2.51065 6.44851 -7.40236 2.05871 
7.49441 -6.98527 1.46898 8.36569 -6.55048 0.85763 9.00792 -6.20881 0.265066 
-0.466903 -5.66398 2.68664 -1.48657 -5.6641 2.35174 -2.69072 -5.79932 2.06762 
-3.92502 -5.9173 1.82357 -5.10829 -5.87248 1.52389 -6.27921 -5.73356 1.10127 
-7.38539 -5.65409 0.582894 -8.26768 -5.62706 0.0118392 -8.87645 -5.52545 -0.585108 
8.95248 4.38312 -1.66518 9.47442 3.16883 -1.22962 10.0658 1.75986 -0.911136 
10.5771 0.348474 -0.75605 10.7987 -0.860817 -0.637173 10.6742 -1.9128 -0.514398 
10.377 -3.00241 -0.489868 10.0866 -4.13873 -0.537814 9.80523 -5.1357 -0.49176 
-10.681 3.9762 -1.46924 -11.194 3.04813 -1.42766 -11.6341 1.80995 -1.36739 
-12.0792 0.447131 -1.32847 -12.3744 -0.79499 -1.25523 -12.1979 -1.88018 -1.15549 
-11.5085 -2.89944 -1.1421 -10.6418 -3.85151 -1.22508 -9.89902 -4.65846 -1.26373 
-3.7723 0.499504 -4.14654 -3.41274 1.04447 -3.42111 -2.90815 0.391024 -3.5481 
-2.77169 1.72804 -2.71741 -2.38529 1.00201 -2.86889 -1.87582 0.295801 -2.82078 
-1.93131 2.51775 -2.25672 -1.57491 1.80012 -2.42564 -1.16417 1.04495 -2.44199 
-0.685003 0.3797 -2.3374 -1.15405 3.29915 -2.07872 -0.690097 2.66489 -2.23965 
-0.283965 1.94816 -2.29693 0.127631 1.26301 -2.28852 0.556897 0.650262 -2.29872 
-0.521923 4.02725 -2.02961 0.0380102 3.46404 -2.20627 0.539081 2.81963 -2.24207 
0.95417 2.171 -2.25729 1.34571 1.53992 -2.36174 1.74325 0.889249 -2.4851 
0.0968274 4.74038 -1.99176 0.657675 4.2298 -2.23009 1.22557 3.615 -2.29455 
1.6959 2.97666 -2.24895 2.08621 2.34981 -2.30752 2.45515 1.68156 -2.48605 
2.80007 0.967606 -2.61092 0.735639 5.43839 -1.99714 1.28497 5.00221 -2.27391 
1.86227 4.42209 -2.456 2.37189 3.75535 -2.44836 2.78558 3.0885 -2.3952 
3.14782 2.41057 -2.463 3.46119 1.69137 -2.59838 3.70629 0.97267 -2.68043 
-5.26352 0.93814 -4.26927 -6.08645 1.42837 -4.07804 -4.91218 1.56182 -3.76782 
-6.96452 1.96356 -3.8064 -5.66895 2.11595 -3.61915 -4.36076 2.22343 -3.05102 
-7.76672 2.44391 -3.44661 -6.50117 2.66737 -3.36695 -5.0784 2.7804 -2.9119 
-3.6455 2.91539 -2.3327 -8.45633 2.91213 -3.16816 -7.23718 3.16142 -3.01773 
-5.84759 3.33084 -2.64235 -4.33112 3.46988 -2.12311 -2.88938 3.64045 -1.81567 
-9.07847 3.51186 -3.03629 -7.79967 3.66706 -2.74023 -6.44427 3.85426 -2.26478 
-4.975 4.04604 -1.75895 -3.47161 4.21766 -1.48257 -2.1376 4.36402 -1.53185 
-9.55305 4.19978 -2.82061 -8.23777 4.2615 -2.54674 -6.84277 4.37579 -1.96278 
-5.43396 4.58308 -1.35158 -3.97329 4.79753 -1.05872 -2.57199 4.94185 -1.15915 
-1.37705 5.03982 -1.43784 -9.70656 4.77164 -2.32462 -8.52903 4.89094 -2.21834 
-7.15672 4.95647 -1.73266 -5.78449 5.08951 -1.09079 -4.40977 5.29481 -0.718937 
-3.02045 5.47796 -0.820409 -1.74404 5.59085 -1.17695 -0.669556 5.67837 -1.51277 
-8.52269 5.75928 -0.81809 -7.40621 6.62833 0.204375 -7.57779 6.24553 -0.733297 
-6.18159 7.46657 1.26916 -6.45723 7.19804 0.283067 -6.40295 6.44623 -0.514718 
-4.87897 7.76266 2.02979 -5.18167 7.87423 1.17706 -5.2947 7.26569 0.260086 
-5.15151 6.42361 -0.309761 -3.61694 7.5023 2.27978 -3.80649 7.93748 1.69977 
-3.97778 7.7336 0.827822 -4.04634 7.08479 0.0437683 -3.87332 6.42845 -0.387341 
-2.51361 7.3362 2.27606 -2.56259 7.77441 1.85549 -2.61017 7.88646 1.16771 
-2.75102 7.61388 0.295522 -2.79852 7.12581 -0.426787 -2.57897 6.6005 -0.814261 
-1.53566 7.65758 2.47096 -1.56668 7.99286 1.97556 -1.48168 8.16577 1.39101 
-1.4994 8.15694 0.591722 -1.63334 7.91772 -0.317756 -1.61375 7.43639 -1.0164 
[...]
POINT_DATA 1002
FIELD FieldData 4
_paraPhi 1 1002 double
6.2831853072 3.1415926536 6.2831853072 3.1415926536 4.7123889804 4.7123889804 1.5707963268 1.5707963268 3.6951670125 
5.7296109483 2.5880182947 0.5535743589 6.2831853072 6.2831853072 6.2831853072 6.2831853072 3.1415926536 3.1415926536 
3.1415926536 3.1415926536 3.1415926536 6.1053039672 5.898798347 5.6768734901 5.4599499503 5.2659633393 5.1032165617 
4.9713148346 4.8656852733 4.7809517865 0.17788134 0.38438696014 0.60631181711 0.82323535693 1.0172219679 1.1799687454 
1.3118704726 1.4175000338 1.5022335207 6.1892828907 6.1070320098 6.035312792 5.9728339911 5.9183214791 5.8706119594 
5.8286879411 5.7916808611 5.7588591896 0.093902416448 0.17615329733 0.2478725152 0.31035131605 0.36486382811 0.41257334776 
0.45449736604 0.4915044461 0.52432611754 3.3194739936 3.5259796137 3.7479044707 3.9648280105 4.1588146215 4.321561399 
4.4534631262 4.5590926874 4.6438261743 2.9637113136 2.7572056934 2.5352808365 2.3183572967 2.1243706857 1.9616239082 
1.829722181 1.7240926197 1.6393591329 3.23549507 3.3177459509 3.3894651688 3.4519439696 3.5064564817 3.5541660013 
3.5960900196 3.6330970997 3.6659187711 3.0476902371 2.9654393563 2.8937201384 2.8312413375 2.7767288255 2.7290193058 
2.6870952876 2.6500882075 2.617266536 6.2831853072 6.2831853072 6.2831853072 6.2831853072 3.1415926536 3.1415926536 
3.1415926536 3.1415926536 3.1415926536 6.1053039672 5.898798347 5.6768734901 5.4599499503 5.2659633393 5.1032165617 
4.9713148346 4.8656852733 4.7809517865 0.17788134 0.38438696014 0.60631181711 0.82323535693 1.0172219679 1.1799687454 
1.3118704726 1.4175000338 1.5022335207 6.1892828907 6.1070320098 6.035312792 5.9728339911 5.9183214791 5.8706119594 
5.8286879411 5.7916808611 5.7588591896 0.093902416448 0.17615329733 0.2478725152 0.31035131605 0.36486382811 0.41257334776 
0.45449736604 0.4915044461 0.52432611754 3.3194739936 3.5259796137 3.7479044707 3.9648280105 4.1588146215 4.321561399 
4.4534631262 4.5590926874 4.6438261743 2.9637113136 2.7572056934 2.5352808365 2.3183572967 2.1243706857 1.9616239082 
1.829722181 1.7240926197 1.6393591329 3.23549507 3.3177459509 3.3894651688 3.4519439696 3.5064564817 3.5541660013 
3.5960900196 3.6330970997 3.6659187711 3.0476902371 2.9654393563 2.8937201384 2.8312413375 2.7767288255 2.7290193058 
2.6870952876 2.6500882075 2.617266536 4.7123889804 4.7123889804 4.7123889804 4.7123889804 4.7123889804 4.7123889804 
4.7123889804 4.7123889804 4.7123889804 4.6087898617 4.4991390697 4.3857031936 4.2712800401 4.1588146215 4.0509635631 
3.94975894 3.8564636551 3.7716124825 4.8159880991 4.9256388911 5.0390747672 5.1534979207 5.2659633393 5.3738143976 
5.4750190208 5.5683143056 5.6531654782 4.6087898617 4.4991390697 4.3857031936 4.2712800401 4.1588146215 4.0509635631 
3.94975894 3.8564636551 3.7716124825 4.8159880991 4.9256388911 5.0390747672 5.1534979207 5.2659633393 5.3738143976 
5.4750190208 5.5683143056 5.6531654782 1.5707963268 1.5707963268 1.5707963268 1.5707963268 1.5707963268 1.5707963268 
1.5707963268 1.5707963268 1.5707963268 1.6743954455 1.7840462375 1.8974821136 2.0119052671 2.1243706857 2.232221744 
2.3334263672 2.426721652 2.5115728246 1.4671972081 1.3575464161 1.24411054 1.1296873865 1.0172219679 0.90937090954 
0.80816628637 0.71487100155 0.63001982895 1.6743954455 1.7840462375 1.8974821136 2.0119052671 2.1243706857 2.232221744 
2.3334263672 2.426721652 2.5115728246 1.4671972081 1.3575464161 1.24411054 1.1296873865 1.0172219679 0.90937090954 
0.80816628637 0.71487100155 0.63001982895 3.6007720849 3.4966939854 3.3839471039 3.2645756454 3.1415926536 3.0186096618 
2.8992382033 2.7864913217 2.6824132222 5.8240058758 5.9280839753 6.0408308569 6.1602023154 6.2831853072 0.12298299178 
0.2423544503 0.35510133185 0.45917943135 6.0560271438 5.7885595667 5.9702140275 5.5125918794 5.6029703303 5.7885595667 
5.2659633393 5.2659633393 5.2659633393 5.2659633393 5.0674903122 5.0120975802 4.9155579264 4.7123889804 4.1588146215 
4.9155579264 4.8353719722 4.7123889804 4.5092200343 4.1588146215 3.6362183941 4.8004512023 4.7123889804 4.5894059886 
4.4126803806 4.1588146215 3.8218076305 3.4545639333 4.7123889804 4.6243267584 4.5092200343 4.3572876485 4.1588146215 
3.9121860814 3.6362183941 3.368750817 6.0174235957 5.9434319871 5.8263323547 5.8809213739 5.7674481418 5.6279784266 
5.8278025282 5.718968232 5.5891129425 5.4372443565 5.7823484065 5.678536687 5.5575666702 5.4192596322 5.2659633393 
5.743164462 5.6444075337 5.5314983644 5.4046708639 5.2659633393 5.1195510325 5.7091357773 5.6152775188 5.5096229709 
5.3926039573 5.2659633393 5.1329233157 4.9978930058 5.6793730533 5.5901633916 5.4910209005 5.3824597928 5.2659633393 
5.1440684722 5.0201624502 4.8979782167 5.5683143056 5.4750190208 5.4750190208 5.3738143976 5.3738143976 5.3738143976 
5.2659633393 5.2659633393 5.2659633393 5.2659633393 5.1534979207 5.1534979207 5.1534979207 5.1534979207 5.1534979207 
5.0390747672 5.0390747672 5.0390747672 5.0390747672 5.0390747672 5.0390747672 4.9256388911 4.9256388911 4.9256388911 
4.9256388911 4.9256388911 4.9256388911 4.9256388911 4.8159880991 4.8159880991 4.8159880991 4.8159880991 4.8159880991 
4.8159880991 4.8159880991 4.8159880991 4.6087898617 4.6087898617 4.4991390697 4.6087898617 4.4991390697 4.3857031936 
4.6087898617 4.4991390697 4.3857031936 4.2712800401 4.6087898617 4.4991390697 4.3857031936 4.2712800401 4.1588146215 
4.6087898617 4.4991390697 4.3857031936 4.2712800401 4.1588146215 4.0509635631 4.6087898617 4.4991390697 4.3857031936 
4.2712800401 4.1588146215 4.0509635631 3.94975894 4.6087898617 4.4991390697 4.3857031936 4.2712800401 4.1588146215 
4.0509635631 3.94975894 3.8564636551 4.526799744 4.4046155105 4.426884955 4.2807094886 4.2918546451 4.3052269283 
4.1588146215 4.1588146215 4.1588146215 4.1588146215 4.042318168 4.0321740035 4.0201070968 4.0055183285 3.9875336042 
3.9337570603 3.9151549899 3.8932795963 3.8672112905 3.8356650183 3.7967995342 3.8346145692 3.809500442 3.7803704271 
3.7462412737 3.7058097288 3.657329819 3.5984456061 3.7454049075 3.7156421835 3.6816134988 3.6424295543 3.5969754326 
3.5438565869 3.4813459737 3.4073543651 3.5642842451 3.4524645613 3.5233842518 3.3320300872 3.403123212 3.4773852225 
3.20576226 3.2746326772 3.348015857 3.4255060145 3.0774230472 3.1415926536 3.2112816139 3.2864685043 3.3668817272 
2.95115522 3.00855263 3.0719036933 3.1415926536 3.2178377658 3.3005964304 2.8307207459 2.8800620952 2.9351694502 
2.9967168029 3.0653475414 3.1415926536 3.225752376 2.718901062 2.7598010554 2.8058000847 2.8576792927 2.91630358 
2.9825888767 3.0574329311 3.1415926536 3.5642842451 3.5233842518 3.4524645613 3.4773852225 3.403123212 3.3320300872 
3.4255060145 3.348015857 3.2746326772 3.20576226 3.3668817272 3.2864685043 3.2112816139 3.1415926536 3.0774230472 
3.3005964304 3.2178377658 3.1415926536 3.0719036933 3.00855263 2.95115522 3.225752376 3.1415926536 3.0653475414 
2.9967168029 2.9351694502 2.8800620952 2.8307207459 3.1415926536 3.0574329311 2.9825888767 2.91630358 2.8576792927 
2.8058000847 2.7598010554 2.718901062 4.526799744 4.426884955 4.4046155105 4.3052269283 4.2918546451 4.2807094886 
4.1588146215 4.1588146215 4.1588146215 4.1588146215 3.9875336042 4.0055183285 4.0201070968 4.0321740035 4.042318168 
3.7967995342 3.8356650183 3.8672112905 3.8932795963 3.9151549899 3.9337570603 3.5984456061 3.657329819 3.7058097288 
3.7462412737 3.7803704271 3.809500442 3.8346145692 3.4073543651 3.4813459737 3.5438565869 3.5969754326 3.6424295543 
3.6816134988 3.7156421835 3.7454049075 4.7123889804 4.8004512023 4.6243267584 4.9155579264 4.7123889804 4.5092200343 
5.0674903122 4.8353719722 4.5894059886 4.3572876485 5.2659633393 5.0120975802 4.7123889804 4.4126803806 4.1588146215 
5.5125918794 5.2659633393 4.9155579264 4.5092200343 4.1588146215 3.9121860814 5.7885595667 5.6029703303 5.2659633393 
4.7123889804 4.1588146215 3.8218076305 3.6362183941 6.0560271438 5.9702140275 5.7885595667 5.2659633393 4.1588146215 
3.6362183941 3.4545639333 3.368750817 0.22715816343 0.49462574053 0.3129712797 0.77059342779 0.68021497688 0.49462574053 
1.0172219679 1.0172219679 1.0172219679 1.0172219679 1.2156949949 1.271087727 1.3676273807 1.5707963268 2.1243706857 
1.3676273807 1.447813335 1.5707963268 1.7739652728 2.1243706857 2.6469669131 1.4827341049 1.5707963268 1.6937793186 
1.8705049266 2.1243706857 2.4613776767 2.8286213739 1.5707963268 1.6588585487 1.7739652728 1.9258976586 2.1243706857 
2.3709992258 2.6469669131 2.9144344902 1.7563855631 1.8785697967 1.8563003522 2.0024758186 1.9913306621 1.9779583789 
2.1243706857 2.1243706857 2.1243706857 2.1243706857 2.2408671392 2.2510113037 2.2630782103 2.2776669786 2.295651703 
2.3494282469 2.3680303173 2.3899057108 2.4159740166 2.4475202889 2.486385773 2.448570738 2.4736848652 2.5028148801 
2.5369440334 2.5773755784 2.6258554882 2.6847397011 2.5377803997 2.5675431237 2.6015718084 2.6407557529 2.6862098746 
2.7393287203 2.8018393335 2.8758309421 1.6743954455 1.6743954455 1.7840462375 1.6743954455 1.7840462375 1.8974821136 
1.6743954455 1.7840462375 1.8974821136 2.0119052671 1.6743954455 1.7840462375 1.8974821136 2.0119052671 2.1243706857 
1.6743954455 1.7840462375 1.8974821136 2.0119052671 2.1243706857 2.232221744 1.6743954455 1.7840462375 1.8974821136 
2.0119052671 2.1243706857 2.232221744 2.3334263672 1.6743954455 1.7840462375 1.8974821136 2.0119052671 2.1243706857 
2.232221744 2.3334263672 2.426721652 1.4671972081 1.3575464161 1.4671972081 1.24411054 1.3575464161 1.4671972081 
1.1296873865 1.24411054 1.3575464161 1.4671972081 1.0172219679 1.1296873865 1.24411054 1.3575464161 1.4671972081 
0.90937090954 1.0172219679 1.1296873865 1.24411054 1.3575464161 1.4671972081 0.80816628637 0.90937090954 1.0172219679 
1.1296873865 1.24411054 1.3575464161 1.4671972081 0.71487100155 0.80816628637 0.90937090954 1.0172219679 1.1296873865 
1.24411054 1.3575464161 1.4671972081 0.60381225391 0.57404952988 0.69302191562 0.54002084522 0.66790778838 0.79216440667 
0.50083690068 0.63877777351 0.77356233629 0.90072551443 0.45538277901 0.60464862014 0.75168694275 0.89058134991 1.0172219679 
0.40226393329 0.56421707518 0.72561863695 0.87851444325 1.0172219679 1.139116835 0.33975332011 0.51573716537 0.69407236469 
0.86392567495 1.0172219679 1.1502619915 1.2630228569 0.26576171152 0.45685295248 0.6552068806 0.84594095064 1.0172219679 
1.1636342747 1.2852923014 1.3852070904 0.22715816343 0.3129712797 0.49462574053 0.49462574053 0.68021497688 0.77059342779 
1.0172219679 1.0172219679 1.0172219679 1.0172219679 2.1243706857 1.5707963268 1.3676273807 1.271087727 1.2156949949 
2.6469669131 2.1243706857 1.7739652728 1.5707963268 1.447813335 1.3676273807 2.8286213739 2.4613776767 2.1243706857 
1.8705049266 1.6937793186 1.5707963268 1.4827341049 2.9144344902 2.6469669131 2.3709992258 2.1243706857 1.9258976586 
1.7739652728 1.6588585487 1.5707963268 1.7563855631 1.8563003522 1.8785697967 1.9779583789 1.9913306621 2.0024758186 
2.1243706857 2.1243706857 2.1243706857 2.1243706857 2.295651703 2.2776669786 2.2630782103 2.2510113037 2.2408671392 
2.486385773 2.4475202889 2.4159740166 2.3899057108 2.3680303173 2.3494282469 2.6847397011 2.6258554882 2.5773755784 
2.5369440334 2.5028148801 2.4736848652 2.448570738 2.8758309421 2.8018393335 2.7393287203 2.6862098746 2.6407557529 
2.6015718084 2.5675431237 2.5377803997 5.8604937156 5.901393709 5.9723133995 5.9473927383 6.0216547488 6.0927478736 
5.9992719463 6.0767621038 6.1501452836 6.2190157008 6.0578962336 6.1383094565 6.2134963469 0 0.064169606361 
6.1241815303 6.206940195 6.2831853072 0.069688960264 0.13304002361 0.19043743361 6.1990255847 0 0.07624511221 
0.14487585072 0.20642320337 0.26153055843 0.3108719077 0 0.084159722458 0.15900377685 0.22528907359 0.28391336087 
0.3357925689 0.38179159818 0.42269159155 5.8604937156 5.9723133995 5.901393709 6.0927478736 6.0216547488 5.9473927383 
6.2190157008 6.1501452836 6.0767621038 5.9992719463 0.064169606361 0 6.2134963469 6.1383094565 6.0578962336 
0.19043743361 0.13304002361 0.069688960264 6.2831853072 6.206940195 6.1241815303 0.3108719077 0.26153055843 0.20642320337 
0.14487585072 0.07624511221 6.2831853072 6.1990255847 0.42269159155 0.38179159818 0.3357925689 0.28391336087 0.22528907359 
0.15900377685 0.084159722458 0 5.6793730533 5.7091357773 5.5901633916 5.743164462 5.6152775188 5.4910209005 
5.7823484065 5.6444075337 5.5096229709 5.3824597928 5.8278025282 5.678536687 5.5314983644 5.3926039573 5.2659633393 
5.8809213739 5.718968232 5.5575666702 5.4046708639 5.2659633393 5.1440684722 5.9434319871 5.7674481418 5.5891129425 
5.4192596322 5.2659633393 5.1329233157 5.0201624502 6.0174235957 5.8263323547 5.6279784266 5.4372443565 5.2659633393 
5.1195510325 4.9978930058 4.8979782167 1.3852070904 1.2852923014 1.2630228569 1.1636342747 1.1502619915 1.139116835 
1.0172219679 1.0172219679 1.0172219679 1.0172219679 0.84594095064 0.86392567495 0.87851444325 0.89058134991 0.90072551443 
0.6552068806 0.69407236469 0.72561863695 0.75168694275 0.77356233629 0.79216440667 0.45685295248 0.51573716537 0.56421707518 
0.60464862014 0.63877777351 0.66790778838 0.69302191562 0.26576171152 0.33975332011 0.40226393329 0.45538277901 0.50083690068 
0.54002084522 0.57404952988 0.60381225391 
_paraPhiHalf 1 1002 double
0 3.1415926536 0 3.1415926536 1.5707963268 1.5707963268 1.5707963268 1.5707963268 2.5880182947 
0.5535743589 2.5880182947 0.5535743589 0 0 0 0 3.1415926536 3.1415926536 
3.1415926536 3.1415926536 3.1415926536 0.17788134 0.38438696014 0.60631181711 0.82323535693 1.0172219679 1.1799687454 
1.3118704726 1.4175000338 1.5022335207 0.17788134 0.38438696014 0.60631181711 0.82323535693 1.0172219679 1.1799687454 
1.3118704726 1.4175000338 1.5022335207 0.093902416448 0.17615329733 0.2478725152 0.31035131605 0.36486382811 0.41257334776 
0.45449736604 0.4915044461 0.52432611754 0.093902416448 0.17615329733 0.2478725152 0.31035131605 0.36486382811 0.41257334776 
0.45449736604 0.4915044461 0.52432611754 2.9637113136 2.7572056934 2.5352808365 2.3183572967 2.1243706857 1.9616239082 
1.829722181 1.7240926197 1.6393591329 2.9637113136 2.7572056934 2.5352808365 2.3183572967 2.1243706857 1.9616239082 
1.829722181 1.7240926197 1.6393591329 3.0476902371 2.9654393563 2.8937201384 2.8312413375 2.7767288255 2.7290193058 
2.6870952876 2.6500882075 2.617266536 3.0476902371 2.9654393563 2.8937201384 2.8312413375 2.7767288255 2.7290193058 
2.6870952876 2.6500882075 2.617266536 0 0 0 0 3.1415926536 3.1415926536 
3.1415926536 3.1415926536 3.1415926536 0.17788134 0.38438696014 0.60631181711 0.82323535693 1.0172219679 1.1799687454 
1.3118704726 1.4175000338 1.5022335207 0.17788134 0.38438696014 0.60631181711 0.82323535693 1.0172219679 1.1799687454 
1.3118704726 1.4175000338 1.5022335207 0.093902416448 0.17615329733 0.2478725152 0.31035131605 0.36486382811 0.41257334776 
0.45449736604 0.4915044461 0.52432611754 0.093902416448 0.17615329733 0.2478725152 0.31035131605 0.36486382811 0.41257334776 
0.45449736604 0.4915044461 0.52432611754 2.9637113136 2.7572056934 2.5352808365 2.3183572967 2.1243706857 1.9616239082 
1.829722181 1.7240926197 1.6393591329 2.9637113136 2.7572056934 2.5352808365 2.3183572967 2.1243706857 1.9616239082 
1.829722181 1.7240926197 1.6393591329 3.0476902371 2.9654393563 2.8937201384 2.8312413375 2.7767288255 2.7290193058 
2.6870952876 2.6500882075 2.617266536 3.0476902371 2.9654393563 2.8937201384 2.8312413375 2.7767288255 2.7290193058 
2.6870952876 2.6500882075 2.617266536 1.5707963268 1.5707963268 1.5707963268 1.5707963268 1.5707963268 1.5707963268 
1.5707963268 1.5707963268 1.5707963268 1.6743954455 1.7840462375 1.8974821136 2.0119052671 2.1243706857 2.232221744 
2.3334263672 2.426721652 2.5115728246 1.4671972081 1.3575464161 1.24411054 1.1296873865 1.0172219679 0.90937090954 
0.80816628637 0.71487100155 0.63001982895 1.6743954455 1.7840462375 1.8974821136 2.0119052671 2.1243706857 2.232221744 
2.3334263672 2.426721652 2.5115728246 1.4671972081 1.3575464161 1.24411054 1.1296873865 1.0172219679 0.90937090954 
0.80816628637 0.71487100155 0.63001982895 1.5707963268 1.5707963268 1.5707963268 1.5707963268 1.5707963268 1.5707963268 
1.5707963268 1.5707963268 1.5707963268 1.6743954455 1.7840462375 1.8974821136 2.0119052671 2.1243706857 2.232221744 
2.3334263672 2.426721652 2.5115728246 1.4671972081 1.3575464161 1.24411054 1.1296873865 1.0172219679 0.90937090954 
0.80816628637 0.71487100155 0.63001982895 1.6743954455 1.7840462375 1.8974821136 2.0119052671 2.1243706857 2.232221744 
2.3334263672 2.426721652 2.5115728246 1.4671972081 1.3575464161 1.24411054 1.1296873865 1.0172219679 0.90937090954 
0.80816628637 0.71487100155 0.63001982895 2.6824132222 2.7864913217 2.8992382033 3.0186096618 3.1415926536 3.0186096618 
2.8992382033 2.7864913217 2.6824132222 0.45917943135 0.35510133185 0.2423544503 0.12298299178 0 0.12298299178 
0.2423544503 0.35510133185 0.45917943135 0.22715816343 0.49462574053 0.3129712797 0.77059342779 0.68021497688 0.49462574053 
1.0172219679 1.0172219679 1.0172219679 1.0172219679 1.2156949949 1.271087727 1.3676273807 1.5707963268 2.1243706857 
1.3676273807 1.447813335 1.5707963268 1.7739652728 2.1243706857 2.6469669131 1.4827341049 1.5707963268 1.6937793186 
1.8705049266 2.1243706857 2.4613776767 2.8286213739 1.5707963268 1.6588585487 1.7739652728 1.9258976586 2.1243706857 
2.3709992258 2.6469669131 2.9144344902 0.26576171152 0.33975332011 0.45685295248 0.40226393329 0.51573716537 0.6552068806 
0.45538277901 0.56421707518 0.69407236469 0.84594095064 0.50083690068 0.60464862014 0.72561863695 0.86392567495 1.0172219679 
0.54002084522 0.63877777351 0.75168694275 0.87851444325 1.0172219679 1.1636342747 0.57404952988 0.66790778838 0.77356233629 
0.89058134991 1.0172219679 1.1502619915 1.2852923014 0.60381225391 0.69302191562 0.79216440667 0.90072551443 1.0172219679 
1.139116835 1.2630228569 1.3852070904 0.71487100155 0.80816628637 0.80816628637 0.90937090954 0.90937090954 0.90937090954 
1.0172219679 1.0172219679 1.0172219679 1.0172219679 1.1296873865 1.1296873865 1.1296873865 1.1296873865 1.1296873865 
1.24411054 1.24411054 1.24411054 1.24411054 1.24411054 1.24411054 1.3575464161 1.3575464161 1.3575464161 
1.3575464161 1.3575464161 1.3575464161 1.3575464161 1.4671972081 1.4671972081 1.4671972081 1.4671972081 1.4671972081 
1.4671972081 1.4671972081 1.4671972081 1.6743954455 1.6743954455 1.7840462375 1.6743954455 1.7840462375 1.8974821136 
1.6743954455 1.7840462375 1.8974821136 2.0119052671 1.6743954455 1.7840462375 1.8974821136 2.0119052671 2.1243706857 
1.6743954455 1.7840462375 1.8974821136 2.0119052671 2.1243706857 2.232221744 1.6743954455 1.7840462375 1.8974821136 
2.0119052671 2.1243706857 2.232221744 2.3334263672 1.6743954455 1.7840462375 1.8974821136 2.0119052671 2.1243706857 
2.232221744 2.3334263672 2.426721652 1.7563855631 1.8785697967 1.8563003522 2.0024758186 1.9913306621 1.9779583789 
2.1243706857 2.1243706857 2.1243706857 2.1243706857 2.2408671392 2.2510113037 2.2630782103 2.2776669786 2.295651703 
2.3494282469 2.3680303173 2.3899057108 2.4159740166 2.4475202889 2.486385773 2.448570738 2.4736848652 2.5028148801 
2.5369440334 2.5773755784 2.6258554882 2.6847397011 2.5377803997 2.5675431237 2.6015718084 2.6407557529 2.6862098746 
2.7393287203 2.8018393335 2.8758309421 2.718901062 2.8307207459 2.7598010554 2.95115522 2.8800620952 2.8058000847 
3.0774230472 3.00855263 2.9351694502 2.8576792927 3.0774230472 3.1415926536 3.0719036933 2.9967168029 2.91630358 
2.95115522 3.00855263 3.0719036933 3.1415926536 3.0653475414 2.9825888767 2.8307207459 2.8800620952 2.9351694502 
2.9967168029 3.0653475414 3.1415926536 3.0574329311 2.718901062 2.7598010554 2.8058000847 2.8576792927 2.91630358 
2.9825888767 3.0574329311 3.1415926536 2.718901062 2.7598010554 2.8307207459 2.8058000847 2.8800620952 2.95115522 
2.8576792927 2.9351694502 3.00855263 3.0774230472 2.91630358 2.9967168029 3.0719036933 3.1415926536 3.0774230472 
2.9825888767 3.0653475414 3.1415926536 3.0719036933 3.00855263 2.95115522 3.0574329311 3.1415926536 3.0653475414 