# vtk DataFile Version 5.1
vtk output
ASCII
DATASET POLYDATA
POINTS 1002 float
12.8459 41.1358 17.271 21.4396 46.4473 15.3717 15.1267 36.4415 9.79971 
22.8362 43.3612 9.37302 21.5885 39.9328 18.6526 22.5803 36.5542 14.1134 
14.1594 47.504 11.7588 15.6379 45.7167 6.45788 29.9036 44.1102 14.6003 
12.191 33.941 17.1491 22.2818 51.3928 10.4594 9.06009 39.8596 11.9868 
13.7292 41.5532 17.1609 14.5614 42.0719 17.0265 15.3627 42.5837 16.6917 
16.2844 42.8829 16.0394 17.3405 43.0387 15.3193 18.3147 43.4429 14.9652 
19.0875 44.263 15.0618 19.798 45.2115 15.3088 20.5908 45.9618 15.4312 
13.3946 40.9426 17.6135 13.9992 40.692 17.8697 14.7247 40.3233 17.9514 
15.5844 39.886 17.8544 16.5468 39.5245 17.6798 17.6254 39.3509 17.601 
18.7976 39.3857 17.7637 19.9099 39.5731 18.1299 20.8321 39.7952 18.4861 
12.843 41.5482 16.7954 12.8711 42.0284 16.2611 13.0073 42.6931 15.724 
13.2466 43.4919 15.2009 13.4455 44.293 14.7075 13.4771 45.0925 14.2511 
13.4222 45.9121 13.7567 13.4816 46.6363 13.1381 13.748 47.155 12.4327 
12.2663 40.5158 17.6032 11.6534 39.6132 17.9235 11.1764 38.5555 18.1876 
10.9885 37.6006 18.3055 10.9481 36.7701 18.3061 10.7941 35.8512 18.3781 
10.6413 34.8818 18.5209 10.8407 34.1903 18.4315 11.4437 33.9288 17.9234 
11.9322 41.0657 17.1308 11.0737 41.0129 16.9328 10.4626 40.8126 16.5777 
10.0493 40.436 16.0826 9.58777 40.1019 15.553 9.0617 39.9885 14.9854 
8.74324 40.0004 14.2893 8.74758 39.9771 13.4813 8.90773 39.9079 12.6819 
21.5725 45.855 15.6162 21.6928 45.1894 15.9108 21.7889 44.6394 16.4193 
21.8644 44.2305 17.0986 21.9272 43.6798 17.6367 21.9737 42.8132 17.9077 
21.9874 41.8825 18.1559 21.9405 41.1555 18.4964 21.8063 40.5669 18.7173 
20.7986 46.6679 15.115 20.1979 46.7182 14.6509 19.6273 46.6012 13.9637 
19.0382 46.488 13.2362 18.3562 46.5786 12.7555 17.5137 46.8662 12.5936 
16.5417 47.1818 12.5328 15.5892 47.4071 12.3649 14.7884 47.5134 12.0788 
22.4667 46.4626 15.3593 23.6442 46.4447 15.3256 24.8256 46.4483 15.3773 
25.8798 46.4185 15.5673 26.8133 46.2528 15.8439 27.7377 45.9157 16.0255 
28.6726 45.4544 15.9182 29.4481 44.9602 15.5282 29.8678 44.509 15.0399 
21.8678 46.9733 15.0501 22.2374 47.4863 14.5879 22.5397 48.1316 14.128 
22.8183 48.9738 13.8461 23.0555 49.8155 13.6554 23.1378 50.4389 13.2446 
23.0077 50.8836 12.5235 22.7497 51.2392 11.7216 22.4868 51.4355 11.0336 
16.0089 36.9253 9.61666 16.9716 37.4217 9.36804 18.0371 37.9443 9.07942 
19.1503 38.5609 8.80537 20.1315 39.3263 8.64713 20.8206 40.1841 8.67753 
21.277 41.0362 8.84744 21.7129 41.8598 9.04904 22.2489 42.6531 9.22524 
15.8174 36.1005 9.92518 16.6421 35.7453 10.0703 17.6532 35.4126 10.2492 
18.8528 35.1219 10.399 20.0851 34.8883 10.5275 21.0467 34.8117 10.8631 
21.5673 35.0395 11.6125 21.8211 35.5491 12.6237 22.1155 36.1179 13.528 
15.0514 37.0527 9.52102 15.0683 37.7171 9.1832 15.1585 38.6184 8.91934 
15.2643 39.8172 8.75893 15.3646 41.0646 8.53118 15.4867 42.1253 8.12698 
15.6158 43.0804 7.6635 15.6845 44.0508 7.24391 15.6731 44.9621 6.84188 
14.672 35.6814 9.97193 14.2262 34.8143 10.0208 13.7957 34.107 10.1568 
13.3935 33.83 10.8048 13.0476 33.9095 12.0582 12.7826 34.0383 13.4105 
12.5921 34.0809 14.426 12.4394 34.0731 15.2489 12.2994 34.0236 16.1643 
14.1191 36.3699 9.79651 12.946 36.3589 9.77657 11.7879 36.4279 9.76662 
10.9356 36.6283 9.84762 10.4056 37.0465 10.1059 9.9036 37.6579 10.4938 
9.34392 38.289 10.8712 8.97683 38.8287 11.2077 8.93496 39.3271 11.5745 
22.9026 42.809 9.82558 22.8808 42.2197 10.3377 22.8507 41.5146 10.8053 
22.9199 40.5907 11.1589 23.0702 39.5438 11.4875 23.1422 38.6572 11.9432 
23.0502 38.0394 12.527 22.8753 37.5374 13.1169 22.7139 37.0325 13.6425 
22.3111 43.5233 8.86804 21.7599 43.7279 8.30877 21.2468 43.9734 7.72516 
20.6474 44.2833 7.24895 19.813 44.6543 6.95194 18.8569 44.9981 6.71985 
17.9836 45.2401 6.45721 17.188 45.4139 6.26164 16.3908 45.5748 6.26254 
23.4911 43.6624 9.77819 24.1075 43.9035 10.2198 24.6983 44.0373 10.7173 
25.4158 44.052 11.2665 26.3471 43.9755 11.7883 27.3405 43.8874 12.2311 
28.1966 43.8833 12.6828 28.889 43.9704 13.2472 29.4665 44.0652 13.9102 
23.0875 44.0938 9.23819 23.1925 44.8108 9.24547 23.1414 45.5692 9.42838 
23.1009 46.5175 9.61074 23.1763 47.642 9.60271 23.223 48.6865 9.51354 
23.0918 49.5062 9.58997 22.8372 50.2133 9.8568 22.5615 50.8779 10.1734 
21.9222 39.4539 18.4645 22.3857 38.7715 18.1524 22.8912 38.0012 17.8717 
23.2195 37.3663 17.6539 23.3015 36.9746 17.3109 23.3091 36.7276 16.6848 
23.3131 36.5384 15.9016 23.1811 36.45 15.1997 22.8847 36.4825 14.6381 
22.4501 40.3646 18.6874 23.4142 40.7179 18.4162 24.6219 41.1904 18.0713 
26.022 41.8821 18.0073 27.3916 42.5409 18.1348 28.5963 42.8868 17.9471 
29.5694 43.0516 17.2374 30.1459 43.321 16.2832 30.2186 43.7213 15.3759 
20.7696 39.0489 18.3145 19.6822 37.9168 17.9371 18.4753 36.7802 17.8207 
17.4065 35.8772 18.0548 16.5663 35.1684 18.4555 15.7642 34.5273 18.7917 
14.8144 34.0469 18.8681 13.7902 33.8545 18.5478 12.8869 33.8725 17.8976 
23.2568 37.1786 14.1786 24.02 37.8647 14.1378 24.8271 38.7429 14.1405 
25.6731 39.7832 14.2724 26.5657 40.713 14.447 27.5173 41.3813 14.5617 
28.5023 41.9814 14.6244 29.3578 42.6963 14.6549 29.8539 43.4503 14.641 
22.0894 35.8641 14.2976 21.5751 35.1337 14.455 21.0205 34.482 14.6016 
20.2069 34.0898 14.8143 18.9062 33.9971 15.1471 17.2732 34.0385 15.5494 
15.7322 34.0545 15.9473 14.4578 34.0248 16.3421 13.3127 33.9814 16.7542 
14.0678 47.6819 11.1908 13.8919 47.9487 10.6228 13.6884 48.27 9.93056 
13.6764 48.4764 9.03003 13.9708 48.3763 8.08289 14.3664 47.9482 7.35119 
14.6427 47.3511 6.89109 14.8709 46.7527 6.60847 15.2058 46.2148 6.46395 
15.0808 47.7854 11.2773 16.1437 48.073 10.7539 17.091 48.5885 10.3451 
17.7866 49.4005 10.1929 18.3821 50.3212 10.2554 19.1071 51.1193 10.3386 
19.9742 51.6754 10.3392 20.8365 51.9103 10.3229 21.6047 51.7882 10.3655 
13.3968 47.1121 11.7874 12.7915 46.4361 11.763 12.1805 45.6847 11.7582 
11.2804 45.1408 11.7613 10.1614 44.7559 11.7052 9.37557 44.1617 11.6618 
9.24321 43.1732 11.7591 9.39897 41.975 11.9292 9.35554 40.8298 12.0114 
16.1214 46.3254 5.9797 16.7836 47.0268 5.73157 17.5918 47.9331 5.86136 
18.4345 48.9573 6.23897 19.2331 49.8058 6.65898 19.989 50.3737 7.20518 
20.6801 50.8363 8.02796 21.2563 51.2425 8.97443 21.7551 51.4433 9.7995 
14.9806 45.3622 6.99928 14.358 44.8409 7.57711 13.6462 44.1546 8.09857 
12.6753 43.4125 8.57385 11.5282 42.7186 9.06244 10.5808 42.0917 9.58837 
10.0422 41.5116 10.1558 9.7306 40.9537 10.7612 9.4137 40.3986 11.3792 
29.3833 44.7003 14.1315 28.6599 45.3777 13.6617 27.9265 46.3522 13.1891 
27.2696 47.6858 12.7506 26.6581 49.0028 12.436 26.0012 49.8347 12.2189 
25.1732 50.215 11.9184 24.1583 50.5282 11.4535 23.1337 50.9568 10.9315 
11.095 33.931 16.9212 9.92529 33.8717 16.6547 8.83376 33.8959 16.2469 
8.15773 34.2629 15.6325 8.07277 35.0719 14.9034 8.25929 36.1061 14.1836 
8.33571 37.1134 13.496 8.38339 38.0512 12.8676 8.63952 38.9688 12.3657 
14.2841 41.4979 17.5728 14.9371 41.3174 17.8375 15.1053 42.024 17.4018 
15.7696 40.9064 17.7838 15.8814 41.7553 17.5356 16.0272 42.3429 16.8401 
16.7384 40.4071 17.4526 16.9063 41.2887 17.3297 17.0261 41.9659 16.8334 
17.1812 42.4747 15.9936 17.7895 40.1058 17.1922 17.9965 40.9441 17.0462 
18.1669 41.7213 16.8205 18.2784 42.2877 16.1674 18.332 42.7933 15.4116 
18.9403 40.1072 17.3565 19.0683 40.9347 17.1322 19.1912 41.8401 17.0764 
19.2721 42.5568 16.7294 19.2726 43.0272 16.0065 19.1915 43.552 15.3796 
20.0937 40.2813 17.9003 20.1502 41.0865 17.6539 20.1381 42.0881 17.6032 
20.1124 43.0289 17.4873 20.0688 43.5898 16.9228 19.983 43.9606 16.1374 
19.8747 44.5092 15.5928 21.0601 40.4645 18.4492 21.1422 41.1676 18.2198 
21.0983 42.095 18.0442 21.0041 43.1494 17.9535 20.9142 43.9175 17.591 
20.8306 44.3065 16.8469 20.7417 44.6983 16.1218 20.656 45.3062 15.6923 
12.7986 40.1218 17.8739 12.1508 39.0668 18.1498 13.4592 39.6721 18.0166 
11.7077 38.0483 18.4188 12.9153 38.5702 18.2728 14.3166 39.2441 18.0917 
11.6094 37.25 18.5709 12.6534 37.6946 18.6153 14.0118 38.2601 18.4792 
15.3417 38.9259 18.1744 11.6307 36.444 18.6493 12.7011 36.9774 18.8585 
14.0029 37.4986 18.9258 15.2805 38.0823 18.7215 16.4513 38.7105 18.1917 
11.599 35.4222 18.8019 12.7954 36.0453 19.0051 14.144 36.6798 19.1341 
15.3879 37.2697 19.0662 16.4759 37.8739 18.6627 17.6053 38.5849 18.0998 
11.7355 34.4718 18.8863 12.9109 34.9437 19.1281 14.2434 35.6121 19.1653 
15.4568 36.3095 19.0348 16.4781 36.9478 18.7091 17.5421 37.69 18.2882 
18.7548 38.6209 18.0561 12.2194 33.962 18.5926 13.2494 34.1427 19.0385 
14.4272 34.6113 19.1263 15.5144 35.2991 18.9087 16.4338 35.9968 18.525 
17.4056 36.7394 18.1376 18.5903 37.7112 17.9829 19.82 38.8224 18.1649 
14.1481 33.9081 17.5295 15.461 33.9948 17.0736 15.1582 33.8935 18.1711 
16.9141 34.0277 16.595 16.5872 33.9765 17.6697 16.1601 34.078 18.4602 
18.5384 33.9668 16.1418 18.1688 33.9426 17.1804 17.6471 34.0931 18.0272 
17.0137 34.517 18.4088 20.0342 34.0067 15.7636 19.8077 33.9073 16.7771 
19.3649 34.0301 17.7011 18.613 34.4921 18.1777 17.8383 35.1555 18.1581 
21.0745 34.3953 15.4877 21.1136 34.234 16.4408 20.9781 34.2122 17.4056 
20.4518 34.5727 18.0442 19.5974 35.2557 18.1043 18.841 36.0279 17.8796 
21.7463 35.0856 15.2519 21.9393 34.9779 16.0995 22.0476 34.8964 17.012 
21.9115 35.0586 17.7623 21.3855 35.5907 18.0396 20.6199 36.3676 17.9238 
19.9948 37.1827 17.8272 22.3236 35.8254 14.9686 22.5595 35.7939 15.6817 
22.697 35.8006 16.4943 22.7301 35.9034 17.2728 22.596 36.221 17.7487 
22.1766 36.8315 17.8763 21.5793 37.635 17.9255 21.0753 38.4223 18.0997 
22.9435 39.85 18.4511 23.5182 39.1444 18.0893 24.0988 40.1911 18.2282 
23.9388 38.4606 17.7375 24.7289 39.5454 17.9297 25.4268 40.6957 18.0199 
24.0335 38.0075 17.3738 24.9974 39.0457 17.5563 25.9516 40.1576 17.7557 
26.7372 41.3761 17.9369 23.9938 37.6996 16.7966 24.933 38.7503 17.0066 
25.9941 39.8239 17.2432 26.9653 40.8867 17.4545 27.8469 41.9364 17.7182 
24.0363 37.3675 15.9739 24.875 38.4133 16.1726 25.8124 39.5881 16.46 
26.7556 40.6268 16.6889 27.7495 41.4611 16.8936 28.7901 42.2552 17.1278 
[...]
POINT_DATA 1002
FIELD FieldData 4
_paraPhi 1 1002 double
6.2831853072 3.1415926536 6.2831853072 3.1415926536 4.7123889804 4.7123889804 1.5707963268 1.5707963268 3.6951670125 
5.7296109483 2.5880182947 0.5535743589 6.2831853072 6.2831853072 6.2831853072 6.2831853072 3.1415926536 3.1415926536 
3.1415926536 3.1415926536 3.1415926536 6.1053039672 5.898798347 5.6768734901 5.4599499503 5.2659633393 5.1032165617 
4.9713148346 4.8656852733 4.7809517865 0.17788134 0.38438696014 0.60631181711 0.82323535693 1.0172219679 1.1799687454 
1.3118704726 1.4175000338 1.5022335207 6.1892828907 6.1070320098 6.035312792 5.9728339911 5.9183214791 5.8706119594 
5.8286879411 5.7916808611 5.7588591896 0.093902416448 0.17615329733 0.2478725152 0.31035131605 0.36486382811 0.41257334776 
0.45449736604 0.4915044461 0.52432611754 3.3194739936 3.5259796137 3.7479044707 3.9648280105 4.1588146215 4.321561399 
4.4534631262 4.5590926874 4.6438261743 2.9637113136 2.7572056934 2.5352808365 2.3183572967 2.1243706857 1.9616239082 
1.829722181 1.7240926197 1.6393591329 3.23549507 3.3177459509 3.3894651688 3.4519439696 3.5064564817 3.5541660013 
3.5960900196 3.6330970997 3.6659187711 3.0476902371 2.9654393563 2.8937201384 2.8312413375 2.7767288255 2.7290193058 
2.6870952876 2.6500882075 2.617266536 6.2831853072 6.2831853072 6.2831853072 6.2831853072 3.1415926536 3.1415926536 
3.1415926536 3.1415926536 3.1415926536 6.1053039672 5.898798347 5.6768734901 5.4599499503 5.2659633393 5.1032165617 
4.9713148346 4.8656852733 4.7809517865 0.17788134 0.38438696014 0.60631181711 0.82323535693 1.0172219679 1.1799687454 
1.3118704726 1.4175000338 1.5022335207 6.1892828907 6.1070320098 6.035312792 5.9728339911 5.9183214791 5.8706119594 
5.8286879411 5.7916808611 5.7588591896 0.093902416448 0.17615329733 0.2478725152 0.31035131605 0.36486382811 0.41257334776 
0.45449736604 0.4915044461 0.52432611754 3.3194739936 3.5259796137 3.7479044707 3.9648280105 4.1588146215 4.321561399 
4.4534631262 4.5590926874 4.6438261743 2.9637113136 2.7572056934 2.5352808365 2.3183572967 2.1243706857 1.9616239082 
1.829722181 1.7240926197 1.6393591329 3.23549507 3.3177459509 3.3894651688 3.4519439696 3.5064564817 3.5541660013 
3.5960900196 3.6330970997 3.6659187711 3.0476902371 2.9654393563 2.8937201384 2.8312413375 2.7767288255 2.7290193058 
2.6870952876 2.6500882075 2.617266536 4.7123889804 4.7123889804 4.7123889804 4.7123889804 4.7123889804 4.7123889804 
4.7123889804 4.7123889804 4.7123889804 4.6087898617 4.4991390697 4.3857031936 4.2712800401 4.1588146215 4.0509635631 
3.94975894 3.8564636551 3.7716124825 4.8159880991 4.9256388911 5.0390747672 5.1534979207 5.2659633393 5.3738143976 
5.4750190208 5.5683143056 5.6531654782 4.6087898617 4.4991390697 4.3857031936 4.2712800401 4.1588146215 4.0509635631 
3.94975894 3.8564636551 3.7716124825 4.8159880991 4.9256388911 5.0390747672 5.1534979207 5.2659633393 5.3738143976 
5.4750190208 5.5683143056 5.6531654782 1.5707963268 1.5707963268 1.5707963268 1.5707963268 1.5707963268 1.5707963268 
1.5707963268 1.5707963268 1.5707963268 1.6743954455 1.7840462375 1.8974821136 2.0119052671 2.1243706857 2.232221744 
2.3334263672 2.426721652 2.5115728246 1.4671972081 1.3575464161 1.24411054 1.1296873865 1.0172219679 0.90937090954 
0.80816628637 0.71487100155 0.63001982895 1.6743954455 1.7840462375 1.8974821136 2.0119052671 2.1243706857 2.232221744 
2.3334263672 2.426721652 2.5115728246 1.4671972081 1.3575464161 1.24411054 1.1296873865 1.0172219679 0.90937090954 
0.80816628637 0.71487100155 0.63001982895 3.6007720849 3.4966939854 3.3839471039 3.2645756454 3.1415926536 3.0186096618 
2.8992382033 2.7864913217 2.6824132222 5.8240058758 5.9280839753 6.0408308569 6.1602023154 6.2831853072 0.12298299178 
0.2423544503 0.35510133185 0.45917943135 6.0560271438 5.7885595667 5.9702140275 5.5125918794 5.6029703303 5.7885595667 
5.2659633393 5.2659633393 5.2659633393 5.2659633393 5.0674903122 5.0120975802 4.9155579264 4.7123889804 4.1588146215 
4.9155579264 4.8353719722 4.7123889804 4.5092200343 4.1588146215 3.6362183941 4.8004512023 4.7123889804 4.5894059886 
4.4126803806 4.1588146215 3.8218076305 3.4545639333 4.7123889804 4.6243267584 4.5092200343 4.3572876485 4.1588146215 
3.9121860814 3.6362183941 3.368750817 6.0174235957 5.9434319871 5.8263323547 5.8809213739 5.7674481418 5.6279784266 
5.8278025282 5.718968232 5.5891129425 5.4372443565 5.7823484065 5.678536687 5.5575666702 5.4192596322 5.2659633393 
5.743164462 5.6444075337 5.5314983644 5.4046708639 5.2659633393 5.1195510325 5.7091357773 5.6152775188 5.5096229709 
5.3926039573 5.2659633393 5.1329233157 4.9978930058 5.6793730533 5.5901633916 5.4910209005 5.3824597928 5.2659633393 
5.1440684722 5.0201624502 4.8979782167 5.5683143056 5.4750190208 5.4750190208 5.3738143976 5.3738143976 5.3738143976 
5.2659633393 5.2659633393 5.2659633393 5.2659633393 5.1534979207 5.1534979207 5.1534979207 5.1534979207 5.1534979207 
5.0390747672 5.0390747672 5.0390747672 5.0390747672 5.0390747672 5.0390747672 4.9256388911 4.9256388911 4.9256388911 
4.9256388911 4.9256388911 4.9256388911 4.9256388911 4.8159880991 4.8159880991 4.8159880991 4.8159880991 4.8159880991 
4.8159880991 4.8159880991 4.8159880991 4.6087898617 4.6087898617 4.4991390697 4.6087898617 4.4991390697 4.3857031936 
4.6087898617 4.4991390697 4.3857031936 4.2712800401 4.6087898617 4.4991390697 4.3857031936 4.2712800401 4.1588146215 
4.6087898617 4.4991390697 4.3857031936 4.2712800401 4.1588146215 4.0509635631 4.6087898617 4.4991390697 4.3857031936 
4.2712800401 4.1588146215 4.0509635631 3.94975894 4.6087898617 4.4991390697 4.3857031936 4.2712800401 4.1588146215 
4.0509635631 3.94975894 3.8564636551 4.526799744 4.4046155105 4.426884955 4.2807094886 4.2918546451 4.3052269283 
4.1588146215 4.1588146215 4.1588146215 4.1588146215 4.042318168 4.0321740035 4.0201070968 4.0055183285 3.9875336042 
3.9337570603 3.9151549899 3.8932795963 3.8672112905 3.8356650183 3.7967995342 3.8346145692 3.809500442 3.7803704271 
3.7462412737 3.7058097288 3.657329819 3.5984456061 3.7454049075 3.7156421835 3.6816134988 3.6424295543 3.5969754326 
3.5438565869 3.4813459737 3.4073543651 3.5642842451 3.4524645613 3.5233842518 3.3320300872 3.403123212 3.4773852225 
3.20576226 3.2746326772 3.348015857 3.4255060145 3.0774230472 3.1415926536 3.2112816139 3.2864685043 3.3668817272 
2.95115522 3.00855263 3.0719036933 3.1415926536 3.2178377658 3.3005964304 2.8307207459 2.8800620952 2.9351694502 
2.9967168029 3.0653475414 3.1415926536 3.225752376 2.718901062 2.7598010554 2.8058000847 2.8576792927 2.91630358 
2.9825888767 3.0574329311 3.1415926536 3.5642842451 3.5233842518 3.4524645613 3.4773852225 3.403123212 3.3320300872 
3.4255060145 3.348015857 3.2746326772 3.20576226 3.3668817272 3.2864685043 3.2112816139 3.1415926536 3.0774230472 
3.3005964304 3.2178377658 3.1415926536 3.0719036933 3.00855263 2.95115522 3.225752376 3.1415926536 3.0653475414 
2.9967168029 2.9351694502 2.8800620952 2.8307207459 3.1415926536 3.0574329311 2.9825888767 2.91630358 2.8576792927 
2.8058000847 2.7598010554 2.718901062 4.526799744 4.426884955 4.4046155105 4.3052269283 4.2918546451 4.2807094886 
4.1588146215 4.1588146215 4.1588146215 4.1588146215 3.9875336042 4.0055183285 4.0201070968 4.0321740035 4.042318168 
3.7967995342 3.8356650183 3.8672112905 3.8932795963 3.9151549899 3.9337570603 3.5984456061 3.657329819 3.7058097288 
3.7462412737 3.7803704271 3.809500442 3.8346145692 3.4073543651 3.4813459737 3.5438565869 3.5969754326 3.6424295543 
3.6816134988 3.7156421835 3.7454049075 4.7123889804 4.8004512023 4.6243267584 4.9155579264 4.7123889804 4.5092200343 
5.0674903122 4.8353719722 4.5894059886 4.3572876485 5.2659633393 5.0120975802 4.7123889804 4.4126803806 4.1588146215 
5.5125918794 5.2659633393 4.9155579264 4.5092200343 4.1588146215 3.9121860814 5.7885595667 5.6029703303 5.2659633393 
4.7123889804 4.1588146215 3.8218076305 3.6362183941 6.0560271438 5.9702140275 5.7885595667 5.2659633393 4.1588146215 
3.6362183941 3.4545639333 3.368750817 0.22715816343 0.49462574053 0.3129712797 0.77059342779 0.68021497688 0.49462574053 
1.0172219679 1.0172219679 1.0172219679 1.0172219679 1.2156949949 1.271087727 1.3676273807 1.5707963268 2.1243706857 
1.3676273807 1.447813335 1.5707963268 1.7739652728 2.1243706857 2.6469669131 1.4827341049 1.5707963268 1.6937793186 
1.8705049266 2.1243706857 2.4613776767 2.8286213739 1.5707963268 1.6588585487 1.7739652728 1.9258976586 2.1243706857 
2.3709992258 2.6469669131 2.9144344902 1.7563855631 1.8785697967 1.8563003522 2.0024758186 1.9913306621 1.9779583789 
2.1243706857 2.1243706857 2.1243706857 2.1243706857 2.2408671392 2.2510113037 2.2630782103 2.2776669786 2.295651703 
2.3494282469 2.3680303173 2.3899057108 2.4159740166 2.4475202889 2.486385773 2.448570738 2.4736848652 2.5028148801 
2.5369440334 2.5773755784 2.6258554882 2.6847397011 2.5377803997 2.5675431237 2.6015718084 2.6407557529 2.6862098746 
2.7393287203 2.8018393335 2.8758309421 1.6743954455 1.6743954455 1.7840462375 1.6743954455 1.7840462375 1.8974821136 
1.6743954455 1.7840462375 1.8974821136 2.0119052671 1.6743954455 1.7840462375 1.8974821136 2.0119052671 2.1243706857 
1.6743954455 1.7840462375 1.8974821136 2.0119052671 2.1243706857 2.232221744 1.6743954455 1.7840462375 1.8974821136 
2.0119052671 2.1243706857 2.232221744 2.3334263672 1.6743954455 1.7840462375 1.8974821136 2.0119052671 2.1243706857 
2.232221744 2.3334263672 2.426721652 1.4671972081 1.3575464161 1.4671972081 1.24411054 1.3575464161 1.4671972081 
1.1296873865 1.24411054 1.3575464161 1.4671972081 1.0172219679 1.1296873865 1.24411054 1.3575464161 1.4671972081 
0.90937090954 1.0172219679 1.1296873865 1.24411054 1.3575464161 1.4671972081 0.80816628637 0.90937090954 1.0172219679 
1.1296873865 1.24411054 1.3575464161 1.4671972081 0.71487100155 0.80816628637 0.90937090954 1.0172219679 1.1296873865 
1.24411054 1.3575464161 1.4671972081 0.60381225391 0.57404952988 0.69302191562 0.54002084522 0.66790778838 0.79216440667 
0.50083690068 0.63877777351 0.77356233629 0.90072551443 0.45538277901 0.60464862014 0.75168694275 0.89058134991 1.0172219679 
0.40226393329 0.56421707518 0.72561863695 0.87851444325 1.0172219679 1.139116835 0.33975332011 0.51573716537 0.69407236469 
0.86392567495 1.0172219679 1.1502619915 1.2630228569 0.26576171152 0.45685295248 0.6552068806 0.84594095064 1.0172219679 
1.1636342747 1.2852923014 1.3852070904 0.22715816343 0.3129712797 0.49462574053 0.49462574053 0.68021497688 0.77059342779 
1.0172219679 1.0172219679 1.0172219679 1.0172219679 2.1243706857 1.5707963268 1.3676273807 1.271087727 1.2156949949 
2.6469669131 2.1243706857 1.7739652728 1.5707963268 1.447813335 1.3676273807 2.8286213739 2.4613776767 2.1243706857 
1.8705049266 1.6937793186 1.5707963268 1.4827341049 2.9144344902 2.6469669131 2.3709992258 2.1243706857 1.9258976586 
1.7739652728 1.6588585487 1.5707963268 1.7563855631 1.8563003522 1.8785697967 1.9779583789 1.9913306621 2.0024758186 
2.1243706857 2.1243706857 2.1243706857 2.1243706857 2.295651703 2.2776669786 2.2630782103 2.2510113037 2.2408671392 
2.486385773 2.4475202889 2.4159740166 2.3899057108 2.3680303173 2.3494282469 2.6847397011 2.6258554882 2.5773755784 
2.5369440334 2.5028148801 2.4736848652 2.448570738 2.8758309421 2.8018393335 2.7393287203 2.6862098746 2.6407557529 
2.6015718084 2.5675431237 2.5377803997 5.8604937156 5.901393709 5.9723133995 5.9473927383 6.0216547488 6.0927478736 
5.9992719463 6.0767621038 6.1501452836 6.2190157008 6.0578962336 6.1383094565 6.2134963469 0 0.064169606361 
6.1241815303 6.206940195 6.2831853072 0.069688960264 0.13304002361 0.19043743361 6.1990255847 0 0.07624511221 
0.14487585072 0.20642320337 0.26153055843 0.3108719077 0 0.084159722458 0.15900377685 0.22528907359 0.28391336087 
0.3357925689 0.38179159818 0.42269159155 5.8604937156 5.9723133995 5.901393709 6.0927478736 6.0216547488 5.9473927383 
6.2190157008 6.1501452836 6.0767621038 5.9992719463 0.064169606361 0 6.2134963469 6.1383094565 6.0578962336 
0.19043743361 0.13304002361 0.069688960264 6.2831853072 6.206940195 6.1241815303 0.3108719077 0.26153055843 0.20642320337 
0.14487585072 0.07624511221 6.2831853072 6.1990255847 0.42269159155 0.38179159818 0.3357925689 0.28391336087 0.22528907359 
0.15900377685 0.084159722458 0 5.6793730533 5.7091357773 5.5901633916 5.743164462 5.6152775188 5.4910209005 
5.7823484065 5.6444075337 5.5096229709 5.3824597928 5.8278025282 5.678536687 5.5314983644 5.3926039573 5.2659633393 
5.8809213739 5.718968232 5.5575666702 5.4046708639 5.2659633393 5.1440684722 5.9434319871 5.7674481418 5.5891129425 
5.4192596322 5.2659633393 5.1329233157 5.0201624502 6.0174235957 5.8263323547 5.6279784266 5.4372443565 5.2659633393 
5.1195510325 4.9978930058 4.8979782167 1.3852070904 1.2852923014 1.2630228569 1.1636342747 1.1502619915 1.139116835 
1.0172219679 1.0172219679 1.0172219679 1.0172219679 0.84594095064 0.86392567495 0.87851444325 0.89058134991 0.90072551443 
0.6552068806 0.69407236469 0.72561863695 0.75168694275 0.77356233629 0.79216440667 0.45685295248 0.51573716537 0.56421707518 
0.60464862014 0.63877777351 0.66790778838 0.69302191562 0.26576171152 0.33975332011 0.40226393329 0.45538277901 0.50083690068 
0.54002084522 0.57404952988 0.60381225391 
_paraPhiHalf 1 1002 double
0 3.1415926536 0 3.1415926536 1.5707963268 1.5707963268 1.5707963268 1.5707963268 2.5880182947 
0.5535743589 2.5880182947 0.5535743589 0 0 0 0 3.1415926536 3.1415926536 
3.1415926536 3.1415926536 3.1415926536 0.17788134 0.38438696014 0.60631181711 0.82323535693 1.0172219679 1.1799687454 
1.3118704726 1.4175000338 1.5022335207 0.17788134 0.38438696014 0.60631181711 0.82323535693 1.0172219679 1.1799687454 
1.3118704726 1.4175000338 1.5022335207 0.093902416448 0.17615329733 0.2478725152 0.31035131605 0.36486382811 0.41257334776 
0.45449736604 0.4915044461 0.52432611754 0.093902416448 0.17615329733 0.2478725152 0.31035131605 0.36486382811 0.41257334776 
0.45449736604 0.4915044461 0.52432611754 2.9637113136 2.7572056934 2.5352808365 2.3183572967 2.1243706857 1.9616239082 
1.829722181 1.7240926197 1.6393591329 2.9637113136 2.7572056934 2.5352808365 2.3183572967 2.1243706857 1.9616239082 
1.829722181 1.7240926197 1.6393591329 3.0476902371 2.9654393563 2.8937201384 2.8312413375 2.7767288255 2.7290193058 
2.6870952876 2.6500882075 2.617266536 3.0476902371 2.9654393563 2.8937201384 2.8312413375 2.7767288255 2.7290193058 
2.6870952876 2.6500882075 2.617266536 0 0 0 0 3.1415926536 3.1415926536 
3.1415926536 3.1415926536 3.1415926536 0.17788134 0.38438696014 0.60631181711 0.82323535693 1.0172219679 1.1799687454 
1.3118704726 1.4175000338 1.5022335207 0.17788134 0.38438696014 0.60631181711 0.82323535693 1.0172219679 1.1799687454 
1.3118704726 1.4175000338 1.5022335207 0.093902416448 0.17615329733 0.2478725152 0.31035131605 0.36486382811 0.41257334776 
0.45449736604 0.4915044461 0.52432611754 0.093902416448 0.17615329733 0.2478725152 0.31035131605 0.36486382811 0.41257334776 
0.45449736604 0.4915044461 0.52432611754 2.9637113136 2.7572056934 2.5352808365 2.3183572967 2.1243706857 1.9616239082 
1.829722181 1.7240926197 1.6393591329 2.9637113136 2.7572056934 2.5352808365 2.3183572967 2.1243706857 1.9616239082 
1.829722181 1.7240926197 1.6393591329 3.0476902371 2.9654393563 2.8937201384 2.8312413375 2.7767288255 2.7290193058 
2.6870952876 2.6500882075 2.617266536 3.0476902371 2.9654393563 2.8937201384 2.8312413375 2.7767288255 2.7290193058 
2.6870952876 2.6500882075 2.617266536 1.5707963268 1.5707963268 1.5707963268 1.5707963268 1.5707963268 1.5707963268 
1.5707963268 1.5707963268 1.5707963268 1.6743954455 1.7840462375 1.8974821136 2.0119052671 2.1243706857 2.232221744 
2.3334263672 2.426721652 2.5115728246 1.4671972081 1.3575464161 1.24411054 1.1296873865 1.0172219679 0.90937090954 
0.80816628637 0.71487100155 0.63001982895 1.6743954455 1.7840462375 1.8974821136 2.0119052671 2.1243706857 2.232221744 
2.3334263672 2.426721652 2.5115728246 1.4671972081 1.3575464161 1.24411054 1.1296873865 1.0172219679 0.90937090954 
0.80816628637 0.71487100155 0.63001982895 1.5707963268 1.5707963268 1.5707963268 1.5707963268 1.5707963268 1.5707963268 
1.5707963268 1.5707963268 1.5707963268 1.6743954455 1.7840462375 1.8974821136 2.0119052671 2.1243706857 2.232221744 
2.3334263672 2.426721652 2.5115728246 1.4671972081 1.3575464161 1.24411054 1.1296873865 1.0172219679 0.90937090954 
0.80816628637 0.71487100155 0.63001982895 1.6743954455 1.7840462375 1.8974821136 2.0119052671 2.1243706857 2.232221744 
2.3334263672 2.426721652 2.5115728246 1.4671972081 1.3575464161 1.24411054 1.1296873865 1.0172219679 0.90937090954 
0.80816628637 0.71487100155 0.63001982895 2.6824132222 2.7864913217 2.8992382033 3.0186096618 3.1415926536 3.0186096618 
2.8992382033 2.7864913217 2.6824132222 0.45917943135 0.35510133185 0.2423544503 0.12298299178 0 0.12298299178 
0.2423544503 0.35510133185 0.45917943135 0.22715816343 0.49462574053 0.3129712797 0.77059342779 0.68021497688 0.49462574053 
1.0172219679 1.0172219679 1.0172219679 1.0172219679 1.2156949949 1.271087727 1.3676273807 1.5707963268 2.1243706857 
1.3676273807 1.447813335 1.5707963268 1.7739652728 2.1243706857 2.6469669131 1.4827341049 1.5707963268 1.6937793186 
1.8705049266 2.1243706857 2.4613776767 2.8286213739 1.5707963268 1.6588585487 1.7739652728 1.9258976586 2.1243706857 
2.3709992258 2.6469669131 2.9144344902 0.26576171152 0.33975332011 0.45685295248 0.40226393329 0.51573716537 0.6552068806 
0.45538277901 0.56421707518 0.69407236469 0.84594095064 0.50083690068 0.60464862014 0.72561863695 0.86392567495 1.0172219679 
0.54002084522 0.63877777351 0.75168694275 0.87851444325 1.0172219679 1.1636342747 0.57404952988 0.66790778838 0.77356233629 
0.89058134991 1.0172219679 1.1502619915 1.2852923014 0.60381225391 0.69302191562 0.79216440667 0.90072551443 1.0172219679 
1.139116835 1.2630228569 1.3852070904 0.71487100155 0.80816628637 0.80816628637 0.90937090954 0.90937090954 0.90937090954 
1.0172219679 1.0172219679 1.0172219679 1.0172219679 1.1296873865 1.1296873865 1.1296873865 1.1296873865 1.1296873865 
1.24411054 1.24411054 1.24411054 1.24411054 1.24411054 1.24411054 1.3575464161 1.3575464161 1.3575464161 
1.3575464161 1.3575464161 1.3575464161 1.3575464161 1.4671972081 1.4671972081 1.4671972081 1.4671972081 1.4671972081 
1.4671972081 1.4671972081 1.4671972081 1.6743954455 1.6743954455 1.7840462375 1.6743954455 1.7840462375 1.8974821136 
1.6743954455 1.7840462375 1.8974821136 2.0119052671 1.6743954455 1.7840462375 1.8974821136 2.0119052671 2.1243706857 
1.6743954455 1.7840462375 1.8974821136 2.0119052671 2.1243706857 2.232221744 1.6743954455 1.7840462375 1.8974821136 
2.0119052671 2.1243706857 2.232221744 2.3334263672 1.6743954455 1.7840462375 1.8974821136 2.0119052671 2.1243706857 
2.232221744 2.3334263672 2.426721652 1.7563855631 1.8785697967 1.8563003522 2.0024758186 1.9913306621 1.9779583789 
2.1243706857 2.1243706857 2.1243706857 2.1243706857 2.2408671392 2.2510113037 2.2630782103 2.2776669786 2.295651703 
2.3494282469 2.3680303173 2.3899057108 2.4159740166 2.4475202889 2.486385773 2.448570738 2.4736848652 2.5028148801 
2.5369440334 2.5773755784 2.6258554882 2.6847397011 2.5377803997 2.5675431237 2.6015718084 2.6407557529 2.6862098746 
2.7393287203 2.8018393335 2.8758309421 2.718901062 2.8307207459 2.7598010554 2.95115522 2.8800620952 2.8058000847 
3.0774230472 3.00855263 2.9351694502 2.8576792927 3.0774230472 3.1415926536 3.0719036933 2.9967168029 2.91630358 
2.95115522 3.00855263 3.0719036933 3.1415926536 3.0653475414 2.9825888767 2.8307207459 2.8800620952 2.9351694502 
2.9967168029 3.0653475414 3.1415926536 3.0574329311 2.718901062 2.7598010554 2.8058000847 2.8576792927 2.91630358 
2.9825888767 3.0574329311 3.1415926536 2.718901062 2.7598010554 2.8307207459 2.8058000847 2.8800620952 2.95115522 
2.8576792927 2.9351694502 3.00855263 3.0774230472 2.91630358 2.9967168029 3.0719036933 3.1415926536 3.0774230472 
2.9825888767 3.0653475414 3.1415926536 3.0719036933 3.00855263 2.95115522 3.0574329311 3.1415926536 3.0653475414 