# vtk DataFile Version 5.1
vtk output
ASCII
DATASET POLYDATA
POINTS 1002 float
-5.65397 0.048528 -4.28113 5.51506 0.111493 -3.342 -5.3388 -0.140252 5.76202 
4.52813 -0.01161 3.20986 0.338058 6.20043 -2.23687 0.573062 7.51194 3.38259 
0.0445363 -6.12266 -2.20358 0.448057 -6.75078 3.68948 9.7672 5.05923 0.577091 
-10.8995 4.811 -2.10527 9.67071 -4.96449 -0.698437 -8.64065 -4.98337 0.264374 
-4.81245 0.0431791 -4.34332 -3.85773 0.0150587 -4.51865 -2.75197 -0.00980488 -4.60205 
-1.5187 0.00216651 -4.54689 -0.258638 0.0326205 -4.51694 0.950945 0.018695 -4.53485 
2.13194 -0.0367134 -4.40002 3.32391 -0.048042 -4.04685 4.48331 0.0216271 -3.64085 
-5.45413 0.677638 -4.30281 -5.22514 1.33752 -4.47026 -4.87131 2.02772 -4.62369 
-4.33615 2.73263 -4.44051 -3.72219 3.42177 -3.8746 -3.11812 4.06952 -3.29751 
-2.40919 4.65674 -2.9635 -1.49571 5.18082 -2.74351 -0.510678 5.67952 -2.48875 
-5.3551 -0.595012 -4.32806 -4.9953 -1.29636 -4.36479 -4.49133 -2.03503 -4.2708 
-3.85901 -2.78614 -4.03935 -3.19669 -3.50598 -3.76557 -2.52267 -4.13449 -3.45485 
-1.79925 -4.65217 -3.05046 -1.08211 -5.11579 -2.62899 -0.464369 -5.60033 -2.33708 
-6.39764 0.448014 -4.39575 -7.29803 0.917744 -4.70471 -8.27528 1.48159 -4.98904 
-9.14891 2.15196 -4.89367 -9.89617 2.9363 -4.39997 -10.6807 3.78935 -3.90632 
-11.4383 4.52924 -3.62725 -11.7997 4.93813 -3.3396 -11.5613 4.97957 -2.81731 
-6.29545 -0.382194 -4.41776 -6.94875 -0.911988 -4.62298 -7.54071 -1.51033 -4.6463 
-8.00613 -2.10306 -4.34427 -8.29737 -2.64805 -3.80734 -8.41604 -3.19313 -3.10482 
-8.45999 -3.781 -2.19813 -8.53784 -4.34088 -1.19709 -8.63268 -4.75594 -0.34098 
5.23581 0.699148 -3.33753 4.88863 1.34663 -3.24093 4.50235 2.01444 -3.20938 
4.06535 2.68498 -3.25454 3.49242 3.37695 -3.09678 2.7582 4.07323 -2.6381 
2.00429 4.70876 -2.2493 1.37225 5.25929 -2.19895 0.844431 5.75202 -2.28902 
5.13185 -0.51332 -3.3413 4.66207 -1.21017 -3.27539 4.09689 -1.98077 -3.38949 
3.448 -2.77513 -3.75987 2.77754 -3.53366 -4.0413 2.16319 -4.25 -3.89846 
1.61847 -4.90329 -3.45485 1.09761 -5.42022 -2.99269 0.569733 -5.79455 -2.58784 
6.31453 0.528899 -3.15748 7.11021 0.960887 -3.02043 7.93858 1.46973 -2.95495 
8.83803 2.13045 -2.85102 9.68056 2.88078 -2.54742 10.2156 3.53397 -2.04189 
10.3586 4.01247 -1.45768 10.2521 4.40429 -0.834133 10.0419 4.76915 -0.141862 
6.23922 -0.217831 -3.17132 6.95071 -0.637906 -3.04883 7.68622 -1.14917 -3.07398 
8.4213 -1.68779 -3.30099 9.03456 -2.20366 -3.54809 9.48624 -2.75847 -3.48221 
9.83574 -3.42055 -2.96677 10.0368 -4.10218 -2.17466 9.9763 -4.63926 -1.36756 
-4.36698 -0.0544622 5.61931 -3.38267 0.0648314 5.55998 -2.34335 0.211524 5.63901 
-1.205 0.326763 5.71811 -0.0330459 0.356962 5.56741 1.04296 0.305487 5.11873 
1.99231 0.205825 4.53636 2.8826 0.0983627 4.00765 3.7419 0.022446 3.57849 
-4.99785 0.549818 5.90051 -4.57149 1.32647 5.88179 -4.02556 2.12505 5.66855 
-3.35106 2.95621 5.45634 -2.59119 3.89635 5.43188 -1.83218 4.88147 5.38056 
-1.14745 5.72346 4.97281 -0.542462 6.38199 4.31111 0.0238793 6.96522 3.74068 
-5.02371 -0.725826 5.48858 -4.67273 -1.31113 5.26662 -4.23214 -1.95333 5.11672 
-3.58387 -2.72164 4.96482 -2.78739 -3.54773 4.82189 -2.09086 -4.27998 4.74895 
-1.55521 -4.90967 4.66093 -0.984084 -5.54408 4.43095 -0.27757 -6.19254 4.07714 
-6.13873 0.192371 5.9528 -6.89586 0.539446 5.83223 -7.49723 0.897418 5.13659 
-8.0229 1.34116 3.92489 -8.63607 1.92426 2.61688 -9.26995 2.54732 1.54048 
-9.74786 3.09332 0.628102 -10.119 3.61399 -0.305035 -10.5196 4.20257 -1.25835 
-6.18804 -0.595603 5.69934 -7.0939 -1.09469 5.47588 -7.8286 -1.61968 4.95339 
-8.16014 -2.09666 4.10434 -8.16855 -2.48814 3.12634 -8.21746 -2.8836 2.2969 
-8.4789 -3.38246 1.71155 -8.75445 -3.95429 1.26023 -8.81383 -4.50504 0.799812 
4.1576 0.643606 3.16126 3.75274 1.35577 3.21161 3.38 2.1273 3.40434 
3.02849 2.98052 3.65116 2.61992 3.88729 3.82555 2.14597 4.71923 3.90522 
1.6809 5.40328 3.91539 1.26752 6.04759 3.8319 0.901298 6.76828 3.63993 
4.37902 -0.664747 3.50722 4.15389 -1.38407 3.7542 3.84787 -2.11519 3.86231 
3.46913 -2.82961 3.86178 3.00764 -3.58429 3.82506 2.48514 -4.40911 3.77212 
1.98193 -5.19363 3.73716 1.52167 -5.82076 3.75965 1.02893 -6.31122 3.77904 
5.07739 0.372265 2.83517 5.68533 0.785312 2.55309 6.36741 1.24132 2.36941 
7.08389 1.77694 2.15549 7.75159 2.38758 1.87481 8.33889 3.00069 1.71106 
8.86903 3.56871 1.71328 9.32124 4.11262 1.60951 9.6301 4.63131 1.19468 
5.18439 -0.424214 2.99903 5.8177 -0.884349 2.68692 6.47958 -1.44489 2.31168 
7.25149 -2.13734 1.96755 8.04364 -2.87518 1.62642 8.65062 -3.5023 1.18528 
9.05972 -3.97327 0.694657 9.40122 -4.36232 0.260544 9.65253 -4.70637 -0.169021 
0.420994 6.85424 -1.98798 0.383001 7.57992 -1.70191 0.304471 8.2035 -1.32198 
0.320464 8.55252 -0.755867 0.484744 8.69895 0.0227416 0.705078 8.85741 0.923606 
0.839827 8.98432 1.79224 0.829268 8.81012 2.49696 0.715757 8.254 3.00523 
1.39779 6.49784 -2.0621 2.47202 6.76815 -1.83363 3.59976 6.9087 -1.66549 
4.81912 6.92039 -1.56389 6.1125 6.91687 -1.37998 7.36747 6.93708 -1.0434 
8.40178 6.84035 -0.641611 9.10023 6.47357 -0.230392 9.51152 5.83925 0.191883 
-0.711795 6.2928 -2.08876 -1.91234 6.43492 -1.81594 -3.16245 6.67594 -1.76244 
-4.34561 6.94611 -2.1048 -5.54167 7.07246 -2.55855 -6.95013 6.95674 -2.77603 
-8.48066 6.63097 -2.77759 -9.74602 6.14155 -2.6954 -10.5183 5.51613 -2.49275 
1.36039 7.54783 3.29208 2.26779 7.51957 3.19396 3.26699 7.42171 2.96675 
4.30791 7.22752 2.59575 5.39353 6.96617 2.24089 6.55585 6.73955 2.01495 
7.7035 6.55947 1.81904 8.64042 6.27189 1.50829 9.29153 5.75223 1.06792 
-0.1154 7.84128 3.27655 -0.949731 7.89606 3.07005 -2.02562 7.56078 2.60952 
-3.3512 7.01214 1.86838 -4.77595 6.5339 1.05737 -6.12446 6.1588 0.379399 
-7.38132 5.76247 -0.220213 -8.6271 5.36301 -0.875512 -9.84449 5.0519 -1.55093 
0.0243689 -6.7072 -1.88783 0.0274412 -7.37785 -1.4674 0.0383455 -8.06029 -0.882336 
0.0304072 -8.59051 -0.151249 0.0243519 -8.81024 0.590741 0.0811144 -8.70009 1.25648 
0.214895 -8.35716 1.91724 0.362161 -7.8765 2.61705 0.448117 -7.32207 3.24707 
0.854499 -6.50586 -2.40076 1.73276 -6.91825 -2.5758 2.71985 -7.15541 -2.57883 
3.7913 -7.13272 -2.42922 4.8489 -7.00943 -2.3003 5.8537 -6.91256 -2.23319 
6.87983 -6.69644 -2.04827 7.94887 -6.21312 -1.63926 8.93109 -5.57051 -1.13077 
-0.838699 -6.22308 -1.90813 -1.84046 -6.52329 -1.74739 -2.87298 -6.91522 -1.75599 
-3.89733 -7.20856 -1.82106 -4.94831 -7.36034 -1.7826 -5.98204 -7.411 -1.58808 
-6.86121 -7.241 -1.25065 -7.54975 -6.70047 -0.776788 -8.12845 -5.87101 -0.230392 
1.48972 -6.8988 3.41808 2.42746 -6.88726 3.15344 3.35747 -6.83078 2.7585 
4.54797 -6.988 2.1389 5.97744 -7.35669 1.45365 7.17287 -7.49953 0.913924 
7.85687 -7.09192 0.495279 8.32267 -6.33261 0.0842285 8.92645 -5.5828 -0.32399 
-0.717212 -6.89288 3.73143 -2.05439 -7.06936 3.62117 -3.37041 -7.28925 3.28438 
-4.49207 -7.47662 2.7973 -5.40014 -7.47813 2.28414 -6.1965 -7.20586 1.75096 
-6.95585 -6.73615 1.20291 -7.65284 -6.19484 0.759562 -8.22137 -5.61881 0.479404 
10.2479 4.02298 0.445012 10.9014 2.84844 0.251038 11.5378 1.6455 0.0266709 
11.7944 0.552463 -0.230194 11.627 -0.427651 -0.516815 11.4174 -1.44753 -0.742315 
11.3343 -2.5323 -0.811882 11.0922 -3.5044 -0.765131 10.4868 -4.27772 -0.711575 
-11.582 4.13256 -1.97999 -12.1338 3.22931 -1.64028 -12.4709 2.12253 -1.21432 
-12.4415 0.964263 -0.861766 -11.9651 -0.0898458 -0.599842 -11.2071 -1.02387 -0.318826 
-10.4372 -1.94404 0.0100981 -9.7687 -2.93823 0.267885 -9.17769 -3.9845 0.345616 
-4.55117 0.676728 -4.46418 -4.24839 1.34498 -4.65405 -3.52793 0.655208 -4.66863 
-3.7954 2.02921 -4.61314 -3.11044 1.33856 -4.74394 -2.30208 0.640387 -4.72449 
-3.17938 2.70282 -4.1158 -2.51025 2.03047 -4.45909 -1.69356 1.34564 -4.73067 
-0.9059 0.654903 -4.72168 -2.5299 3.36293 -3.45709 -1.80221 2.70284 -3.84204 
-0.914216 2.05802 -4.42519 -0.0993111 1.36526 -4.80564 0.481619 0.666193 -4.78382 
-1.85776 4.01584 -3.0648 -1.12018 3.37092 -3.30414 -0.146073 2.74226 -3.90077 
0.786867 2.07614 -4.55469 1.3816 1.3549 -4.82645 1.74367 0.634865 -4.70412 
-1.02613 4.6364 -2.87273 -0.393423 4.04156 -2.98013 0.522762 3.41342 -3.37738 
1.53127 2.75109 -3.99505 2.25114 2.04688 -4.40213 2.63116 1.31675 -4.44827 
2.93841 0.604235 -4.29593 -0.0576218 5.20626 -2.61345 0.476282 4.67789 -2.63055 
1.22448 4.0792 -2.83764 2.13824 3.41243 -3.31789 2.9289 2.71402 -3.71871 
3.42914 2.01198 -3.81462 3.77369 1.31095 -3.78244 4.12385 0.634558 -3.74806 
-6.25674 1.14139 -4.40171 -7.20139 1.67549 -4.63192 -6.01278 1.87481 -4.52157 
-8.14516 2.29706 -4.72079 -6.88303 2.49307 -4.55156 -5.55453 2.65931 -4.55885 
-8.93127 3.01948 -4.44547 -7.70011 3.17545 -4.34699 -6.30179 3.3713 -4.34164 
-4.93321 3.46101 -4.2405 -9.64955 3.85342 -4.02978 -8.3899 3.90171 -3.96824 
-7.02575 4.07128 -3.93754 -5.64098 4.22673 -3.88228 -4.31709 4.20327 -3.63124 
-10.419 4.70774 -3.79926 -9.05324 4.68207 -3.74047 -7.63169 4.72655 -3.61414 
-6.31104 4.89219 -3.46891 -4.99543 4.95612 -3.25746 -3.66265 4.82985 -3.05942 
-10.9918 5.34512 -3.62544 -9.66451 5.43682 -3.65315 -8.1097 5.42158 -3.51608 
-6.72462 5.50697 -3.25239 -5.48925 5.60228 -2.89342 -4.16478 5.53162 -2.64719 
-2.77754 5.34341 -2.65332 -11.0212 5.59327 -3.19712 -9.94786 5.96248 -3.3464 
-8.42439 6.12584 -3.3276 -6.88706 6.22451 -3.13959 -5.60863 6.28074 -2.72059 
-4.39605 6.1988 -2.27369 -3.05796 5.99766 -2.15268 -1.70872 5.80491 -2.33804 
-9.3211 5.84655 -1.80444 -7.97019 6.29659 -1.01444 -8.41456 6.67695 -1.9229 
-6.62908 6.79114 -0.302525 -6.99512 7.33233 -1.09378 -7.07315 7.41013 -2.02886 
-5.27158 7.1711 0.357586 -5.62421 7.85373 -0.355101 -5.6674 8.15662 -1.24375 
-5.55461 7.81738 -2.08803 -3.7922 7.50801 1.12847 -4.19632 8.0942 0.387706 
-4.32161 8.50733 -0.492317 -4.20982 8.39472 -1.35803 -4.183 7.75433 -1.89059 
-2.29106 7.98115 1.94155 -2.64429 8.32075 1.21083 -2.90622 8.54308 0.297324 
-2.93945 8.50826 -0.644233 -2.89605 8.08764 -1.26583 -2.98481 7.39175 -1.53767 
-1.01068 8.43335 2.53526 -1.18159 8.70521 1.90822 -1.44404 8.69462 1.04549 
[...]
POINT_DATA 1002
FIELD FieldData 4
_paraPhi 1 1002 double
6.2831853072 3.1415926536 6.2831853072 3.1415926536 4.7123889804 4.7123889804 1.5707963268 1.5707963268 3.6951670125 
5.7296109483 2.5880182947 0.5535743589 6.2831853072 6.2831853072 6.2831853072 6.2831853072 3.1415926536 3.1415926536 
3.1415926536 3.1415926536 3.1415926536 6.1053039672 5.898798347 5.6768734901 5.4599499503 5.2659633393 5.1032165617 
4.9713148346 4.8656852733 4.7809517865 0.17788134 0.38438696014 0.60631181711 0.82323535693 1.0172219679 1.1799687454 
1.3118704726 1.4175000338 1.5022335207 6.1892828907 6.1070320098 6.035312792 5.9728339911 5.9183214791 5.8706119594 
5.8286879411 5.7916808611 5.7588591896 0.093902416448 0.17615329733 0.2478725152 0.31035131605 0.36486382811 0.41257334776 
0.45449736604 0.4915044461 0.52432611754 3.3194739936 3.5259796137 3.7479044707 3.9648280105 4.1588146215 4.321561399 
4.4534631262 4.5590926874 4.6438261743 2.9637113136 2.7572056934 2.5352808365 2.3183572967 2.1243706857 1.9616239082 
1.829722181 1.7240926197 1.6393591329 3.23549507 3.3177459509 3.3894651688 3.4519439696 3.5064564817 3.5541660013 
3.5960900196 3.6330970997 3.6659187711 3.0476902371 2.9654393563 2.8937201384 2.8312413375 2.7767288255 2.7290193058 
2.6870952876 2.6500882075 2.617266536 6.2831853072 6.2831853072 6.2831853072 6.2831853072 3.1415926536 3.1415926536 
3.1415926536 3.1415926536 3.1415926536 6.1053039672 5.898798347 5.6768734901 5.4599499503 5.2659633393 5.1032165617 
4.9713148346 4.8656852733 4.7809517865 0.17788134 0.38438696014 0.60631181711 0.82323535693 1.0172219679 1.1799687454 
1.3118704726 1.4175000338 1.5022335207 6.1892828907 6.1070320098 6.035312792 5.9728339911 5.9183214791 5.8706119594 
5.8286879411 5.7916808611 5.7588591896 0.093902416448 0.17615329733 0.2478725152 0.31035131605 0.36486382811 0.41257334776 
0.45449736604 0.4915044461 0.52432611754 3.3194739936 3.5259796137 3.7479044707 3.9648280105 4.1588146215 4.321561399 
4.4534631262 4.5590926874 4.6438261743 2.9637113136 2.7572056934 2.5352808365 2.3183572967 2.1243706857 1.9616239082 
1.829722181 1.7240926197 1.6393591329 3.23549507 3.3177459509 3.3894651688 3.4519439696 3.5064564817 3.5541660013 
3.5960900196 3.6330970997 3.6659187711 3.0476902371 2.9654393563 2.8937201384 2.8312413375 2.7767288255 2.7290193058 
2.6870952876 2.6500882075 2.617266536 4.7123889804 4.7123889804 4.7123889804 4.7123889804 4.7123889804 4.7123889804 
4.7123889804 4.7123889804 4.7123889804 4.6087898617 4.4991390697 4.3857031936 4.2712800401 4.1588146215 4.0509635631 
3.94975894 3.8564636551 3.7716124825 4.8159880991 4.9256388911 5.0390747672 5.1534979207 5.2659633393 5.3738143976 
5.4750190208 5.5683143056 5.6531654782 4.6087898617 4.4991390697 4.3857031936 4.2712800401 4.1588146215 4.0509635631 
3.94975894 3.8564636551 3.7716124825 4.8159880991 4.9256388911 5.0390747672 5.1534979207 5.2659633393 5.3738143976 
5.4750190208 5.5683143056 5.6531654782 1.5707963268 1.5707963268 1.5707963268 1.5707963268 1.5707963268 1.5707963268 
1.5707963268 1.5707963268 1.5707963268 1.6743954455 1.7840462375 1.8974821136 2.0119052671 2.1243706857 2.232221744 
2.3334263672 2.426721652 2.5115728246 1.4671972081 1.3575464161 1.24411054 1.1296873865 1.0172219679 0.90937090954 
0.80816628637 0.71487100155 0.63001982895 1.6743954455 1.7840462375 1.8974821136 2.0119052671 2.1243706857 2.232221744 
2.3334263672 2.426721652 2.5115728246 1.4671972081 1.3575464161 1.24411054 1.1296873865 1.0172219679 0.90937090954 
0.80816628637 0.71487100155 0.63001982895 3.6007720849 3.4966939854 3.3839471039 3.2645756454 3.1415926536 3.0186096618 
2.8992382033 2.7864913217 2.6824132222 5.8240058758 5.9280839753 6.0408308569 6.1602023154 6.2831853072 0.12298299178 
0.2423544503 0.35510133185 0.45917943135 6.0560271438 5.7885595667 5.9702140275 5.5125918794 5.6029703303 5.7885595667 
5.2659633393 5.2659633393 5.2659633393 5.2659633393 5.0674903122 5.0120975802 4.9155579264 4.7123889804 4.1588146215 
4.9155579264 4.8353719722 4.7123889804 4.5092200343 4.1588146215 3.6362183941 4.8004512023 4.7123889804 4.5894059886 
4.4126803806 4.1588146215 3.8218076305 3.4545639333 4.7123889804 4.6243267584 4.5092200343 4.3572876485 4.1588146215 
3.9121860814 3.6362183941 3.368750817 6.0174235957 5.9434319871 5.8263323547 5.8809213739 5.7674481418 5.6279784266 
5.8278025282 5.718968232 5.5891129425 5.4372443565 5.7823484065 5.678536687 5.5575666702 5.4192596322 5.2659633393 
5.743164462 5.6444075337 5.5314983644 5.4046708639 5.2659633393 5.1195510325 5.7091357773 5.6152775188 5.5096229709 
5.3926039573 5.2659633393 5.1329233157 4.9978930058 5.6793730533 5.5901633916 5.4910209005 5.3824597928 5.2659633393 
5.1440684722 5.0201624502 4.8979782167 5.5683143056 5.4750190208 5.4750190208 5.3738143976 5.3738143976 5.3738143976 
5.2659633393 5.2659633393 5.2659633393 5.2659633393 5.1534979207 5.1534979207 5.1534979207 5.1534979207 5.1534979207 
5.0390747672 5.0390747672 5.0390747672 5.0390747672 5.0390747672 5.0390747672 4.9256388911 4.9256388911 4.9256388911 
4.9256388911 4.9256388911 4.9256388911 4.9256388911 4.8159880991 4.8159880991 4.8159880991 4.8159880991 4.8159880991 
4.8159880991 4.8159880991 4.8159880991 4.6087898617 4.6087898617 4.4991390697 4.6087898617 4.4991390697 4.3857031936 
4.6087898617 4.4991390697 4.3857031936 4.2712800401 4.6087898617 4.4991390697 4.3857031936 4.2712800401 4.1588146215 
4.6087898617 4.4991390697 4.3857031936 4.2712800401 4.1588146215 4.0509635631 4.6087898617 4.4991390697 4.3857031936 
4.2712800401 4.1588146215 4.0509635631 3.94975894 4.6087898617 4.4991390697 4.3857031936 4.2712800401 4.1588146215 
4.0509635631 3.94975894 3.8564636551 4.526799744 4.4046155105 4.426884955 4.2807094886 4.2918546451 4.3052269283 
4.1588146215 4.1588146215 4.1588146215 4.1588146215 4.042318168 4.0321740035 4.0201070968 4.0055183285 3.9875336042 
3.9337570603 3.9151549899 3.8932795963 3.8672112905 3.8356650183 3.7967995342 3.8346145692 3.809500442 3.7803704271 
3.7462412737 3.7058097288 3.657329819 3.5984456061 3.7454049075 3.7156421835 3.6816134988 3.6424295543 3.5969754326 
3.5438565869 3.4813459737 3.4073543651 3.5642842451 3.4524645613 3.5233842518 3.3320300872 3.403123212 3.4773852225 
3.20576226 3.2746326772 3.348015857 3.4255060145 3.0774230472 3.1415926536 3.2112816139 3.2864685043 3.3668817272 
2.95115522 3.00855263 3.0719036933 3.1415926536 3.2178377658 3.3005964304 2.8307207459 2.8800620952 2.9351694502 
2.9967168029 3.0653475414 3.1415926536 3.225752376 2.718901062 2.7598010554 2.8058000847 2.8576792927 2.91630358 
2.9825888767 3.0574329311 3.1415926536 3.5642842451 3.5233842518 3.4524645613 3.4773852225 3.403123212 3.3320300872 
3.4255060145 3.348015857 3.2746326772 3.20576226 3.3668817272 3.2864685043 3.2112816139 3.1415926536 3.0774230472 
3.3005964304 3.2178377658 3.1415926536 3.0719036933 3.00855263 2.95115522 3.225752376 3.1415926536 3.0653475414 
2.9967168029 2.9351694502 2.8800620952 2.8307207459 3.1415926536 3.0574329311 2.9825888767 2.91630358 2.8576792927 
2.8058000847 2.7598010554 2.718901062 4.526799744 4.426884955 4.4046155105 4.3052269283 4.2918546451 4.2807094886 
4.1588146215 4.1588146215 4.1588146215 4.1588146215 3.9875336042 4.0055183285 4.0201070968 4.0321740035 4.042318168 
3.7967995342 3.8356650183 3.8672112905 3.8932795963 3.9151549899 3.9337570603 3.5984456061 3.657329819 3.7058097288 
3.7462412737 3.7803704271 3.809500442 3.8346145692 3.4073543651 3.4813459737 3.5438565869 3.5969754326 3.6424295543 
3.6816134988 3.7156421835 3.7454049075 4.7123889804 4.8004512023 4.6243267584 4.9155579264 4.7123889804 4.5092200343 
5.0674903122 4.8353719722 4.5894059886 4.3572876485 5.2659633393 5.0120975802 4.7123889804 4.4126803806 4.1588146215 
5.5125918794 5.2659633393 4.9155579264 4.5092200343 4.1588146215 3.9121860814 5.7885595667 5.6029703303 5.2659633393 
4.7123889804 4.1588146215 3.8218076305 3.6362183941 6.0560271438 5.9702140275 5.7885595667 5.2659633393 4.1588146215 
3.6362183941 3.4545639333 3.368750817 0.22715816343 0.49462574053 0.3129712797 0.77059342779 0.68021497688 0.49462574053 
1.0172219679 1.0172219679 1.0172219679 1.0172219679 1.2156949949 1.271087727 1.3676273807 1.5707963268 2.1243706857 
1.3676273807 1.447813335 1.5707963268 1.7739652728 2.1243706857 2.6469669131 1.4827341049 1.5707963268 1.6937793186 
1.8705049266 2.1243706857 2.4613776767 2.8286213739 1.5707963268 1.6588585487 1.7739652728 1.9258976586 2.1243706857 
2.3709992258 2.6469669131 2.9144344902 1.7563855631 1.8785697967 1.8563003522 2.0024758186 1.9913306621 1.9779583789 
2.1243706857 2.1243706857 2.1243706857 2.1243706857 2.2408671392 2.2510113037 2.2630782103 2.2776669786 2.295651703 
2.3494282469 2.3680303173 2.3899057108 2.4159740166 2.4475202889 2.486385773 2.448570738 2.4736848652 2.5028148801 
2.5369440334 2.5773755784 2.6258554882 2.6847397011 2.5377803997 2.5675431237 2.6015718084 2.6407557529 2.6862098746 
2.7393287203 2.8018393335 2.8758309421 1.6743954455 1.6743954455 1.7840462375 1.6743954455 1.7840462375 1.8974821136 
1.6743954455 1.7840462375 1.8974821136 2.0119052671 1.6743954455 1.7840462375 1.8974821136 2.0119052671 2.1243706857 
1.6743954455 1.7840462375 1.8974821136 2.0119052671 2.1243706857 2.232221744 1.6743954455 1.7840462375 1.8974821136 
2.0119052671 2.1243706857 2.232221744 2.3334263672 1.6743954455 1.7840462375 1.8974821136 2.0119052671 2.1243706857 
2.232221744 2.3334263672 2.426721652 1.4671972081 1.3575464161 1.4671972081 1.24411054 1.3575464161 1.4671972081 
1.1296873865 1.24411054 1.3575464161 1.4671972081 1.0172219679 1.1296873865 1.24411054 1.3575464161 1.4671972081 
0.90937090954 1.0172219679 1.1296873865 1.24411054 1.3575464161 1.4671972081 0.80816628637 0.90937090954 1.0172219679 
1.1296873865 1.24411054 1.3575464161 1.4671972081 0.71487100155 0.80816628637 0.90937090954 1.0172219679 1.1296873865 
1.24411054 1.3575464161 1.4671972081 0.60381225391 0.57404952988 0.69302191562 0.54002084522 0.66790778838 0.79216440667 
0.50083690068 0.63877777351 0.77356233629 0.90072551443 0.45538277901 0.60464862014 0.75168694275 0.89058134991 1.0172219679 
0.40226393329 0.56421707518 0.72561863695 0.87851444325 1.0172219679 1.139116835 0.33975332011 0.51573716537 0.69407236469 
0.86392567495 1.0172219679 1.1502619915 1.2630228569 0.26576171152 0.45685295248 0.6552068806 0.84594095064 1.0172219679 
1.1636342747 1.2852923014 1.3852070904 0.22715816343 0.3129712797 0.49462574053 0.49462574053 0.68021497688 0.77059342779 
1.0172219679 1.0172219679 1.0172219679 1.0172219679 2.1243706857 1.5707963268 1.3676273807 1.271087727 1.2156949949 
2.6469669131 2.1243706857 1.7739652728 1.5707963268 1.447813335 1.3676273807 2.8286213739 2.4613776767 2.1243706857 
1.8705049266 1.6937793186 1.5707963268 1.4827341049 2.9144344902 2.6469669131 2.3709992258 2.1243706857 1.9258976586 
1.7739652728 1.6588585487 1.5707963268 1.7563855631 1.8563003522 1.8785697967 1.9779583789 1.9913306621 2.0024758186 
2.1243706857 2.1243706857 2.1243706857 2.1243706857 2.295651703 2.2776669786 2.2630782103 2.2510113037 2.2408671392 
2.486385773 2.4475202889 2.4159740166 2.3899057108 2.3680303173 2.3494282469 2.6847397011 2.6258554882 2.5773755784 
2.5369440334 2.5028148801 2.4736848652 2.448570738 2.8758309421 2.8018393335 2.7393287203 2.6862098746 2.6407557529 
2.6015718084 2.5675431237 2.5377803997 5.8604937156 5.901393709 5.9723133995 5.9473927383 6.0216547488 6.0927478736 
5.9992719463 6.0767621038 6.1501452836 6.2190157008 6.0578962336 6.1383094565 6.2134963469 0 0.064169606361 
6.1241815303 6.206940195 6.2831853072 0.069688960264 0.13304002361 0.19043743361 6.1990255847 0 0.07624511221 
0.14487585072 0.20642320337 0.26153055843 0.3108719077 0 0.084159722458 0.15900377685 0.22528907359 0.28391336087 
0.3357925689 0.38179159818 0.42269159155 5.8604937156 5.9723133995 5.901393709 6.0927478736 6.0216547488 5.9473927383 
6.2190157008 6.1501452836 6.0767621038 5.9992719463 0.064169606361 0 6.2134963469 6.1383094565 6.0578962336 
0.19043743361 0.13304002361 0.069688960264 6.2831853072 6.206940195 6.1241815303 0.3108719077 0.26153055843 0.20642320337 
0.14487585072 0.07624511221 6.2831853072 6.1990255847 0.42269159155 0.38179159818 0.3357925689 0.28391336087 0.22528907359 
0.15900377685 0.084159722458 0 5.6793730533 5.7091357773 5.5901633916 5.743164462 5.6152775188 5.4910209005 
5.7823484065 5.6444075337 5.5096229709 5.3824597928 5.8278025282 5.678536687 5.5314983644 5.3926039573 5.2659633393 
5.8809213739 5.718968232 5.5575666702 5.4046708639 5.2659633393 5.1440684722 5.9434319871 5.7674481418 5.5891129425 
5.4192596322 5.2659633393 5.1329233157 5.0201624502 6.0174235957 5.8263323547 5.6279784266 5.4372443565 5.2659633393 
5.1195510325 4.9978930058 4.8979782167 1.3852070904 1.2852923014 1.2630228569 1.1636342747 1.1502619915 1.139116835 
1.0172219679 1.0172219679 1.0172219679 1.0172219679 0.84594095064 0.86392567495 0.87851444325 0.89058134991 0.90072551443 
0.6552068806 0.69407236469 0.72561863695 0.75168694275 0.77356233629 0.79216440667 0.45685295248 0.51573716537 0.56421707518 
0.60464862014 0.63877777351 0.66790778838 0.69302191562 0.26576171152 0.33975332011 0.40226393329 0.45538277901 0.50083690068 
0.54002084522 0.57404952988 0.60381225391 
_paraPhiHalf 1 1002 double
0 3.1415926536 0 3.1415926536 1.5707963268 1.5707963268 1.5707963268 1.5707963268 2.5880182947 
0.5535743589 2.5880182947 0.5535743589 0 0 0 0 3.1415926536 3.1415926536 
3.1415926536 3.1415926536 3.1415926536 0.17788134 0.38438696014 0.60631181711 0.82323535693 1.0172219679 1.1799687454 
1.3118704726 1.4175000338 1.5022335207 0.17788134 0.38438696014 0.60631181711 0.82323535693 1.0172219679 1.1799687454 
1.3118704726 1.4175000338 1.5022335207 0.093902416448 0.17615329733 0.2478725152 0.31035131605 0.36486382811 0.41257334776 
0.45449736604 0.4915044461 0.52432611754 0.093902416448 0.17615329733 0.2478725152 0.31035131605 0.36486382811 0.41257334776 
0.45449736604 0.4915044461 0.52432611754 2.9637113136 2.7572056934 2.5352808365 2.3183572967 2.1243706857 1.9616239082 
1.829722181 1.7240926197 1.6393591329 2.9637113136 2.7572056934 2.5352808365 2.3183572967 2.1243706857 1.9616239082 
1.829722181 1.7240926197 1.6393591329 3.0476902371 2.9654393563 2.8937201384 2.8312413375 2.7767288255 2.7290193058 
2.6870952876 2.6500882075 2.617266536 3.0476902371 2.9654393563 2.8937201384 2.8312413375 2.7767288255 2.7290193058 
2.6870952876 2.6500882075 2.617266536 0 0 0 0 3.1415926536 3.1415926536 
3.1415926536 3.1415926536 3.1415926536 0.17788134 0.38438696014 0.60631181711 0.82323535693 1.0172219679 1.1799687454 
1.3118704726 1.4175000338 1.5022335207 0.17788134 0.38438696014 0.60631181711 0.82323535693 1.0172219679 1.1799687454 
1.3118704726 1.4175000338 1.5022335207 0.093902416448 0.17615329733 0.2478725152 0.31035131605 0.36486382811 0.41257334776 
0.45449736604 0.4915044461 0.52432611754 0.093902416448 0.17615329733 0.2478725152 0.31035131605 0.36486382811 0.41257334776 
0.45449736604 0.4915044461 0.52432611754 2.9637113136 2.7572056934 2.5352808365 2.3183572967 2.1243706857 1.9616239082 
1.829722181 1.7240926197 1.6393591329 2.9637113136 2.7572056934 2.5352808365 2.3183572967 2.1243706857 1.9616239082 
1.829722181 1.7240926197 1.6393591329 3.0476902371 2.9654393563 2.8937201384 2.8312413375 2.7767288255 2.7290193058 
2.6870952876 2.6500882075 2.617266536 3.0476902371 2.9654393563 2.8937201384 2.8312413375 2.7767288255 2.7290193058 
2.6870952876 2.6500882075 2.617266536 1.5707963268 1.5707963268 1.5707963268 1.5707963268 1.5707963268 1.5707963268 
1.5707963268 1.5707963268 1.5707963268 1.6743954455 1.7840462375 1.8974821136 2.0119052671 2.1243706857 2.232221744 
2.3334263672 2.426721652 2.5115728246 1.4671972081 1.3575464161 1.24411054 1.1296873865 1.0172219679 0.90937090954 
0.80816628637 0.71487100155 0.63001982895 1.6743954455 1.7840462375 1.8974821136 2.0119052671 2.1243706857 2.232221744 
2.3334263672 2.426721652 2.5115728246 1.4671972081 1.3575464161 1.24411054 1.1296873865 1.0172219679 0.90937090954 
0.80816628637 0.71487100155 0.63001982895 1.5707963268 1.5707963268 1.5707963268 1.5707963268 1.5707963268 1.5707963268 
1.5707963268 1.5707963268 1.5707963268 1.6743954455 1.7840462375 1.8974821136 2.0119052671 2.1243706857 2.232221744 
2.3334263672 2.426721652 2.5115728246 1.4671972081 1.3575464161 1.24411054 1.1296873865 1.0172219679 0.90937090954 
0.80816628637 0.71487100155 0.63001982895 1.6743954455 1.7840462375 1.8974821136 2.0119052671 2.1243706857 2.232221744 
2.3334263672 2.426721652 2.5115728246 1.4671972081 1.3575464161 1.24411054 1.1296873865 1.0172219679 0.90937090954 
0.80816628637 0.71487100155 0.63001982895 2.6824132222 2.7864913217 2.8992382033 3.0186096618 3.1415926536 3.0186096618 
2.8992382033 2.7864913217 2.6824132222 0.45917943135 0.35510133185 0.2423544503 0.12298299178 0 0.12298299178 
0.2423544503 0.35510133185 0.45917943135 0.22715816343 0.49462574053 0.3129712797 0.77059342779 0.68021497688 0.49462574053 
1.0172219679 1.0172219679 1.0172219679 1.0172219679 1.2156949949 1.271087727 1.3676273807 1.5707963268 2.1243706857 
1.3676273807 1.447813335 1.5707963268 1.7739652728 2.1243706857 2.6469669131 1.4827341049 1.5707963268 1.6937793186 
1.8705049266 2.1243706857 2.4613776767 2.8286213739 1.5707963268 1.6588585487 1.7739652728 1.9258976586 2.1243706857 
2.3709992258 2.6469669131 2.9144344902 0.26576171152 0.33975332011 0.45685295248 0.40226393329 0.51573716537 0.6552068806 
0.45538277901 0.56421707518 0.69407236469 0.84594095064 0.50083690068 0.60464862014 0.72561863695 0.86392567495 1.0172219679 
0.54002084522 0.63877777351 0.75168694275 0.87851444325 1.0172219679 1.1636342747 0.57404952988 0.66790778838 0.77356233629 
0.89058134991 1.0172219679 1.1502619915 1.2852923014 0.60381225391 0.69302191562 0.79216440667 0.90072551443 1.0172219679 
1.139116835 1.2630228569 1.3852070904 0.71487100155 0.80816628637 0.80816628637 0.90937090954 0.90937090954 0.90937090954 
1.0172219679 1.0172219679 1.0172219679 1.0172219679 1.1296873865 1.1296873865 1.1296873865 1.1296873865 1.1296873865 
1.24411054 1.24411054 1.24411054 1.24411054 1.24411054 1.24411054 1.3575464161 1.3575464161 1.3575464161 
1.3575464161 1.3575464161 1.3575464161 1.3575464161 1.4671972081 1.4671972081 1.4671972081 1.4671972081 1.4671972081 
1.4671972081 1.4671972081 1.4671972081 1.6743954455 1.6743954455 1.7840462375 1.6743954455 1.7840462375 1.8974821136 
1.6743954455 1.7840462375 1.8974821136 2.0119052671 1.6743954455 1.7840462375 1.8974821136 2.0119052671 2.1243706857 
1.6743954455 1.7840462375 1.8974821136 2.0119052671 2.1243706857 2.232221744 1.6743954455 1.7840462375 1.8974821136 
2.0119052671 2.1243706857 2.232221744 2.3334263672 1.6743954455 1.7840462375 1.8974821136 2.0119052671 2.1243706857 
2.232221744 2.3334263672 2.426721652 1.7563855631 1.8785697967 1.8563003522 2.0024758186 1.9913306621 1.9779583789 
2.1243706857 2.1243706857 2.1243706857 2.1243706857 2.2408671392 2.2510113037 2.2630782103 2.2776669786 2.295651703 
2.3494282469 2.3680303173 2.3899057108 2.4159740166 2.4475202889 2.486385773 2.448570738 2.4736848652 2.5028148801 
2.5369440334 2.5773755784 2.6258554882 2.6847397011 2.5377803997 2.5675431237 2.6015718084 2.6407557529 2.6862098746 
2.7393287203 2.8018393335 2.8758309421 2.718901062 2.8307207459 2.7598010554 2.95115522 2.8800620952 2.8058000847 
3.0774230472 3.00855263 2.9351694502 2.8576792927 3.0774230472 3.1415926536 3.0719036933 2.9967168029 2.91630358 
2.95115522 3.00855263 3.0719036933 3.1415926536 3.0653475414 2.9825888767 2.8307207459 2.8800620952 2.9351694502 
2.9967168029 3.0653475414 3.1415926536 3.0574329311 2.718901062 2.7598010554 2.8058000847 2.8576792927 2.91630358 
2.9825888767 3.0574329311 3.1415926536 2.718901062 2.7598010554 2.8307207459 2.8058000847 2.8800620952 2.95115522 
2.8576792927 2.9351694502 3.00855263 3.0774230472 2.91630358 2.9967168029 3.0719036933 3.1415926536 3.0774230472 
2.9825888767 3.0653475414 3.1415926536 3.0719036933 3.00855263 2.95115522 3.0574329311 3.1415926536 3.0653475414 