# vtk DataFile Version 5.1
vtk output
ASCII
DATASET POLYDATA
POINTS 100 float
8.72957 27.0609 15.3352 8.74421 27.0644 15.3363 8.78805 27.0746 15.3341 
8.85862 27.0918 15.3281 8.95208 27.1169 15.3174 9.06365 27.1504 15.301 
9.18809 27.1931 15.278 9.32024 27.2454 15.2475 9.45553 27.3075 15.209 
9.59042 27.379 15.1622 9.72269 27.4592 15.1074 9.85154 27.5471 15.0454 
9.9776 27.6411 14.9771 10.1027 27.7397 14.9041 10.2295 27.8414 14.8277 
10.3612 27.9448 14.7495 10.5008 28.0491 14.6709 10.6511 28.1538 14.5931 
10.814 28.259 14.5167 10.9904 28.3655 14.4423 11.18 28.4744 14.3698 
11.3816 28.5871 14.2989 11.593 28.7051 14.2291 11.8114 28.83 14.1596 
12.0338 28.9629 14.0899 12.2574 29.1045 14.0193 12.4797 29.255 13.9477 
12.6988 29.4137 13.8751 12.914 29.5797 13.8016 13.1251 29.7513 13.728 
13.3329 29.9266 13.655 13.5386 30.1035 13.5835 13.7438 30.2801 13.5143 
13.9504 30.4546 13.4482 14.1596 30.6259 13.3857 14.3724 30.7933 13.327 
14.5891 30.9567 13.272 14.8092 31.1166 13.22 15.0317 31.2738 13.1704 
15.2549 31.4295 13.1223 15.4766 31.5852 13.0744 15.6948 31.7419 13.0258 
15.9073 31.9009 12.9754 16.1124 32.0629 12.9225 16.309 32.2282 12.8665 
16.4966 32.3969 12.8074 16.6753 32.5686 12.745 16.8458 32.7429 12.6797 
17.0095 32.919 12.6121 17.1681 33.0963 12.5425 17.3232 33.2743 12.4717 
17.4767 33.4528 12.4001 17.6302 33.6317 12.3281 17.7851 33.8112 12.2562 
17.9423 33.9918 12.1844 18.1024 34.1738 12.1129 18.2657 34.3578 12.0417 
18.4325 34.5439 11.9707 18.6026 34.7323 11.9001 18.7759 34.9226 11.83 
18.9525 35.1141 11.7606 19.1323 35.3059 11.6922 19.3154 35.4967 11.6255 
19.5017 35.6854 11.5608 19.6914 35.8706 11.4988 19.8842 36.0513 11.4398 
20.0795 36.2266 11.3843 20.2768 36.3962 11.3323 20.4749 36.5602 11.2839 
20.6723 36.719 11.2388 20.8675 36.8736 11.1965 21.0586 37.0251 11.1565 
21.2439 37.1749 11.1179 21.4218 37.3242 11.0801 21.5911 37.4742 11.0424 
21.7511 37.6258 11.0041 21.9017 37.7795 10.9648 22.0434 37.9354 10.9244 
22.1774 38.0932 10.8828 22.3054 38.2525 10.8403 22.4294 38.4125 10.7971 
22.5516 38.5723 10.7538 22.6741 38.731 10.7109 22.799 38.8879 10.6691 
22.9277 39.0422 10.6288 23.0611 39.1936 10.5905 23.1994 39.3416 10.5545 
23.342 39.4858 10.521 23.4876 39.6258 10.4901 23.6344 39.7611 10.4618 
23.7798 39.8909 10.4362 23.921 40.0141 10.413 24.055 40.1293 10.3923 
24.1786 40.2348 10.3741 24.289 40.3286 10.3582 24.3834 40.4088 10.3446 
24.4593 40.4733 10.3335 24.5149 40.5205 10.3249 24.5487 40.5489 10.3188 
24.5598 40.5577 10.3153 
LINES 2 100
OFFSETS vtktypeint64
0 100 
CONNECTIVITY vtktypeint64
0 1 2 3 4 5 6 7 8 
9 10 11 12 13 14 15 16 17 
18 19 20 21 22 23 24 25 26 
27 28 29 30 31 32 33 34 35 
36 37 38 39 40 41 42 43 44 
45 46 47 48 49 50 51 52 53 
54 55 56 57 58 59 60 61 62 
63 64 65 66 67 68 69 70 71 
72 73 74 75 76 77 78 79 80 
81 82 83 84 85 86 87 88 89 
90 91 92 93 94 95 96 97 98 
99 
POINT_DATA 100
FIELD FieldData 3
_theta 1 100 double
0 0.031733259127 0.063466518254 0.095199777382 0.12693303651 0.15866629564 0.19039955476 0.22213281389 0.25386607302 
0.28559933214 0.31733259127 0.3490658504 0.38079910953 0.41253236865 0.44426562778 0.47599888691 0.50773214603 0.53946540516 
0.57119866429 0.60293192342 0.63466518254 0.66639844167 0.6981317008 0.72986495992 0.76159821905 0.79333147818 0.82506473731 
0.85679799643 0.88853125556 0.92026451469 0.95199777382 0.98373103294 1.0154642921 1.0471975512 1.0789308103 1.1106640695 
1.1423973286 1.1741305877 1.2058638468 1.237597106 1.2693303651 1.3010636242 1.3327968833 1.3645301425 1.3962634016 
1.4279966607 1.4597299198 1.491463179 1.5231964381 1.5549296972 1.5866629564 1.6183962155 1.6501294746 1.6818627337 
1.7135959929 1.745329252 1.7770625111 1.8087957702 1.8405290294 1.8722622885 1.9039955476 1.9357288068 1.9674620659 
1.999195325 2.0309285841 2.0626618433 2.0943951024 2.1261283615 2.1578616206 2.1895948798 2.2213281389 2.253061398 
2.2847946572 2.3165279163 2.3482611754 2.3799944345 2.4117276937 2.4434609528 2.4751942119 2.506927471 2.5386607302 
2.5703939893 2.6021272484 2.6338605076 2.6655937667 2.6973270258 2.7290602849 2.7607935441 2.7925268032 2.8242600623 
2.8559933214 2.8877265806 2.9194598397 2.9511930988 2.982926358 3.0146596171 3.0463928762 3.0781261353 3.1098593945 
3.1415926536 
_radius 1 100 double
3.5704330589e-14 0.2938692948 0.5798907454 0.85137693053 1.103576311 1.3342510472 1.5438379394 1.7351482569 1.9126564463 
2.0815299848 2.2466223972 2.4116547384 2.5787495889 2.7483798034 2.9196726431 3.0909057123 3.2600006868 3.4248821896 
3.5836743747 3.7347890469 3.8769814437 4.0094220305 4.1317871929 4.2443378474 4.3479449452 4.4440317582 4.5344251308 
4.6211310882 4.706066521 4.7907864219 4.8762491756 4.9626628002 5.0494483993 5.1353382984 5.2185983053 5.2973363991 
5.3698430855 5.4349042562 5.4920333024 5.5415823941 5.5847114733 5.6232163126 5.6592414038 5.6949247157 5.7320335174 
5.7716496198 5.813949992 5.8581108726 5.9023460889 5.9440748392 5.9801987306 6.0074519079 6.0227756562 6.0236658598 
6.0084503227 5.9764689346 5.9281455331 5.8649511691 5.7892646078 5.7041405738 5.6130020751 5.5192807068 5.4260376886 
5.3356077992 5.2493160755 5.1673182467 5.0886049306 5.0111845917 4.9324243842 4.8494893927 4.7597920256 4.6613585455 
4.5530458057 4.434589065 4.3065089036 4.1699315467 4.0263782324 3.8775659902 3.7252448751 3.5710773649 3.4165443803 
3.2628484074 3.11079194 2.960640607 2.8120150854 2.6638693415 2.5145965872 2.3622653048 2.2049356684 2.040962653 
1.8691921483 1.6890137467 1.5003076935 1.303357232 1.0987774104 0.88746827473 0.67057114059 0.44940697967 0.22539843663 
3.9418299699e-14 
_area 1 100 double
0 0.26305308403 1.0293240997 2.234762017 3.787053563 5.5841668253 7.5347240319 9.5759000403 11.684473985 
13.877063208 16.197771615 18.696799708 21.409364455 24.344266373 27.484199472 30.792223621 34.2173076 37.696601503 
41.157875476 44.526745928 47.739370966 50.756445117 53.572275172 56.214333935 58.732821027 61.184219002 63.615278407 
66.053086745 68.503634477 70.95758446 73.399409305 75.815258742 78.19584753 80.533133184 82.812966521 85.008795179 
87.081887219 88.990457163 90.705061303 92.223726982 93.579695977 94.837580194 96.07842382 97.378260823 98.786975493 
100.31440565 101.92820984 103.5631146 105.13634025 106.56203159 107.75778473 108.63942159 109.11589215 109.10291703 
108.54319067 107.41594342 105.73867572 103.56658631 100.99006774 98.127710264 95.112404275 92.071356151 89.105661587 
86.277044254 83.60550663 81.075718205 78.647343816 76.265555576 73.870290825 71.404633434 68.822780809 66.09614899 
63.214570686 60.181577956 57.007526437 53.706182937 50.29668521 46.807871677 43.280743055 39.767009271 36.324314166 
33.009919 29.874292502 26.954859797 24.269034785 21.80693035 19.529522054 17.378716308 15.295554936 13.23791867 
11.192312125 9.1769869682 7.2365237904 5.4306711969 3.821276711 2.4609072803 1.3858696839 0.61494983445 0.15341320124 
2.3408313091e-13 
