# vtk DataFile Version 5.1
vtk output
ASCII
DATASET POLYDATA
POINTS 100 float
30.0139 38.8592 9.97425 29.9989 38.8519 9.97854 29.9543 38.8277 9.98777 
29.8828 38.7876 10.0012 29.7893 38.7332 10.0178 29.6793 38.6668 10.0362 
29.5591 38.591 10.0552 29.4346 38.5084 10.0737 29.3107 38.4218 10.0909 
29.191 38.3337 10.1066 29.0776 38.2461 10.121 28.9704 38.1608 10.1347 
28.8681 38.0788 10.1487 28.7679 38.0006 10.164 28.6661 37.9259 10.1818 
28.5589 37.8542 10.2026 28.4426 37.7843 10.2266 28.3144 37.7148 10.2533 
28.1726 37.644 10.2815 28.0167 37.5702 10.3095 27.8472 37.492 10.3347 
27.666 37.408 10.3547 27.4754 37.3172 10.3667 27.2782 37.2188 10.3686 
27.0767 37.1126 10.3586 26.873 36.9987 10.3361 26.6683 36.8774 10.3014 
26.463 36.7494 10.2558 26.2565 36.6156 10.202 26.0477 36.4769 10.1432 
25.8349 36.3344 10.0835 25.6162 36.1889 10.0271 25.3904 36.0414 9.97801 
25.1562 35.8928 9.93976 24.9135 35.7438 9.91503 24.6625 35.595 9.90536 
24.4043 35.447 9.9111 24.1405 35.3004 9.93134 23.8725 35.1555 9.96407 
23.602 35.013 10.0064 23.33 34.8731 10.0547 23.0571 34.7362 10.1054 
22.7831 34.6027 10.1547 22.5072 34.4727 10.1996 22.2283 34.3462 10.2375 
21.9449 34.2231 10.2669 21.6558 34.1029 10.287 21.3605 33.9851 10.2983 
21.0589 33.8687 10.3017 20.7522 33.7529 10.2989 20.4425 33.6365 10.2922 
20.1326 33.5183 10.2837 19.8258 33.3973 10.2757 19.5257 33.2724 10.2702 
19.2353 33.1431 10.2688 18.9567 33.0089 10.2727 18.6907 32.8698 10.2827 
18.4367 32.7261 10.2991 18.1925 32.5785 10.3222 17.9546 32.4279 10.3518 
17.7184 32.2755 10.3877 17.479 32.1225 10.4298 17.2318 31.9701 10.4782 
16.9732 31.8193 10.5327 16.701 31.6709 10.5936 16.415 31.5252 10.6612 
16.1174 31.3822 10.7356 15.8121 31.2414 10.8172 15.5048 31.102 10.906 
15.2023 30.9627 11.002 14.9115 30.8223 11.1049 14.6388 30.6792 11.2145 
14.3892 30.532 11.3299 14.1654 30.3796 11.4504 13.9679 30.2209 11.5751 
13.7944 30.0556 11.7028 13.6403 29.8836 11.8323 13.4992 29.7055 11.9622 
13.364 29.5221 12.0913 13.2274 29.3349 12.2181 13.0831 29.1454 12.3409 
12.9267 28.9557 12.4582 12.7566 28.7676 12.5683 12.5739 28.5833 12.6695 
12.3827 28.4045 12.7601 12.1893 28.2329 12.8388 12.0021 28.07 12.9043 
11.83 27.9169 12.9557 11.6814 27.7746 12.9926 11.5634 27.6436 13.0154 
11.4805 27.5244 13.0248 11.4341 27.4174 13.0224 11.4224 27.3227 13.0101 
11.4401 27.2403 12.9906 11.4796 27.1703 12.9667 11.5313 27.1128 12.9413 
11.5849 27.0678 12.9175 11.6311 27.0353 12.8976 11.6618 27.0155 12.8839 
11.6722 27.0083 12.8774 
LINES 2 100
OFFSETS vtktypeint64
0 100 
CONNECTIVITY vtktypeint64
0 1 2 3 4 5 6 7 8 
9 10 11 12 13 14 15 16 17 
18 19 20 21 22 23 24 25 26 
27 28 29 30 31 32 33 34 35 
36 37 38 39 40 41 42 43 44 
45 46 47 48 49 50 51 52 53 
54 55 56 57 58 59 60 61 62 
63 64 65 66 67 68 69 70 71 
72 73 74 75 76 77 78 79 80 
81 82 83 84 85 86 87 88 89 
90 91 92 93 94 95 96 97 98 
99 
POINT_DATA 100
FIELD FieldData 3
_theta 1 100 double
0 0.031733259127 0.063466518254 0.095199777382 0.12693303651 0.15866629564 0.19039955476 0.22213281389 0.25386607302 
0.28559933214 0.31733259127 0.3490658504 0.38079910953 0.41253236865 0.44426562778 0.47599888691 0.50773214603 0.53946540516 
0.57119866429 0.60293192342 0.63466518254 0.66639844167 0.6981317008 0.72986495992 0.76159821905 0.79333147818 0.82506473731 
0.85679799643 0.88853125556 0.92026451469 0.95199777382 0.98373103294 1.0154642921 1.0471975512 1.0789308103 1.1106640695 
1.1423973286 1.1741305877 1.2058638468 1.237597106 1.2693303651 1.3010636242 1.3327968833 1.3645301425 1.3962634016 
1.4279966607 1.4597299198 1.491463179 1.5231964381 1.5549296972 1.5866629564 1.6183962155 1.6501294746 1.6818627337 
1.7135959929 1.745329252 1.7770625111 1.8087957702 1.8405290294 1.8722622885 1.9039955476 1.9357288068 1.9674620659 
1.999195325 2.0309285841 2.0626618433 2.0943951024 2.1261283615 2.1578616206 2.1895948798 2.2213281389 2.253061398 
2.2847946572 2.3165279163 2.3482611754 2.3799944345 2.4117276937 2.4434609528 2.4751942119 2.506927471 2.5386607302 
2.5703939893 2.6021272484 2.6338605076 2.6655937667 2.6973270258 2.7290602849 2.7607935441 2.7925268032 2.8242600623 
2.8559933214 2.8877265806 2.9194598397 2.9511930988 2.982926358 3.0146596171 3.0463928762 3.0781261353 3.1098593945 
3.1415926536 
_radius 1 100 double
6.667848275e-14 0.25381928718 0.50550059529 0.75302976517 0.99484836444 1.2300109894 1.4582561055 1.6799713415 1.8960475344 
2.1076395744 2.3158827195 2.5216332554 2.7252909929 2.9267190527 3.1252350223 3.3196382377 3.5082596692 3.6890468949 
3.8597042263 4.0178945933 4.1614870982 4.2888156778 4.3989073076 4.4916428626 4.5678263173 4.6291538427 4.678089932 
4.7176703319 4.7512591035 4.7822881692 4.8140028949 4.8492300257 4.8901791045 4.9382879629 4.9941259974 5.0573716737 
5.1268777045 5.2008253814 5.2769515068 5.352815074 5.4260629654 5.4946575173 5.5570420576 5.6122350729 5.659851583 
5.7000532733 5.7334335926 5.7608517524 5.7832362422 5.8013811073 5.8157583024 5.826369981 5.8326656033 5.8335461723 
5.8274678258 5.8126401644 5.7872963241 5.7499972509 5.6999243051 5.6371129686 5.5625870856 5.4783678298 5.3873511436 
5.2930663554 5.1993436514 5.1099291216 5.0280938042 4.956285431 4.8958647418 4.8469519173 4.8083888289 4.7778085938 
4.7518000789 4.7261574348 4.6962043496 4.6571741449 4.6046132744 4.5347656324 4.4448945569 4.3335082586 4.2004672572 
4.0469634389 3.8753674118 3.6889465255 3.4914657542 3.2867026437 3.0779365802 2.8675034401 2.6565184891 2.4448405252 
2.2312802948 2.0139830053 1.7908798301 1.5601147877 1.3203875718 1.0711846506 0.81289118725 0.54678738847 0.27493934263 
3.6845586434e-14 
_area 1 100 double
0 0.19886437357 0.78779891891 1.7455180282 3.0417488856 4.6436406827 6.5222396083 8.6570297091 11.036730308 
13.655848545 16.50875996 19.584517672 22.864681281 26.324021632 29.93183606 33.651122154 37.434634281 41.220078906 
44.928702299 48.470191439 51.753297041 54.698787933 57.250862963 59.38453739 61.108254766 62.461992458 63.511675486 
64.341337453 65.044910773 65.719210902 66.458505585 67.349237898 68.462189223 69.840836774 71.489772983 73.37996412 
75.481759892 77.787233144 80.286398253 82.937633482 85.669298911 88.389259556 90.994645072 93.384553467 95.475427327 
97.215969502 98.596737941 99.650303406 100.44062999 101.04373634 101.52479091 101.91769413 102.21340391 102.36289409 
102.2941347 101.9331596 101.21936172 100.11315515 98.599405408 96.689861815 94.425419485 91.876952974 89.142556337 
86.339482907 83.590771268 81.00883005 78.679999138 76.654208544 74.942066374 73.518929895 72.333161789 71.314852685 
70.382050729 69.443510024 68.399290362 67.142265137 65.563680321 63.564014901 61.067697597 58.038220811 54.489344589 
50.488429815 46.149680556 41.618025942 37.047484986 32.579650024 28.327347253 24.365878934 20.731550955 17.426598953 
14.43005157 11.712213915 9.2478573454 7.0245609442 5.0465334105 3.3357091863 1.9299651848 0.87671989308 0.22222998654 
6.3552874323e-14 
