# vtk DataFile Version 5.1
vtk output
ASCII
DATASET POLYDATA
POINTS 100 float
27.7118 41.521 12.3604 27.7022 41.5208 12.3715 27.6735 41.5165 12.4005 
27.6269 41.5079 12.4455 27.5641 41.4949 12.5034 27.4871 41.4774 12.5704 
27.3983 41.4552 12.6419 27.2997 41.428 12.7135 27.1933 41.3955 12.7807 
27.0804 41.3573 12.8398 26.9618 41.313 12.8879 26.8375 41.2621 12.9231 
26.7071 41.204 12.9446 26.5699 41.1384 12.9529 26.4248 41.0648 12.9492 
26.2706 40.9828 12.9357 26.1066 40.8922 12.9148 25.9322 40.793 12.8894 
25.7476 40.685 12.8621 25.5532 40.5688 12.8351 25.3501 40.4445 12.81 
25.1398 40.3129 12.7878 24.924 40.1746 12.7687 24.7044 40.0305 12.7523 
24.4826 39.8814 12.7377 24.2599 39.7283 12.7239 24.037 39.572 12.7095 
23.8141 39.4134 12.6937 23.5911 39.2533 12.676 23.3673 39.0923 12.6565 
23.1416 38.9311 12.6357 22.9131 38.7699 12.6153 22.6807 38.6092 12.5969 
22.4437 38.449 12.583 22.2017 38.2895 12.5759 21.9548 38.1306 12.5777 
21.7035 37.9722 12.5902 21.4486 37.814 12.6147 21.1913 37.6559 12.6512 
20.9329 37.4977 12.6992 20.6744 37.3389 12.7573 20.4169 37.1796 12.8232 
20.1609 37.0193 12.894 19.9066 36.8582 12.9665 19.6537 36.696 13.0378 
19.4016 36.5329 13.1048 19.1492 36.3688 13.1654 18.8956 36.204 13.2181 
18.6396 36.0386 13.2621 18.3804 35.8728 13.2979 18.1172 35.7069 13.3265 
17.8497 35.5411 13.3496 17.5779 35.3754 13.3696 17.3022 35.2101 13.3887 
17.0231 35.0453 13.4092 16.7411 34.8809 13.4329 16.4567 34.7171 13.4612 
16.1701 34.5539 13.4948 15.8812 34.3916 13.5335 15.5896 34.2303 13.5766 
15.2946 34.0705 13.6232 14.995 33.9126 13.6716 14.6899 33.7574 13.7206 
14.3781 33.6057 13.7689 14.0589 33.4582 13.8155 13.7319 33.3159 13.8602 
13.3975 33.1795 13.9033 13.0567 33.0496 13.9456 12.7112 32.9267 13.9883 
12.3632 32.8107 14.0329 12.0155 32.7012 14.081 11.6711 32.5974 14.134 
11.3329 32.4982 14.1928 11.0037 32.4019 14.2576 10.6856 32.3068 14.3283 
10.3801 32.2109 14.4037 10.0879 32.1123 14.4822 9.80879 32.0093 14.5615 
9.54193 31.9008 14.6395 9.2858 31.7859 14.7136 9.03848 31.6647 14.7819 
8.79794 31.5377 14.8427 8.56227 31.4062 14.8952 8.32993 31.2721 14.9392 
8.09992 31.138 14.9755 7.87195 31.0064 15.0052 7.64644 30.8803 15.0302 
7.42454 30.7622 15.0525 7.20801 30.6546 15.074 6.99911 30.5593 15.0965 
6.80035 30.4774 15.1212 6.61441 30.4092 15.1485 6.44389 30.3545 15.1783 
6.29118 30.3122 15.2095 6.15842 30.2809 15.2407 6.04737 30.2587 15.2698 
5.95942 30.2437 15.2948 5.89563 30.2341 15.3136 5.85672 30.2285 15.3247 
5.84312 30.2258 15.3271 
LINES 2 100
OFFSETS vtktypeint64
0 100 
CONNECTIVITY vtktypeint64
0 1 2 3 4 5 6 7 8 
9 10 11 12 13 14 15 16 17 
18 19 20 21 22 23 24 25 26 
27 28 29 30 31 32 33 34 35 
36 37 38 39 40 41 42 43 44 
45 46 47 48 49 50 51 52 53 
54 55 56 57 58 59 60 61 62 
63 64 65 66 67 68 69 70 71 
72 73 74 75 76 77 78 79 80 
81 82 83 84 85 86 87 88 89 
90 91 92 93 94 95 96 97 98 
99 
POINT_DATA 100
FIELD FieldData 3
_theta 1 100 double
0 0.031733259127 0.063466518254 0.095199777382 0.12693303651 0.15866629564 0.19039955476 0.22213281389 0.25386607302 
0.28559933214 0.31733259127 0.3490658504 0.38079910953 0.41253236865 0.44426562778 0.47599888691 0.50773214603 0.53946540516 
0.57119866429 0.60293192342 0.63466518254 0.66639844167 0.6981317008 0.72986495992 0.76159821905 0.79333147818 0.82506473731 
0.85679799643 0.88853125556 0.92026451469 0.95199777382 0.98373103294 1.0154642921 1.0471975512 1.0789308103 1.1106640695 
1.1423973286 1.1741305877 1.2058638468 1.237597106 1.2693303651 1.3010636242 1.3327968833 1.3645301425 1.3962634016 
1.4279966607 1.4597299198 1.491463179 1.5231964381 1.5549296972 1.5866629564 1.6183962155 1.6501294746 1.6818627337 
1.7135959929 1.745329252 1.7770625111 1.8087957702 1.8405290294 1.8722622885 1.9039955476 1.9357288068 1.9674620659 
1.999195325 2.0309285841 2.0626618433 2.0943951024 2.1261283615 2.1578616206 2.1895948798 2.2213281389 2.253061398 
2.2847946572 2.3165279163 2.3482611754 2.3799944345 2.4117276937 2.4434609528 2.4751942119 2.506927471 2.5386607302 
2.5703939893 2.6021272484 2.6338605076 2.6655937667 2.6973270258 2.7290602849 2.7607935441 2.7925268032 2.8242600623 
2.8559933214 2.8877265806 2.9194598397 2.9511930988 2.982926358 3.0146596171 3.0463928762 3.0781261353 3.1098593945 
3.1415926536 
_radius 1 100 double
5.7943006589e-14 0.28527061664 0.56710410025 0.84254800586 1.1095291603 1.3670451044 1.6151326101 1.8546383057 2.0868583211 
2.3131333667 2.5344819424 2.7513375709 2.963435465 3.16986396 3.3692495168 3.5600016259 3.7405387102 3.9094510804 
4.0656014494 4.2081880267 4.3367936511 4.4514284379 4.5525581363 4.6411048829 4.7184117229 4.7861716408 4.8463291431 
4.900963309 4.9521556531 5.0018403701 5.0516390117 5.1027005345 5.1555884029 5.21025759 5.2661386698 5.3223101475 
5.3777159877 5.4313807688 5.4825836286 5.5309657081 5.576559924 5.6197452401 5.6611392789 5.7014519279 5.7413270204 
5.7811975739 5.8211720623 5.860957621 5.899816798 5.9365529915 5.9695268618 5.9967164943 6.0158391461 6.0245451185 
6.0206746893 6.0025451791 5.9692184169 5.9206965666 5.8580065643 5.7831546261 5.6989550988 5.6087568684 5.5161032279 
5.4243673968 5.3364063268 5.254270934 5.1790031142 5.1105406069 5.0477403303 4.9885181756 4.9300882578 4.8692702613 
4.8028246367 4.7277748507 4.6416823542 4.5428496629 4.4304369821 4.3044873847 4.1658651948 4.0161220845 3.8573139619 
3.6917955922 3.5220151814 3.3503171559 3.17874416 3.0088214745 2.8413206598 2.6760341309 2.5116292003 2.3456592602 
2.1747764189 1.9951310645 1.8028932899 1.5948085932 1.3687022126 1.1238608656 0.86124039084 0.58347103062 0.29465787232 
4.6672767616e-14 
_area 1 100 double
0 0.25014793253 0.98786727725 2.1779461637 3.7703702606 5.7099214545 7.9450387073 10.434773507 13.153763516 
16.094489926 19.264650796 22.677954956 26.339839608 30.232969653 34.308068645 38.483485331 42.653679074 46.704211348 
50.529477174 54.049043979 57.218740844 60.033602181 62.521666215 64.730463336 66.711148644 68.506940763 70.150708666 
71.671391087 73.103861818 74.494885162 75.899905472 77.371330568 78.945125056 80.633339768 82.425534877 84.297170921 
86.220769537 88.175254753 90.149964749 92.142348007 94.150955299 96.166596948 98.164780431 100.10288174 101.92517944 
103.57587301 105.01579255 106.23617953 107.26393604 108.15550625 108.97682764 109.7608825 110.45405534 110.92333099 
111.01908916 110.61616399 109.6325011 108.03881204 105.86081417 103.17476228 100.09803231 96.777146602 93.374796464 
90.055201009 86.966073119 84.217703553 81.864102427 79.893651353 78.233605943 76.766095928 75.349283299 73.838251086 
72.10309615 70.043617057 67.600030908 64.75815235 61.547061827 58.028766977 54.282699431 50.391045605 46.430459963 
42.470893598 38.577556411 34.811445647 31.226294996 27.862507047 24.7404836 21.856509246 19.183800189 16.679601173 
14.297001605 11.998493714 9.7678581879 7.6176433249 5.5907670178 3.7560585945 2.1985884021 1.0064390681 0.25621997418 
9.9475983006e-14 
