# vtk DataFile Version 5.1
vtk output
ASCII
DATASET POLYDATA
POINTS 1002 float
21.6624 40.3763 14.1008 12.0436 32.9218 18.9851 21.737 37.6451 7.57563 
14.5928 27.466 10.678 12.2673 39.5477 13.3456 14.0464 37.3525 8.34442 
21.7956 33.8894 18.8667 21.9184 30.422 13.1453 6.3109 29.2883 14.3449 
21.3348 45.6413 8.23491 14.516 24.9547 19.0896 27.6409 40.5169 12.4886 
20.7959 39.4259 14.1966 19.8673 38.4975 14.4789 18.8508 37.7788 15.0696 
17.7144 37.2891 15.842 16.5185 36.8258 16.5459 15.4136 36.2021 17.1414 
14.4734 35.4456 17.7536 13.6312 34.653 18.3565 12.8161 33.8222 18.7886 
20.8059 40.4669 14.0934 19.8499 40.4251 14.0238 18.8672 40.2617 13.7996 
17.9041 40.1723 13.5806 16.941 40.272 13.5988 15.9388 40.3322 13.7483 
14.9173 40.1298 13.7492 13.938 39.8167 13.5942 13.0454 39.6276 13.4477 
21.8776 39.7002 14.2915 21.9444 39.1581 14.8066 21.8767 38.8115 15.5863 
21.7782 38.4623 16.3978 21.7608 37.8952 17.1724 21.839 37.196 18.0146 
21.9301 36.5359 18.7797 21.9523 35.8372 19.1425 21.8946 34.944 19.079 
21.9889 41.3839 14.0352 22.2748 42.3177 13.8638 22.5203 42.9958 13.3869 
22.696 43.4186 12.6363 22.7461 43.7901 11.8626 22.6264 44.2856 11.2094 
22.3335 44.8583 10.5898 21.9404 45.3331 9.88233 21.5783 45.5966 9.07142 
22.7204 40.8132 14.055 23.8189 41.1528 13.9785 24.8054 41.5085 13.9761 
25.6146 42.0322 14.1429 26.3572 42.5519 14.33 27.0977 42.6341 14.2415 
27.6706 42.1647 13.8198 27.9032 41.4828 13.2849 27.84 40.9151 12.8306 
11.7542 33.4727 18.7362 11.4794 34.1475 18.384 11.2345 35.1237 18.1377 
11.0382 36.2969 18.0017 10.9239 37.1992 17.5831 10.9486 37.5831 16.6142 
11.1457 37.7966 15.4204 11.4784 38.2431 14.4696 11.8725 38.9016 13.8387 
12.8256 32.8961 18.9748 13.638 32.7307 18.7457 14.4867 32.4957 18.4094 
15.4756 32.4007 18.1535 16.6788 32.591 18.0311 18.0048 32.9772 17.9872 
19.2644 33.3562 18.0755 20.3279 33.619 18.36 21.1646 33.7786 18.6997 
11.0982 32.2532 18.9016 10.1766 31.5421 18.6996 9.34341 30.995 18.4813 
8.54495 30.6547 18.2493 7.78038 30.3253 17.8761 7.19047 29.9098 17.2972 
6.81696 29.5738 16.5822 6.54239 29.4259 15.8085 6.33949 29.3665 15.0357 
11.7838 31.8917 19.0769 11.5677 30.6397 19.101 11.4004 29.3627 19.224 
11.2942 28.3169 19.5027 11.3578 27.4614 19.7577 11.7633 26.5698 19.8661 
12.5252 25.7122 19.9211 13.3977 25.1657 19.9198 14.0909 24.9749 19.6727 
21.0868 36.7514 7.7093 20.4547 35.7032 7.81236 19.8356 34.6078 7.97552 
19.1901 33.4883 8.29714 18.4919 32.2689 8.72422 17.7473 31.0002 9.1215 
16.9728 29.8781 9.47926 16.1762 28.9734 9.87241 15.371 28.1911 10.2949 
21.031 37.5542 7.31795 20.2342 37.3789 6.99375 19.4143 37.2317 6.67931 
18.5692 37.1916 6.52639 17.6393 37.1935 6.5781 16.6615 37.1665 6.74607 
15.7897 37.1779 7.00524 15.1066 37.2796 7.39626 14.553 37.3775 7.87554 
21.9643 37.1121 7.90899 22.1544 36.4519 8.32218 22.2933 35.7418 8.90237 
22.3792 34.9869 9.57231 22.4281 34.0762 10.1168 22.4557 33.0309 10.5307 
22.4312 32.1002 11.056 22.3087 31.4331 11.7752 22.1116 30.9217 12.5183 
22.0126 38.4022 7.24404 22.2868 39.1394 6.90506 22.5062 39.9968 6.71195 
22.6767 41.1616 6.70563 22.7752 42.5778 6.70591 22.6739 43.9297 6.61486 
22.3223 44.9596 6.64242 21.8827 45.5817 6.99116 21.5429 45.7869 7.58708 
22.56 38.1199 7.6297 23.4132 38.547 7.76576 24.2406 39.0021 8.10048 
24.9635 39.4994 8.65482 25.5472 39.9518 9.33257 26.0486 40.3195 10.0483 
26.5225 40.6134 10.7475 26.9552 40.7604 11.3668 27.3266 40.6986 11.916 
14.169 27.9116 10.2754 13.8582 28.6111 10.0413 13.6934 29.593 10.0039 
13.6064 30.6845 9.91104 13.5212 31.6986 9.53831 13.486 32.7157 9.05215 
13.5925 33.9188 8.74348 13.8016 35.2382 8.61671 13.9784 36.4278 8.50783 
15.5708 27.5638 10.8995 16.5873 27.5931 11.0222 17.5265 27.4164 10.9555 
18.3898 27.209 10.8915 19.2369 27.3464 11.1369 20.0142 27.8966 11.6699 
20.6151 28.5836 12.195 21.0647 29.2285 12.5721 21.4794 29.8405 12.8674 
13.521 27.0353 10.7911 12.4138 26.8156 11.0802 11.3576 26.8979 11.6399 
10.3773 27.072 12.2923 9.37408 27.0477 12.7191 8.2661 26.9432 12.9029 
7.21186 27.1672 13.1314 6.50698 27.8124 13.5342 6.25669 28.5983 13.9785 
14.421 26.7912 11.1462 14.2972 26.08 11.5023 14.2198 25.4378 11.8215 
14.112 25.0272 12.467 13.8946 24.9043 13.5921 13.6218 24.951 14.8305 
13.4808 25.0052 15.8883 13.6255 24.9956 16.9269 14.0306 24.9542 18.067 
12.0948 39.7979 12.9054 12.0141 39.8539 12.2796 12.0838 39.7363 11.5149 
12.3261 39.5649 10.7464 12.636 39.3395 10.0748 12.869 38.9505 9.50911 
13.054 38.4577 9.05016 13.3286 38.0431 8.72183 13.6999 37.7204 8.50792 
11.289 39.061 13.5505 10.3897 38.3467 13.7353 9.74235 37.2718 13.8676 
9.24148 36.0038 14.022 8.59709 34.8275 14.2345 7.81538 33.7182 14.354 
7.20264 32.5121 14.2898 6.85861 31.2956 14.2011 6.60269 30.2279 14.2366 
13.0915 40.2257 12.8985 13.8759 40.9749 12.3333 14.6549 41.7271 11.6332 
15.5767 42.3436 10.8973 16.7206 42.707 10.2335 17.98 42.9219 9.66084 
19.1647 43.3147 9.17149 20.1292 44.0624 8.77565 20.8299 44.9562 8.46849 
13.5028 36.6532 8.92584 12.8321 35.6945 9.5653 11.9698 34.5157 10.2261 
10.9692 33.339 10.8508 9.99278 32.3798 11.4592 9.10246 31.6222 12.0834 
8.22711 30.9416 12.661 7.38423 30.316 13.1669 6.71518 29.7725 13.7028 
14.3652 38.2097 7.83021 14.6679 39.0937 7.19245 14.9783 40.0641 6.53422 
15.4673 41.0963 6.10496 16.3956 42.0362 6.05876 17.7638 42.8068 6.27367 
19.1673 43.5449 6.57809 20.2078 44.3576 6.98455 20.8592 45.1219 7.55579 
22.0172 33.2212 18.7151 22.162 32.526 18.4593 22.3176 31.9411 18.0781 
22.5515 31.466 17.5336 22.7768 31.0086 16.8187 22.8253 30.611 15.9889 
22.654 30.4124 15.1422 22.3763 30.4 14.3674 22.1168 30.4302 13.7046 
21.3516 32.6965 18.6523 20.8051 31.4895 18.4602 19.9109 30.3282 18.2174 
18.5859 29.1571 17.889 17.2828 27.9457 17.7618 16.6026 26.8286 18.2112 
16.4661 25.976 19.0651 16.2303 25.42 19.6702 15.5276 25.0988 19.63 
22.4388 34.7153 18.8955 23.1483 35.549 18.5894 23.8885 36.2085 17.9264 
24.7257 36.6855 17.079 25.8087 37.2075 16.3074 27.0074 37.9074 15.6741 
27.8568 38.6453 14.9929 28.0916 39.2893 14.1494 27.9087 39.8882 13.2608 
21.4971 29.4757 13.5142 21.1429 28.369 13.8548 20.8337 27.2477 14.2491 
20.4348 26.314 14.7438 19.7294 25.6585 15.3131 18.6517 25.2455 16.004 
17.4401 25.0358 16.9008 16.3682 24.9823 17.8725 15.4446 24.9826 18.6416 
22.538 31.3146 13.0468 23.2323 32.2682 12.9268 23.8747 33.317 12.8431 
24.4235 34.5186 12.8209 25.0386 35.8583 12.7898 25.8689 37.1583 12.6835 
26.7372 38.2304 12.5775 27.3194 39.0695 12.5591 27.556 39.7962 12.5644 
5.96963 28.3523 14.8793 5.74337 27.2553 15.4513 5.81786 26.1476 15.9995 
6.33947 25.3318 16.5695 7.28221 24.9774 17.2183 8.51332 24.9204 17.8257 
9.95036 24.9116 18.2371 11.5343 24.8894 18.5187 13.1202 24.8994 18.8121 
21.9444 45.9729 8.5926 22.7725 45.8648 9.01449 23.9848 45.5646 9.40285 
25.5623 45.4786 9.6971 27.1081 45.5546 9.95591 28.0342 45.23 10.2945 
28.1453 44.2034 10.7628 27.8415 42.8043 11.3324 27.623 41.5116 11.9357 
19.8993 39.4635 14.172 18.8787 39.4751 14.1574 18.8853 38.5798 14.5501 
17.8074 39.4669 14.1001 17.7463 38.6864 14.6782 17.718 37.9377 15.2859 
16.7719 39.5235 14.1115 16.5743 38.7437 14.7826 16.4544 38.052 15.512 
16.452 37.4411 16.115 15.7859 39.5692 14.2159 15.499 38.7658 14.8821 
15.2279 38.0931 15.7017 15.1533 37.5129 16.3714 15.2652 36.8972 16.8057 
14.7865 39.4015 14.2193 14.4961 38.6918 14.9085 14.1268 38.1541 15.8639 
13.9286 37.6527 16.6851 14.0253 36.9877 17.1242 14.2715 36.2088 17.4206 
13.7504 39.0932 14.0647 13.4584 38.4817 14.7769 13.0831 38.1587 15.8794 
12.81 37.8823 16.9721 12.8265 37.2402 17.5459 13.0907 36.2876 17.7558 
13.4019 35.3843 18.0227 12.7464 38.9128 13.9156 12.4065 38.2934 14.5923 
12.0569 38.0102 15.6901 11.8021 37.9034 16.9621 11.7624 37.4237 17.7903 
11.9498 36.4055 18.0396 12.2549 35.2974 18.1847 12.5589 34.4573 18.4915 
21.025 41.4779 14.062 21.2318 42.3601 13.8345 20.0109 41.2899 13.8476 
21.4248 43.0129 13.2531 20.1926 42.0358 13.4288 19.0391 40.9423 13.3855 
21.5591 43.4962 12.4476 20.3674 42.6661 12.7297 19.2321 41.5575 12.7827 
18.0804 40.7842 13.0509 21.5842 43.9262 11.6524 20.4726 43.2077 11.926 
19.3854 42.1378 12.0296 18.2239 41.3189 12.3841 17.0271 40.8885 13.088 
21.4797 44.335 10.9125 20.4748 43.6213 11.1544 19.4382 42.6544 11.2713 
18.2917 41.8023 11.6029 17.0382 41.3506 12.3795 15.8918 40.9166 13.2257 
21.2678 44.6707 10.1439 20.3863 43.8713 10.3933 19.3824 43.0226 10.5809 
18.2538 42.267 10.8735 16.9948 41.7638 11.5409 15.8017 41.3534 12.4555 
14.8182 40.7013 13.1839 21.0258 44.8818 9.3135 20.2544 43.9974 9.59541 
19.2687 43.2198 9.90283 18.1225 42.6648 10.2683 16.8818 42.2467 10.8194 
15.7057 41.8064 11.6065 14.7312 41.2034 12.4237 13.8903 40.4283 13.034 
20.1927 44.2896 7.85484 19.2807 43.6145 7.34421 19.2505 43.4785 8.27264 
17.9815 43.1044 6.94507 18.0463 43.1355 7.85473 17.9971 43.0654 8.84066 
16.52 42.6008 6.64684 16.6078 42.9187 7.49205 16.588 43.0536 8.54998 
16.5992 42.9973 9.53121 15.3445 41.7938 6.56472 15.3126 42.3816 7.24817 
15.2537 42.8127 8.23641 15.2311 42.9849 9.3516 15.3578 42.7936 10.2509 
14.651 40.6955 6.83398 14.4548 41.3536 7.29542 14.3231 41.9824 8.03383 
14.2262 42.4154 9.0769 14.259 42.4717 10.1371 14.4365 42.1686 10.9661 
14.267 39.5909 7.37775 13.9632 40.1471 7.669 13.7824 40.7807 8.14174 
13.6404 41.3348 8.92044 13.5418 41.6108 9.92808 13.5675 41.5661 10.8955 
13.7024 41.3099 11.6847 13.9776 38.6208 7.97931 13.6245 39.0457 8.20032 
13.4036 39.5807 8.54335 13.2471 40.1267 9.08554 13.0547 40.4897 9.85908 
12.8878 40.635 10.7636 12.8504 40.6326 11.6306 12.9358 40.4946 12.3501 
11.1472 39.1495 13.0092 11.1644 38.9601 12.2889 10.3345 38.1721 13.044 
11.404 38.6408 11.5664 10.4845 37.7472 12.3009 9.77161 36.8869 13.0997 
11.8148 38.3712 10.9997 10.8585 37.3113 11.7679 9.98864 36.3701 12.4666 
9.25129 35.5784 13.3068 12.2014 38.0663 10.509 11.326 36.9548 11.4234 
10.3701 35.8849 12.1226 9.43503 35.0611 12.7856 8.54632 34.3926 13.5663 
12.4667 37.6239 9.97484 11.7077 36.5371 10.9713 10.7895 35.404 11.8063 
9.78296 34.4965 12.433 8.74712 33.815 13.0234 7.82316 33.1815 13.6545 
[...]
POINT_DATA 1002
FIELD FieldData 4
_paraPhi 1 1002 double
6.2831853072 3.1415926536 6.2831853072 3.1415926536 4.7123889804 4.7123889804 1.5707963268 1.5707963268 3.6951670125 
5.7296109483 2.5880182947 0.5535743589 6.2831853072 6.2831853072 6.2831853072 6.2831853072 3.1415926536 3.1415926536 
3.1415926536 3.1415926536 3.1415926536 6.1053039672 5.898798347 5.6768734901 5.4599499503 5.2659633393 5.1032165617 
4.9713148346 4.8656852733 4.7809517865 0.17788134 0.38438696014 0.60631181711 0.82323535693 1.0172219679 1.1799687454 
1.3118704726 1.4175000338 1.5022335207 6.1892828907 6.1070320098 6.035312792 5.9728339911 5.9183214791 5.8706119594 
5.8286879411 5.7916808611 5.7588591896 0.093902416448 0.17615329733 0.2478725152 0.31035131605 0.36486382811 0.41257334776 
0.45449736604 0.4915044461 0.52432611754 3.3194739936 3.5259796137 3.7479044707 3.9648280105 4.1588146215 4.321561399 
4.4534631262 4.5590926874 4.6438261743 2.9637113136 2.7572056934 2.5352808365 2.3183572967 2.1243706857 1.9616239082 
1.829722181 1.7240926197 1.6393591329 3.23549507 3.3177459509 3.3894651688 3.4519439696 3.5064564817 3.5541660013 
3.5960900196 3.6330970997 3.6659187711 3.0476902371 2.9654393563 2.8937201384 2.8312413375 2.7767288255 2.7290193058 
2.6870952876 2.6500882075 2.617266536 6.2831853072 6.2831853072 6.2831853072 6.2831853072 3.1415926536 3.1415926536 
3.1415926536 3.1415926536 3.1415926536 6.1053039672 5.898798347 5.6768734901 5.4599499503 5.2659633393 5.1032165617 
4.9713148346 4.8656852733 4.7809517865 0.17788134 0.38438696014 0.60631181711 0.82323535693 1.0172219679 1.1799687454 
1.3118704726 1.4175000338 1.5022335207 6.1892828907 6.1070320098 6.035312792 5.9728339911 5.9183214791 5.8706119594 
5.8286879411 5.7916808611 5.7588591896 0.093902416448 0.17615329733 0.2478725152 0.31035131605 0.36486382811 0.41257334776 
0.45449736604 0.4915044461 0.52432611754 3.3194739936 3.5259796137 3.7479044707 3.9648280105 4.1588146215 4.321561399 
4.4534631262 4.5590926874 4.6438261743 2.9637113136 2.7572056934 2.5352808365 2.3183572967 2.1243706857 1.9616239082 
1.829722181 1.7240926197 1.6393591329 3.23549507 3.3177459509 3.3894651688 3.4519439696 3.5064564817 3.5541660013 
3.5960900196 3.6330970997 3.6659187711 3.0476902371 2.9654393563 2.8937201384 2.8312413375 2.7767288255 2.7290193058 
2.6870952876 2.6500882075 2.617266536 4.7123889804 4.7123889804 4.7123889804 4.7123889804 4.7123889804 4.7123889804 
4.7123889804 4.7123889804 4.7123889804 4.6087898617 4.4991390697 4.3857031936 4.2712800401 4.1588146215 4.0509635631 
3.94975894 3.8564636551 3.7716124825 4.8159880991 4.9256388911 5.0390747672 5.1534979207 5.2659633393 5.3738143976 
5.4750190208 5.5683143056 5.6531654782 4.6087898617 4.4991390697 4.3857031936 4.2712800401 4.1588146215 4.0509635631 
3.94975894 3.8564636551 3.7716124825 4.8159880991 4.9256388911 5.0390747672 5.1534979207 5.2659633393 5.3738143976 
5.4750190208 5.5683143056 5.6531654782 1.5707963268 1.5707963268 1.5707963268 1.5707963268 1.5707963268 1.5707963268 
1.5707963268 1.5707963268 1.5707963268 1.6743954455 1.7840462375 1.8974821136 2.0119052671 2.1243706857 2.232221744 
2.3334263672 2.426721652 2.5115728246 1.4671972081 1.3575464161 1.24411054 1.1296873865 1.0172219679 0.90937090954 
0.80816628637 0.71487100155 0.63001982895 1.6743954455 1.7840462375 1.8974821136 2.0119052671 2.1243706857 2.232221744 
2.3334263672 2.426721652 2.5115728246 1.4671972081 1.3575464161 1.24411054 1.1296873865 1.0172219679 0.90937090954 
0.80816628637 0.71487100155 0.63001982895 3.6007720849 3.4966939854 3.3839471039 3.2645756454 3.1415926536 3.0186096618 
2.8992382033 2.7864913217 2.6824132222 5.8240058758 5.9280839753 6.0408308569 6.1602023154 6.2831853072 0.12298299178 
0.2423544503 0.35510133185 0.45917943135 6.0560271438 5.7885595667 5.9702140275 5.5125918794 5.6029703303 5.7885595667 
5.2659633393 5.2659633393 5.2659633393 5.2659633393 5.0674903122 5.0120975802 4.9155579264 4.7123889804 4.1588146215 
4.9155579264 4.8353719722 4.7123889804 4.5092200343 4.1588146215 3.6362183941 4.8004512023 4.7123889804 4.5894059886 
4.4126803806 4.1588146215 3.8218076305 3.4545639333 4.7123889804 4.6243267584 4.5092200343 4.3572876485 4.1588146215 
3.9121860814 3.6362183941 3.368750817 6.0174235957 5.9434319871 5.8263323547 5.8809213739 5.7674481418 5.6279784266 
5.8278025282 5.718968232 5.5891129425 5.4372443565 5.7823484065 5.678536687 5.5575666702 5.4192596322 5.2659633393 
5.743164462 5.6444075337 5.5314983644 5.4046708639 5.2659633393 5.1195510325 5.7091357773 5.6152775188 5.5096229709 
5.3926039573 5.2659633393 5.1329233157 4.9978930058 5.6793730533 5.5901633916 5.4910209005 5.3824597928 5.2659633393 
5.1440684722 5.0201624502 4.8979782167 5.5683143056 5.4750190208 5.4750190208 5.3738143976 5.3738143976 5.3738143976 
5.2659633393 5.2659633393 5.2659633393 5.2659633393 5.1534979207 5.1534979207 5.1534979207 5.1534979207 5.1534979207 
5.0390747672 5.0390747672 5.0390747672 5.0390747672 5.0390747672 5.0390747672 4.9256388911 4.9256388911 4.9256388911 
4.9256388911 4.9256388911 4.9256388911 4.9256388911 4.8159880991 4.8159880991 4.8159880991 4.8159880991 4.8159880991 
4.8159880991 4.8159880991 4.8159880991 4.6087898617 4.6087898617 4.4991390697 4.6087898617 4.4991390697 4.3857031936 
4.6087898617 4.4991390697 4.3857031936 4.2712800401 4.6087898617 4.4991390697 4.3857031936 4.2712800401 4.1588146215 
4.6087898617 4.4991390697 4.3857031936 4.2712800401 4.1588146215 4.0509635631 4.6087898617 4.4991390697 4.3857031936 
4.2712800401 4.1588146215 4.0509635631 3.94975894 4.6087898617 4.4991390697 4.3857031936 4.2712800401 4.1588146215 
4.0509635631 3.94975894 3.8564636551 4.526799744 4.4046155105 4.426884955 4.2807094886 4.2918546451 4.3052269283 
4.1588146215 4.1588146215 4.1588146215 4.1588146215 4.042318168 4.0321740035 4.0201070968 4.0055183285 3.9875336042 
3.9337570603 3.9151549899 3.8932795963 3.8672112905 3.8356650183 3.7967995342 3.8346145692 3.809500442 3.7803704271 
3.7462412737 3.7058097288 3.657329819 3.5984456061 3.7454049075 3.7156421835 3.6816134988 3.6424295543 3.5969754326 
3.5438565869 3.4813459737 3.4073543651 3.5642842451 3.4524645613 3.5233842518 3.3320300872 3.403123212 3.4773852225 
3.20576226 3.2746326772 3.348015857 3.4255060145 3.0774230472 3.1415926536 3.2112816139 3.2864685043 3.3668817272 
2.95115522 3.00855263 3.0719036933 3.1415926536 3.2178377658 3.3005964304 2.8307207459 2.8800620952 2.9351694502 
2.9967168029 3.0653475414 3.1415926536 3.225752376 2.718901062 2.7598010554 2.8058000847 2.8576792927 2.91630358 
2.9825888767 3.0574329311 3.1415926536 3.5642842451 3.5233842518 3.4524645613 3.4773852225 3.403123212 3.3320300872 
3.4255060145 3.348015857 3.2746326772 3.20576226 3.3668817272 3.2864685043 3.2112816139 3.1415926536 3.0774230472 
3.3005964304 3.2178377658 3.1415926536 3.0719036933 3.00855263 2.95115522 3.225752376 3.1415926536 3.0653475414 
2.9967168029 2.9351694502 2.8800620952 2.8307207459 3.1415926536 3.0574329311 2.9825888767 2.91630358 2.8576792927 
2.8058000847 2.7598010554 2.718901062 4.526799744 4.426884955 4.4046155105 4.3052269283 4.2918546451 4.2807094886 
4.1588146215 4.1588146215 4.1588146215 4.1588146215 3.9875336042 4.0055183285 4.0201070968 4.0321740035 4.042318168 
3.7967995342 3.8356650183 3.8672112905 3.8932795963 3.9151549899 3.9337570603 3.5984456061 3.657329819 3.7058097288 
3.7462412737 3.7803704271 3.809500442 3.8346145692 3.4073543651 3.4813459737 3.5438565869 3.5969754326 3.6424295543 
3.6816134988 3.7156421835 3.7454049075 4.7123889804 4.8004512023 4.6243267584 4.9155579264 4.7123889804 4.5092200343 
5.0674903122 4.8353719722 4.5894059886 4.3572876485 5.2659633393 5.0120975802 4.7123889804 4.4126803806 4.1588146215 
5.5125918794 5.2659633393 4.9155579264 4.5092200343 4.1588146215 3.9121860814 5.7885595667 5.6029703303 5.2659633393 
4.7123889804 4.1588146215 3.8218076305 3.6362183941 6.0560271438 5.9702140275 5.7885595667 5.2659633393 4.1588146215 
3.6362183941 3.4545639333 3.368750817 0.22715816343 0.49462574053 0.3129712797 0.77059342779 0.68021497688 0.49462574053 
1.0172219679 1.0172219679 1.0172219679 1.0172219679 1.2156949949 1.271087727 1.3676273807 1.5707963268 2.1243706857 
1.3676273807 1.447813335 1.5707963268 1.7739652728 2.1243706857 2.6469669131 1.4827341049 1.5707963268 1.6937793186 
1.8705049266 2.1243706857 2.4613776767 2.8286213739 1.5707963268 1.6588585487 1.7739652728 1.9258976586 2.1243706857 
2.3709992258 2.6469669131 2.9144344902 1.7563855631 1.8785697967 1.8563003522 2.0024758186 1.9913306621 1.9779583789 
2.1243706857 2.1243706857 2.1243706857 2.1243706857 2.2408671392 2.2510113037 2.2630782103 2.2776669786 2.295651703 
2.3494282469 2.3680303173 2.3899057108 2.4159740166 2.4475202889 2.486385773 2.448570738 2.4736848652 2.5028148801 
2.5369440334 2.5773755784 2.6258554882 2.6847397011 2.5377803997 2.5675431237 2.6015718084 2.6407557529 2.6862098746 
2.7393287203 2.8018393335 2.8758309421 1.6743954455 1.6743954455 1.7840462375 1.6743954455 1.7840462375 1.8974821136 
1.6743954455 1.7840462375 1.8974821136 2.0119052671 1.6743954455 1.7840462375 1.8974821136 2.0119052671 2.1243706857 
1.6743954455 1.7840462375 1.8974821136 2.0119052671 2.1243706857 2.232221744 1.6743954455 1.7840462375 1.8974821136 
2.0119052671 2.1243706857 2.232221744 2.3334263672 1.6743954455 1.7840462375 1.8974821136 2.0119052671 2.1243706857 
2.232221744 2.3334263672 2.426721652 1.4671972081 1.3575464161 1.4671972081 1.24411054 1.3575464161 1.4671972081 
1.1296873865 1.24411054 1.3575464161 1.4671972081 1.0172219679 1.1296873865 1.24411054 1.3575464161 1.4671972081 
0.90937090954 1.0172219679 1.1296873865 1.24411054 1.3575464161 1.4671972081 0.80816628637 0.90937090954 1.0172219679 
1.1296873865 1.24411054 1.3575464161 1.4671972081 0.71487100155 0.80816628637 0.90937090954 1.0172219679 1.1296873865 
1.24411054 1.3575464161 1.4671972081 0.60381225391 0.57404952988 0.69302191562 0.54002084522 0.66790778838 0.79216440667 
0.50083690068 0.63877777351 0.77356233629 0.90072551443 0.45538277901 0.60464862014 0.75168694275 0.89058134991 1.0172219679 
0.40226393329 0.56421707518 0.72561863695 0.87851444325 1.0172219679 1.139116835 0.33975332011 0.51573716537 0.69407236469 
0.86392567495 1.0172219679 1.1502619915 1.2630228569 0.26576171152 0.45685295248 0.6552068806 0.84594095064 1.0172219679 
1.1636342747 1.2852923014 1.3852070904 0.22715816343 0.3129712797 0.49462574053 0.49462574053 0.68021497688 0.77059342779 
1.0172219679 1.0172219679 1.0172219679 1.0172219679 2.1243706857 1.5707963268 1.3676273807 1.271087727 1.2156949949 
2.6469669131 2.1243706857 1.7739652728 1.5707963268 1.447813335 1.3676273807 2.8286213739 2.4613776767 2.1243706857 
1.8705049266 1.6937793186 1.5707963268 1.4827341049 2.9144344902 2.6469669131 2.3709992258 2.1243706857 1.9258976586 
1.7739652728 1.6588585487 1.5707963268 1.7563855631 1.8563003522 1.8785697967 1.9779583789 1.9913306621 2.0024758186 
2.1243706857 2.1243706857 2.1243706857 2.1243706857 2.295651703 2.2776669786 2.2630782103 2.2510113037 2.2408671392 
2.486385773 2.4475202889 2.4159740166 2.3899057108 2.3680303173 2.3494282469 2.6847397011 2.6258554882 2.5773755784 
2.5369440334 2.5028148801 2.4736848652 2.448570738 2.8758309421 2.8018393335 2.7393287203 2.6862098746 2.6407557529 
2.6015718084 2.5675431237 2.5377803997 5.8604937156 5.901393709 5.9723133995 5.9473927383 6.0216547488 6.0927478736 
5.9992719463 6.0767621038 6.1501452836 6.2190157008 6.0578962336 6.1383094565 6.2134963469 0 0.064169606361 
6.1241815303 6.206940195 6.2831853072 0.069688960264 0.13304002361 0.19043743361 6.1990255847 0 0.07624511221 
0.14487585072 0.20642320337 0.26153055843 0.3108719077 0 0.084159722458 0.15900377685 0.22528907359 0.28391336087 
0.3357925689 0.38179159818 0.42269159155 5.8604937156 5.9723133995 5.901393709 6.0927478736 6.0216547488 5.9473927383 
6.2190157008 6.1501452836 6.0767621038 5.9992719463 0.064169606361 0 6.2134963469 6.1383094565 6.0578962336 
0.19043743361 0.13304002361 0.069688960264 6.2831853072 6.206940195 6.1241815303 0.3108719077 0.26153055843 0.20642320337 
0.14487585072 0.07624511221 6.2831853072 6.1990255847 0.42269159155 0.38179159818 0.3357925689 0.28391336087 0.22528907359 
0.15900377685 0.084159722458 0 5.6793730533 5.7091357773 5.5901633916 5.743164462 5.6152775188 5.4910209005 
5.7823484065 5.6444075337 5.5096229709 5.3824597928 5.8278025282 5.678536687 5.5314983644 5.3926039573 5.2659633393 
5.8809213739 5.718968232 5.5575666702 5.4046708639 5.2659633393 5.1440684722 5.9434319871 5.7674481418 5.5891129425 
5.4192596322 5.2659633393 5.1329233157 5.0201624502 6.0174235957 5.8263323547 5.6279784266 5.4372443565 5.2659633393 
5.1195510325 4.9978930058 4.8979782167 1.3852070904 1.2852923014 1.2630228569 1.1636342747 1.1502619915 1.139116835 
1.0172219679 1.0172219679 1.0172219679 1.0172219679 0.84594095064 0.86392567495 0.87851444325 0.89058134991 0.90072551443 
0.6552068806 0.69407236469 0.72561863695 0.75168694275 0.77356233629 0.79216440667 0.45685295248 0.51573716537 0.56421707518 
0.60464862014 0.63877777351 0.66790778838 0.69302191562 0.26576171152 0.33975332011 0.40226393329 0.45538277901 0.50083690068 
0.54002084522 0.57404952988 0.60381225391 
_paraPhiHalf 1 1002 double
0 3.1415926536 0 3.1415926536 1.5707963268 1.5707963268 1.5707963268 1.5707963268 2.5880182947 
0.5535743589 2.5880182947 0.5535743589 0 0 0 0 3.1415926536 3.1415926536 
3.1415926536 3.1415926536 3.1415926536 0.17788134 0.38438696014 0.60631181711 0.82323535693 1.0172219679 1.1799687454 
1.3118704726 1.4175000338 1.5022335207 0.17788134 0.38438696014 0.60631181711 0.82323535693 1.0172219679 1.1799687454 
1.3118704726 1.4175000338 1.5022335207 0.093902416448 0.17615329733 0.2478725152 0.31035131605 0.36486382811 0.41257334776 
0.45449736604 0.4915044461 0.52432611754 0.093902416448 0.17615329733 0.2478725152 0.31035131605 0.36486382811 0.41257334776 
0.45449736604 0.4915044461 0.52432611754 2.9637113136 2.7572056934 2.5352808365 2.3183572967 2.1243706857 1.9616239082 
1.829722181 1.7240926197 1.6393591329 2.9637113136 2.7572056934 2.5352808365 2.3183572967 2.1243706857 1.9616239082 
1.829722181 1.7240926197 1.6393591329 3.0476902371 2.9654393563 2.8937201384 2.8312413375 2.7767288255 2.7290193058 
2.6870952876 2.6500882075 2.617266536 3.0476902371 2.9654393563 2.8937201384 2.8312413375 2.7767288255 2.7290193058 
2.6870952876 2.6500882075 2.617266536 0 0 0 0 3.1415926536 3.1415926536 
3.1415926536 3.1415926536 3.1415926536 0.17788134 0.38438696014 0.60631181711 0.82323535693 1.0172219679 1.1799687454 
1.3118704726 1.4175000338 1.5022335207 0.17788134 0.38438696014 0.60631181711 0.82323535693 1.0172219679 1.1799687454 
1.3118704726 1.4175000338 1.5022335207 0.093902416448 0.17615329733 0.2478725152 0.31035131605 0.36486382811 0.41257334776 
0.45449736604 0.4915044461 0.52432611754 0.093902416448 0.17615329733 0.2478725152 0.31035131605 0.36486382811 0.41257334776 
0.45449736604 0.4915044461 0.52432611754 2.9637113136 2.7572056934 2.5352808365 2.3183572967 2.1243706857 1.9616239082 
1.829722181 1.7240926197 1.6393591329 2.9637113136 2.7572056934 2.5352808365 2.3183572967 2.1243706857 1.9616239082 
1.829722181 1.7240926197 1.6393591329 3.0476902371 2.9654393563 2.8937201384 2.8312413375 2.7767288255 2.7290193058 
2.6870952876 2.6500882075 2.617266536 3.0476902371 2.9654393563 2.8937201384 2.8312413375 2.7767288255 2.7290193058 
2.6870952876 2.6500882075 2.617266536 1.5707963268 1.5707963268 1.5707963268 1.5707963268 1.5707963268 1.5707963268 
1.5707963268 1.5707963268 1.5707963268 1.6743954455 1.7840462375 1.8974821136 2.0119052671 2.1243706857 2.232221744 
2.3334263672 2.426721652 2.5115728246 1.4671972081 1.3575464161 1.24411054 1.1296873865 1.0172219679 0.90937090954 
0.80816628637 0.71487100155 0.63001982895 1.6743954455 1.7840462375 1.8974821136 2.0119052671 2.1243706857 2.232221744 
2.3334263672 2.426721652 2.5115728246 1.4671972081 1.3575464161 1.24411054 1.1296873865 1.0172219679 0.90937090954 
0.80816628637 0.71487100155 0.63001982895 1.5707963268 1.5707963268 1.5707963268 1.5707963268 1.5707963268 1.5707963268 
1.5707963268 1.5707963268 1.5707963268 1.6743954455 1.7840462375 1.8974821136 2.0119052671 2.1243706857 2.232221744 
2.3334263672 2.426721652 2.5115728246 1.4671972081 1.3575464161 1.24411054 1.1296873865 1.0172219679 0.90937090954 
0.80816628637 0.71487100155 0.63001982895 1.6743954455 1.7840462375 1.8974821136 2.0119052671 2.1243706857 2.232221744 
2.3334263672 2.426721652 2.5115728246 1.4671972081 1.3575464161 1.24411054 1.1296873865 1.0172219679 0.90937090954 
0.80816628637 0.71487100155 0.63001982895 2.6824132222 2.7864913217 2.8992382033 3.0186096618 3.1415926536 3.0186096618 
2.8992382033 2.7864913217 2.6824132222 0.45917943135 0.35510133185 0.2423544503 0.12298299178 0 0.12298299178 
0.2423544503 0.35510133185 0.45917943135 0.22715816343 0.49462574053 0.3129712797 0.77059342779 0.68021497688 0.49462574053 
1.0172219679 1.0172219679 1.0172219679 1.0172219679 1.2156949949 1.271087727 1.3676273807 1.5707963268 2.1243706857 
1.3676273807 1.447813335 1.5707963268 1.7739652728 2.1243706857 2.6469669131 1.4827341049 1.5707963268 1.6937793186 
1.8705049266 2.1243706857 2.4613776767 2.8286213739 1.5707963268 1.6588585487 1.7739652728 1.9258976586 2.1243706857 
2.3709992258 2.6469669131 2.9144344902 0.26576171152 0.33975332011 0.45685295248 0.40226393329 0.51573716537 0.6552068806 
0.45538277901 0.56421707518 0.69407236469 0.84594095064 0.50083690068 0.60464862014 0.72561863695 0.86392567495 1.0172219679 
0.54002084522 0.63877777351 0.75168694275 0.87851444325 1.0172219679 1.1636342747 0.57404952988 0.66790778838 0.77356233629 
0.89058134991 1.0172219679 1.1502619915 1.2852923014 0.60381225391 0.69302191562 0.79216440667 0.90072551443 1.0172219679 
1.139116835 1.2630228569 1.3852070904 0.71487100155 0.80816628637 0.80816628637 0.90937090954 0.90937090954 0.90937090954 
1.0172219679 1.0172219679 1.0172219679 1.0172219679 1.1296873865 1.1296873865 1.1296873865 1.1296873865 1.1296873865 
1.24411054 1.24411054 1.24411054 1.24411054 1.24411054 1.24411054 1.3575464161 1.3575464161 1.3575464161 
1.3575464161 1.3575464161 1.3575464161 1.3575464161 1.4671972081 1.4671972081 1.4671972081 1.4671972081 1.4671972081 
1.4671972081 1.4671972081 1.4671972081 1.6743954455 1.6743954455 1.7840462375 1.6743954455 1.7840462375 1.8974821136 
1.6743954455 1.7840462375 1.8974821136 2.0119052671 1.6743954455 1.7840462375 1.8974821136 2.0119052671 2.1243706857 
1.6743954455 1.7840462375 1.8974821136 2.0119052671 2.1243706857 2.232221744 1.6743954455 1.7840462375 1.8974821136 
2.0119052671 2.1243706857 2.232221744 2.3334263672 1.6743954455 1.7840462375 1.8974821136 2.0119052671 2.1243706857 
2.232221744 2.3334263672 2.426721652 1.7563855631 1.8785697967 1.8563003522 2.0024758186 1.9913306621 1.9779583789 
2.1243706857 2.1243706857 2.1243706857 2.1243706857 2.2408671392 2.2510113037 2.2630782103 2.2776669786 2.295651703 
2.3494282469 2.3680303173 2.3899057108 2.4159740166 2.4475202889 2.486385773 2.448570738 2.4736848652 2.5028148801 
2.5369440334 2.5773755784 2.6258554882 2.6847397011 2.5377803997 2.5675431237 2.6015718084 2.6407557529 2.6862098746 
2.7393287203 2.8018393335 2.8758309421 2.718901062 2.8307207459 2.7598010554 2.95115522 2.8800620952 2.8058000847 
3.0774230472 3.00855263 2.9351694502 2.8576792927 3.0774230472 3.1415926536 3.0719036933 2.9967168029 2.91630358 
2.95115522 3.00855263 3.0719036933 3.1415926536 3.0653475414 2.9825888767 2.8307207459 2.8800620952 2.9351694502 
2.9967168029 3.0653475414 3.1415926536 3.0574329311 2.718901062 2.7598010554 2.8058000847 2.8576792927 2.91630358 
2.9825888767 3.0574329311 3.1415926536 2.718901062 2.7598010554 2.8307207459 2.8058000847 2.8800620952 2.95115522 
2.8576792927 2.9351694502 3.00855263 3.0774230472 2.91630358 2.9967168029 3.0719036933 3.1415926536 3.0774230472 
2.9825888767 3.0653475414 3.1415926536 3.0719036933 3.00855263 2.95115522 3.0574329311 3.1415926536 3.0653475414 