# vtk DataFile Version 5.1
vtk output
ASCII
DATASET POLYDATA
POINTS 100 float
27.0744 42.8907 10.4247 27.0509 42.8732 10.434 26.982 42.8192 10.4573 
26.8712 42.7322 10.4935 26.724 42.6174 10.5411 26.5476 42.4817 10.5982 
26.3498 42.3326 10.6622 26.1389 42.1777 10.7306 25.9224 42.0241 10.8007 
25.7068 41.8777 10.8699 25.497 41.7428 10.9358 25.2962 41.6217 10.9962 
25.1056 41.5149 11.0495 24.9246 41.4209 11.0946 24.7513 41.3367 11.131 
24.5827 41.2581 11.1587 24.4151 41.1806 11.1783 24.2449 41.0995 11.191 
24.0687 41.0106 11.1983 23.884 40.9108 11.2019 23.6891 40.7982 11.2038 
23.4833 40.672 11.2059 23.267 40.5332 11.21 23.0413 40.3835 11.2178 
22.8078 40.2258 11.2303 22.5686 40.0632 11.2485 22.3256 39.899 11.2725 
22.0805 39.7361 11.3025 21.8346 39.5769 11.338 21.5889 39.4226 11.3783 
21.3437 39.2739 11.4225 21.0993 39.1302 11.4695 20.8554 38.9901 11.5184 
20.6119 38.8517 11.5683 20.3686 38.7128 11.6186 20.1259 38.571 11.6686 
19.8839 38.4245 11.7183 19.6435 38.2715 11.7675 19.4054 38.1114 11.8166 
19.1705 37.9438 11.8657 18.9396 37.7694 11.9154 18.7132 37.589 11.966 
18.4915 37.4043 12.018 18.2739 37.2169 12.0715 18.0596 37.0284 12.1266 
17.8471 36.8402 12.1835 17.6349 36.6533 12.2418 17.4211 36.4683 12.3013 
17.2039 36.2853 12.3618 16.9818 36.1039 12.4228 16.7539 35.9235 12.4841 
16.5198 35.7429 12.5455 16.2799 35.5614 12.6069 16.0352 35.378 12.6683 
15.7873 35.1921 12.7298 15.5381 35.0034 12.7917 15.2896 34.812 12.8543 
15.0439 34.6185 12.918 14.8025 34.4238 12.9829 14.5665 34.2289 13.0494 
14.3361 34.0352 13.1174 14.1111 33.8439 13.187 13.8904 33.6564 13.2578 
13.6725 33.4735 13.3296 13.4553 33.2961 13.4018 13.237 33.1246 13.474 
13.0156 32.9592 13.5454 12.7897 32.7996 13.6156 12.5583 32.6455 13.684 
12.3212 32.4963 13.7502 12.0787 32.3516 13.8141 11.8321 32.2107 13.8755 
11.5828 32.073 13.9346 11.3328 31.9383 13.9914 11.084 31.8062 14.0465 
10.8385 31.6767 14.1002 10.5979 31.5498 14.153 10.3637 31.4257 14.2056 
10.1365 31.3045 14.2584 9.91686 31.1865 14.312 9.70475 31.072 14.3666 
9.49985 30.9611 14.4227 9.3017 30.8541 14.4805 9.10984 30.7511 14.5398 
8.92394 30.6523 14.6008 8.74391 30.5577 14.6631 8.56997 30.4676 14.7264 
8.40269 30.3821 14.7902 8.24294 30.3013 14.8539 8.09185 30.2255 14.9166 
7.95072 30.1551 14.9775 7.82088 30.0903 15.0357 7.70364 30.0316 15.0901 
7.60018 29.9795 15.1397 7.51149 29.9342 15.1835 7.43836 29.8963 15.2206 
7.38134 29.8661 15.25 7.34081 29.844 15.2711 7.31696 29.83 15.2833 
7.30985 29.8245 15.2862 
LINES 2 100
OFFSETS vtktypeint64
0 100 
CONNECTIVITY vtktypeint64
0 1 2 3 4 5 6 7 8 
9 10 11 12 13 14 15 16 17 
18 19 20 21 22 23 24 25 26 
27 28 29 30 31 32 33 34 35 
36 37 38 39 40 41 42 43 44 
45 46 47 48 49 50 51 52 53 
54 55 56 57 58 59 60 61 62 
63 64 65 66 67 68 69 70 71 
72 73 74 75 76 77 78 79 80 
81 82 83 84 85 86 87 88 89 
90 91 92 93 94 95 96 97 98 
99 
POINT_DATA 100
FIELD FieldData 3
_theta 1 100 double
0 0.031733259127 0.063466518254 0.095199777382 0.12693303651 0.15866629564 0.19039955476 0.22213281389 0.25386607302 
0.28559933214 0.31733259127 0.3490658504 0.38079910953 0.41253236865 0.44426562778 0.47599888691 0.50773214603 0.53946540516 
0.57119866429 0.60293192342 0.63466518254 0.66639844167 0.6981317008 0.72986495992 0.76159821905 0.79333147818 0.82506473731 
0.85679799643 0.88853125556 0.92026451469 0.95199777382 0.98373103294 1.0154642921 1.0471975512 1.0789308103 1.1106640695 
1.1423973286 1.1741305877 1.2058638468 1.237597106 1.2693303651 1.3010636242 1.3327968833 1.3645301425 1.3962634016 
1.4279966607 1.4597299198 1.491463179 1.5231964381 1.5549296972 1.5866629564 1.6183962155 1.6501294746 1.6818627337 
1.7135959929 1.745329252 1.7770625111 1.8087957702 1.8405290294 1.8722622885 1.9039955476 1.9357288068 1.9674620659 
1.999195325 2.0309285841 2.0626618433 2.0943951024 2.1261283615 2.1578616206 2.1895948798 2.2213281389 2.253061398 
2.2847946572 2.3165279163 2.3482611754 2.3799944345 2.4117276937 2.4434609528 2.4751942119 2.506927471 2.5386607302 
2.5703939893 2.6021272484 2.6338605076 2.6655937667 2.6973270258 2.7290602849 2.7607935441 2.7925268032 2.8242600623 
2.8559933214 2.8877265806 2.9194598397 2.9511930988 2.982926358 3.0146596171 3.0463928762 3.0781261353 3.1098593945 
3.1415926536 
_radius 1 100 double
6.0500533884e-14 0.22266841373 0.44449346796 0.66467487373 0.88273093858 1.0983953275 1.3113758651 1.5210962383 1.7265297745 
1.9261873008 2.1182698798 2.300951479 2.4727197612 2.6326843643 2.7807693737 2.9177377079 3.0450384602 3.1645121599 
3.2780256952 3.3871307999 3.4928366977 3.5955509741 3.6951818427 3.7913387211 3.8835478281 3.9714231832 4.0547785988 
4.1337004957 4.2086056011 4.2802848592 4.3499056201 4.4189328524 4.4889485999 4.5613876192 4.6372435994 4.7168160512 
4.7995584335 4.8840613296 4.9681729269 5.0492321284 5.1243718136 5.1908431881 5.2463172973 5.2891328393 5.3184727717 
5.3344600139 5.3381650969 5.3315205963 5.3171427295 5.2980703978 5.2774445136 5.2581633995 5.2425604611 5.2321535925 
5.2275070473 5.2282253615 5.233071928 5.2401820349 5.247328317 5.2521962906 5.2526357704 5.2468660179 5.2336236488 
5.2122487539 5.1827056984 5.1455339994 5.1017264361 5.0525390718 4.9992505829 4.942902651 4.8840640644 4.8226637425 
4.7579298625 4.6884548664 4.6123827757 4.5276902394 4.4325111634 4.3254424003 4.2057695693 4.0735690066 3.9296706702 
3.7754993283 3.6128366257 3.4435560219 3.2693757355 3.0916596544 2.911281227 2.7285529147 2.5432130672 2.3544564645 
2.1610001031 1.9611910191 1.753176416 1.5351536323 1.3056927061 1.0640863639 0.81065061522 0.54689173825 0.27547809431 
4.7515785718e-14 
_area 1 100 double
0 0.13209156198 0.53542209407 1.2275166336 2.2264262331 3.5379242813 5.1453150478 7.0067548533 9.0616658546 
11.243576061 13.493749929 15.769945183 18.047734995 20.316182909 22.572276498 24.817794818 27.05934756 29.309697767 
31.587903503 33.917315437 36.32101153 38.812236878 41.350820989 43.853515956 46.235387807 48.437084667 50.428089511 
52.206961641 53.803202557 55.274813265 56.711520321 58.274922258 60.032959973 62.039170339 64.29631597 66.794674028 
69.499588223 72.34543069 75.239333231 78.070604013 80.723273309 83.089631622 85.082833546 86.646626112 87.760424167 
88.43883497 88.726202112 88.688070482 88.402010294 87.949781559 87.41162063 86.862075265 86.366145565 85.975047098 
85.722029537 85.619094127 85.655271574 85.797208586 85.992641833 86.176317078 86.277015519 86.224617099 85.957128536 
85.427951434 84.612689721 83.513357902 82.157497848 80.591197102 78.86752351 77.033718281 75.120602503 73.136557653 
71.067096639 68.879749905 66.532717973 63.984800771 61.20408439 58.173919264 54.896224429 51.393041813 47.706906665 
43.89936769 40.046119062 36.227884246 32.518401072 28.973138297 25.623000289 22.475444366 19.521786431 16.746431869 
14.133970115 11.673289496 9.3608666292 7.2052847024 5.2322084855 3.4865148233 2.0286048958 0.92482753642 0.23487996742 
1.4210854715e-14 
