# vtk DataFile Version 5.1
vtk output
ASCII
DATASET POLYDATA
POINTS 1002 float
14.0998 30.4149 8.62548 21.4876 36.343 9.25875 10.2081 34.6289 17.5559 
19.4184 38.8988 15.3725 13.846 39.1671 5.96035 11.2244 42.001 12.1538 
20.3181 29.342 13.4263 18.697 32.0054 18.9418 20.8119 43.2435 10.8211 
8.78776 33.2356 11.0479 25.8212 37.6958 16.0967 11.9448 28.034 15.1605 
14.7843 30.923 8.778 15.4679 31.3656 8.79732 16.1643 31.7723 8.7103 
16.945 32.2596 8.67567 17.7842 32.8888 8.75524 18.5513 33.6078 8.84179 
19.2316 34.3582 8.88918 19.9422 35.1035 8.97311 20.7229 35.7821 9.11627 
13.9269 31.037 8.37803 13.7128 31.8015 8.06113 13.5431 32.6423 7.54144 
13.5687 33.4742 6.91871 13.7675 34.3331 6.53985 13.8828 35.3309 6.49943 
13.7822 36.4327 6.46181 13.6454 37.4731 6.22225 13.6699 38.3727 5.97871 
14.6837 30.1872 9.03683 15.3271 29.895 9.5008 16.1403 29.4244 9.89116 
17.2527 28.7925 10.0714 18.586 28.2476 10.1554 19.7371 28.0494 10.4918 
20.3064 28.2126 11.2256 20.3371 28.5757 12.1143 20.2326 28.9829 12.8685 
13.2916 30.2102 8.2574 12.4719 30.0285 7.95322 11.7285 30.0294 7.93124 
11.0096 30.3108 8.23989 10.2212 30.7556 8.6222 9.47614 31.1756 8.9033 
9.0148 31.5684 9.2697 8.87177 32.0509 9.87311 8.85356 32.6375 10.5417 
13.7709 29.7316 8.70636 13.4611 29.0601 8.93669 13.2212 28.4845 9.35283 
13.0252 28.1 9.93828 12.8029 27.981 10.762 12.5668 28.0705 11.8422 
12.3853 28.1818 12.9285 12.2504 28.1871 13.777 12.1048 28.1115 14.4588 
20.8514 36.6332 9.04395 20.0805 36.9333 8.79189 19.2146 37.2267 8.429 
18.3653 37.5291 7.94089 17.6607 37.8504 7.35412 17.0702 38.1528 6.71909 
16.4025 38.4121 6.17426 15.5606 38.6599 5.88009 14.6551 38.9193 5.84844 
21.5846 35.7337 9.45029 21.5751 35.1155 9.82897 21.3778 34.5429 10.4298 
21.0637 33.9464 11.064 20.8824 33.1241 11.5452 20.951 32.037 11.9445 
21.055 30.968 12.3761 20.9454 30.1934 12.7809 20.6394 29.7046 13.1067 
21.8542 37.042 9.22185 22.1499 37.8361 9.13579 22.2807 38.7425 9.10089 
22.2123 39.6298 9.29919 21.9976 40.3228 9.74167 21.7504 40.8851 10.1482 
21.563 41.5432 10.2917 21.4074 42.3063 10.3076 21.1736 42.9357 10.4632 
22.2798 36.4682 9.49864 23.0229 36.5666 9.80823 23.6313 36.6961 10.2907 
24.0218 36.9696 11.0955 24.2192 37.4151 12.1858 24.3906 37.857 13.2579 
24.6803 38.0533 14.0806 25.0813 37.9661 14.7337 25.4963 37.7831 15.3938 
10.824 35.2902 17.4643 11.5401 35.8868 17.2343 12.4238 36.384 16.9283 
13.4575 36.8048 16.6379 14.4817 37.1833 16.3506 15.4387 37.5095 15.9777 
16.4685 37.7741 15.563 17.5985 38.0422 15.2885 18.6341 38.4103 15.2499 
10.0724 35.4103 17.1955 9.97404 36.3614 16.9084 9.93373 37.3868 16.6962 
9.95384 38.2888 16.276 10.0708 38.9371 15.4441 10.3314 39.445 14.4796 
10.6728 40.0302 13.7585 10.95 40.7322 13.2465 11.1082 41.4218 12.7253 
10.7738 34.3192 17.7874 11.4211 33.915 17.7479 12.106 33.4394 17.5206 
12.9613 33.0388 17.4045 14.1927 32.8242 17.5444 15.6707 32.7076 17.7424 
16.9266 32.5431 17.8741 17.7101 32.3264 18.1027 18.2087 32.1347 18.5152 
9.58302 34.3313 17.2313 9.14129 33.9859 16.6755 8.90583 33.7283 16.0487 
8.64933 33.6481 15.4697 8.20402 33.7009 14.802 7.8227 33.7565 13.8865 
7.84765 33.7118 12.904 8.20599 33.5573 12.1418 8.57544 33.3686 11.5902 
9.89755 33.7654 17.7833 9.49962 32.8404 17.9366 9.09797 31.7421 17.9281 
8.83304 30.4153 17.8506 8.75473 29.1081 17.9047 8.87067 28.2333 17.9851 
9.28751 27.9084 17.6839 10.0619 27.8988 16.8825 11.0282 27.9675 15.9228 
18.8395 38.9834 14.8652 18.0943 39.098 14.3751 17.0866 39.2928 13.9896 
15.9223 39.677 13.774 14.894 40.3194 13.7164 14.1156 41.0659 13.6941 
13.3866 41.6316 13.5479 12.5674 41.9067 13.2084 11.7886 41.9923 12.7172 
19.5467 38.4586 15.7839 19.6316 38.0116 16.2278 19.6425 37.5866 16.673 
19.6337 37.0453 17.0934 19.6491 36.2805 17.4983 19.5806 35.4518 17.8761 
19.3262 34.7203 18.1849 18.9986 33.964 18.4411 18.7771 33.0319 18.6972 
19.7088 39.4999 15.2253 19.9849 40.1029 15.0481 20.3267 40.6843 14.7857 
20.6799 41.2944 14.4443 20.8609 41.9365 14.1374 20.8327 42.493 13.8761 
20.778 42.8784 13.4261 20.8128 43.127 12.6285 20.8603 43.2626 11.6618 
20.1662 39.2264 15.7793 21.0143 39.5522 16.0959 22.0386 39.753 16.2937 
23.1619 39.8817 16.5674 24.216 40.0637 17.0566 25.111 40.1473 17.5295 
25.795 39.8051 17.6134 26.1548 39.0465 17.2402 26.1297 38.2455 16.651 
13.5575 39.7912 6.23745 13.2962 40.4154 6.70771 12.9721 40.9882 7.22323 
12.554 41.4827 7.69819 12.1263 41.9312 8.2335 11.7546 42.337 8.93694 
11.4277 42.5819 9.75342 11.1829 42.5562 10.5869 11.1094 42.3145 11.3994 
14.5291 39.8566 6.00616 15.1658 40.7286 6.02857 15.7056 41.6987 6.01088 
16.2251 42.4422 6.19234 16.804 42.6645 6.87448 17.4764 42.5387 7.94342 
18.2948 42.5341 8.92727 19.232 42.8016 9.60161 20.1174 43.1067 10.1581 
12.9776 38.917 6.03281 12.1825 38.5565 6.20909 11.5608 37.9615 6.66473 
11.0529 37.1825 7.31056 10.474 36.4546 7.79957 9.79531 35.8671 8.10227 
9.2344 35.2439 8.61189 8.95313 34.4934 9.46944 8.86462 33.7709 10.3705 
11.7207 42.483 11.9228 12.4573 42.8595 11.6846 13.3843 43.1443 11.4598 
14.3225 43.2744 11.2131 15.2291 43.0933 10.9577 16.2814 42.7078 10.8062 
17.5454 42.5582 10.7972 18.8281 42.8227 10.8251 19.9316 43.1724 10.8181 
10.7642 41.5975 11.8862 10.3634 41.0925 11.568 9.91809 40.4976 11.2882 
9.45953 39.6976 11.1014 9.1339 38.5739 10.9561 8.94237 37.258 10.8209 
8.78538 36.0371 10.786 8.69385 35.0155 10.8944 8.72183 34.1026 11.0279 
20.3985 29.2724 14.0109 20.6539 29.1388 14.8226 20.8498 29.084 15.828 
20.7885 29.241 16.7567 20.5602 29.5727 17.4595 20.3373 29.919 18.1058 
20.0571 30.245 18.7658 19.6081 30.6843 19.1963 19.0937 31.3058 19.2195 
20.7941 29.9491 13.7159 21.3731 30.7199 14.0355 21.9056 31.6154 14.3698 
22.407 32.5448 14.7103 23.0373 33.4866 15.0589 23.7581 34.4942 15.4015 
24.3762 35.5109 15.6892 24.8843 36.3749 15.8826 25.378 37.0575 16.0012 
19.9262 28.7986 13.5408 19.6281 28.188 13.7839 19.3242 27.5293 14.072 
18.6653 27.0382 14.3035 17.4813 26.9175 14.4851 16.1216 27.1302 14.664 
15.0028 27.4892 14.7981 14.0857 27.82 14.8636 13.0972 28.0082 14.9555 
19.3245 32.5952 19.0973 20.1754 33.2845 19.0963 21.2208 34.0028 19.0075 
22.2407 34.6817 18.9279 23.078 35.2967 18.7872 23.8507 35.8597 18.4436 
24.6689 36.3749 17.9234 25.3662 36.8401 17.3422 25.7422 37.2726 16.7338 
18.2889 31.0539 18.8955 17.6908 30.1949 18.6985 16.8996 29.5721 18.3101 
16.1131 29.1878 17.8364 15.4534 28.8672 17.4562 14.7934 28.4892 17.1879 
14.0324 28.1534 16.8623 13.2597 27.9942 16.3666 12.565 27.9903 15.762 
21.6727 43.0637 11.3914 22.6292 42.7174 12.0921 23.7314 42.5533 12.7522 
24.8211 42.7233 13.2377 25.6037 42.7442 13.6089 25.9685 42.0337 14.0354 
26.0691 40.7339 14.5846 26.068 39.4364 15.1763 25.9934 38.4437 15.6979 
8.67759 32.4441 11.3033 8.39975 31.6216 11.5363 8.02761 30.7168 11.941 
7.75185 29.7264 12.581 7.69044 28.7895 13.2545 7.88332 28.1303 13.7786 
8.44978 27.8608 14.2041 9.46166 27.8795 14.6026 10.7308 27.9852 14.9304 
14.6495 31.5689 8.47047 14.4661 32.3402 8.03629 15.4017 31.9681 8.35305 
14.3322 33.1855 7.44216 15.2889 32.7333 7.8461 16.1961 32.3517 8.17164 
14.3773 34.0436 6.91741 15.1986 33.6742 7.38254 16.1518 33.231 7.7682 
17.0211 32.9484 8.19944 14.5339 34.9655 6.70475 15.2307 34.7079 7.10893 
16.0682 34.403 7.56266 16.9478 34.0506 8.00501 17.7687 33.7823 8.44097 
14.602 36.0089 6.62999 15.3481 35.7666 6.95362 16.071 35.6113 7.40026 
16.826 35.3567 7.90658 17.6076 35.0018 8.36175 18.4196 34.6491 8.67037 
14.565 37.0743 6.38383 15.4454 36.7988 6.66749 16.1838 36.6583 7.07922 
16.8316 36.484 7.61111 17.5087 36.1724 8.17296 18.2827 35.786 8.59147 
19.129 35.4104 8.80947 14.5654 38.043 6.03385 15.508 37.7561 6.23096 
16.3193 37.5546 6.60755 16.9565 37.3564 7.14289 17.5673 37.0736 7.75627 
18.2956 36.7332 8.3184 19.1329 36.3912 8.70615 19.976 36.0666 8.92759 
13.0633 30.9095 7.98919 12.2379 30.7917 7.66879 12.8411 31.7556 7.62444 
11.5223 30.8673 7.67443 12.064 31.6915 7.30581 12.7744 32.6666 7.08237 
10.8312 31.2301 7.98465 11.3767 31.8439 7.37192 12.0915 32.7192 6.90257 
12.9534 33.6297 6.60588 10.105 31.7327 8.29242 10.6703 32.2988 7.67255 
11.3736 33.0333 7.14715 12.2783 33.9314 6.72895 13.1552 34.7284 6.49158 
9.48209 32.2124 8.55976 9.96302 32.8811 7.90891 10.5849 33.5807 7.47902 
11.441 34.4174 7.15531 12.3377 35.2762 6.80379 13.0926 35.9427 6.54661 
9.11142 32.695 9.04091 9.41237 33.4473 8.20288 9.89541 34.1698 7.69272 
10.627 34.9186 7.48481 11.4487 35.7663 7.19426 12.1778 36.5474 6.74769 
12.8684 37.0968 6.39805 8.95202 33.2319 9.73394 9.09731 33.9921 8.77122 
9.45363 34.7302 8.03035 10.0788 35.3821 7.71569 10.8039 36.1035 7.4772 
11.4456 36.9242 6.98474 12.0595 37.6258 6.44195 12.7987 38.0784 6.12022 
8.83772 34.7593 10.2831 8.92865 35.7942 10.1412 9.06554 35.5648 9.41401 
9.12068 36.9334 10.0918 9.34802 36.6641 9.42992 9.56956 36.3126 8.72978 
9.30114 38.2144 10.1772 9.62093 37.8626 9.53652 9.98165 37.458 8.93727 
10.2609 36.9378 8.30792 9.52706 39.4775 10.3003 9.78027 39.1529 9.62864 
10.1924 38.7647 9.07374 10.6041 38.2245 8.45254 10.8662 37.6255 7.79378 
9.91215 40.5069 10.4411 10.0094 40.3449 9.66983 10.2706 40.0876 9.05714 
10.6897 39.6704 8.44987 11.0952 39.0493 7.7262 11.3471 38.4268 7.06115 
10.3481 41.2772 10.6883 10.3972 41.2896 9.81006 10.5218 41.1607 9.06104 
10.8065 40.9013 8.42086 11.2506 40.4201 7.75082 11.6593 39.756 7.04628 
11.9245 39.1073 6.48809 10.7184 41.872 11.0421 10.8009 42.0104 10.1477 
10.9641 41.9478 9.29995 11.2033 41.7188 8.56472 11.5851 41.35 7.93676 
12.0548 40.8182 7.34389 12.4357 40.1739 6.75964 12.6982 39.5254 6.28442 
14.2177 40.5427 6.43794 13.897 41.1363 6.9719 14.7823 41.4466 6.46417 
13.5351 41.5945 7.439 14.3946 41.9532 6.93706 15.2549 42.3681 6.34676 
13.1384 42.0387 7.92314 14.0265 42.3373 7.43364 14.8072 42.7784 6.83784 
15.7428 42.9521 6.5598 12.718 42.5795 8.64242 13.6543 42.8606 8.18366 
14.399 43.1904 7.6145 15.2167 43.2871 7.2842 16.3202 43.0038 7.44018 
12.2677 43.0338 9.54679 13.2255 43.4501 9.22327 14.0186 43.7575 8.74298 
14.7366 43.7068 8.36697 15.7572 43.2804 8.35233 17.0655 42.821 8.61254 
[...]
POINT_DATA 1002
FIELD FieldData 4
_paraPhi 1 1002 double
6.2831853072 3.1415926536 6.2831853072 3.1415926536 4.7123889804 4.7123889804 1.5707963268 1.5707963268 3.6951670125 
5.7296109483 2.5880182947 0.5535743589 6.2831853072 6.2831853072 6.2831853072 6.2831853072 3.1415926536 3.1415926536 
3.1415926536 3.1415926536 3.1415926536 6.1053039672 5.898798347 5.6768734901 5.4599499503 5.2659633393 5.1032165617 
4.9713148346 4.8656852733 4.7809517865 0.17788134 0.38438696014 0.60631181711 0.82323535693 1.0172219679 1.1799687454 
1.3118704726 1.4175000338 1.5022335207 6.1892828907 6.1070320098 6.035312792 5.9728339911 5.9183214791 5.8706119594 
5.8286879411 5.7916808611 5.7588591896 0.093902416448 0.17615329733 0.2478725152 0.31035131605 0.36486382811 0.41257334776 
0.45449736604 0.4915044461 0.52432611754 3.3194739936 3.5259796137 3.7479044707 3.9648280105 4.1588146215 4.321561399 
4.4534631262 4.5590926874 4.6438261743 2.9637113136 2.7572056934 2.5352808365 2.3183572967 2.1243706857 1.9616239082 
1.829722181 1.7240926197 1.6393591329 3.23549507 3.3177459509 3.3894651688 3.4519439696 3.5064564817 3.5541660013 
3.5960900196 3.6330970997 3.6659187711 3.0476902371 2.9654393563 2.8937201384 2.8312413375 2.7767288255 2.7290193058 
2.6870952876 2.6500882075 2.617266536 6.2831853072 6.2831853072 6.2831853072 6.2831853072 3.1415926536 3.1415926536 
3.1415926536 3.1415926536 3.1415926536 6.1053039672 5.898798347 5.6768734901 5.4599499503 5.2659633393 5.1032165617 
4.9713148346 4.8656852733 4.7809517865 0.17788134 0.38438696014 0.60631181711 0.82323535693 1.0172219679 1.1799687454 
1.3118704726 1.4175000338 1.5022335207 6.1892828907 6.1070320098 6.035312792 5.9728339911 5.9183214791 5.8706119594 
5.8286879411 5.7916808611 5.7588591896 0.093902416448 0.17615329733 0.2478725152 0.31035131605 0.36486382811 0.41257334776 
0.45449736604 0.4915044461 0.52432611754 3.3194739936 3.5259796137 3.7479044707 3.9648280105 4.1588146215 4.321561399 
4.4534631262 4.5590926874 4.6438261743 2.9637113136 2.7572056934 2.5352808365 2.3183572967 2.1243706857 1.9616239082 
1.829722181 1.7240926197 1.6393591329 3.23549507 3.3177459509 3.3894651688 3.4519439696 3.5064564817 3.5541660013 
3.5960900196 3.6330970997 3.6659187711 3.0476902371 2.9654393563 2.8937201384 2.8312413375 2.7767288255 2.7290193058 
2.6870952876 2.6500882075 2.617266536 4.7123889804 4.7123889804 4.7123889804 4.7123889804 4.7123889804 4.7123889804 
4.7123889804 4.7123889804 4.7123889804 4.6087898617 4.4991390697 4.3857031936 4.2712800401 4.1588146215 4.0509635631 
3.94975894 3.8564636551 3.7716124825 4.8159880991 4.9256388911 5.0390747672 5.1534979207 5.2659633393 5.3738143976 
5.4750190208 5.5683143056 5.6531654782 4.6087898617 4.4991390697 4.3857031936 4.2712800401 4.1588146215 4.0509635631 
3.94975894 3.8564636551 3.7716124825 4.8159880991 4.9256388911 5.0390747672 5.1534979207 5.2659633393 5.3738143976 
5.4750190208 5.5683143056 5.6531654782 1.5707963268 1.5707963268 1.5707963268 1.5707963268 1.5707963268 1.5707963268 
1.5707963268 1.5707963268 1.5707963268 1.6743954455 1.7840462375 1.8974821136 2.0119052671 2.1243706857 2.232221744 
2.3334263672 2.426721652 2.5115728246 1.4671972081 1.3575464161 1.24411054 1.1296873865 1.0172219679 0.90937090954 
0.80816628637 0.71487100155 0.63001982895 1.6743954455 1.7840462375 1.8974821136 2.0119052671 2.1243706857 2.232221744 
2.3334263672 2.426721652 2.5115728246 1.4671972081 1.3575464161 1.24411054 1.1296873865 1.0172219679 0.90937090954 
0.80816628637 0.71487100155 0.63001982895 3.6007720849 3.4966939854 3.3839471039 3.2645756454 3.1415926536 3.0186096618 
2.8992382033 2.7864913217 2.6824132222 5.8240058758 5.9280839753 6.0408308569 6.1602023154 6.2831853072 0.12298299178 
0.2423544503 0.35510133185 0.45917943135 6.0560271438 5.7885595667 5.9702140275 5.5125918794 5.6029703303 5.7885595667 
5.2659633393 5.2659633393 5.2659633393 5.2659633393 5.0674903122 5.0120975802 4.9155579264 4.7123889804 4.1588146215 
4.9155579264 4.8353719722 4.7123889804 4.5092200343 4.1588146215 3.6362183941 4.8004512023 4.7123889804 4.5894059886 
4.4126803806 4.1588146215 3.8218076305 3.4545639333 4.7123889804 4.6243267584 4.5092200343 4.3572876485 4.1588146215 
3.9121860814 3.6362183941 3.368750817 6.0174235957 5.9434319871 5.8263323547 5.8809213739 5.7674481418 5.6279784266 
5.8278025282 5.718968232 5.5891129425 5.4372443565 5.7823484065 5.678536687 5.5575666702 5.4192596322 5.2659633393 
5.743164462 5.6444075337 5.5314983644 5.4046708639 5.2659633393 5.1195510325 5.7091357773 5.6152775188 5.5096229709 
5.3926039573 5.2659633393 5.1329233157 4.9978930058 5.6793730533 5.5901633916 5.4910209005 5.3824597928 5.2659633393 
5.1440684722 5.0201624502 4.8979782167 5.5683143056 5.4750190208 5.4750190208 5.3738143976 5.3738143976 5.3738143976 
5.2659633393 5.2659633393 5.2659633393 5.2659633393 5.1534979207 5.1534979207 5.1534979207 5.1534979207 5.1534979207 
5.0390747672 5.0390747672 5.0390747672 5.0390747672 5.0390747672 5.0390747672 4.9256388911 4.9256388911 4.9256388911 
4.9256388911 4.9256388911 4.9256388911 4.9256388911 4.8159880991 4.8159880991 4.8159880991 4.8159880991 4.8159880991 
4.8159880991 4.8159880991 4.8159880991 4.6087898617 4.6087898617 4.4991390697 4.6087898617 4.4991390697 4.3857031936 
4.6087898617 4.4991390697 4.3857031936 4.2712800401 4.6087898617 4.4991390697 4.3857031936 4.2712800401 4.1588146215 
4.6087898617 4.4991390697 4.3857031936 4.2712800401 4.1588146215 4.0509635631 4.6087898617 4.4991390697 4.3857031936 
4.2712800401 4.1588146215 4.0509635631 3.94975894 4.6087898617 4.4991390697 4.3857031936 4.2712800401 4.1588146215 
4.0509635631 3.94975894 3.8564636551 4.526799744 4.4046155105 4.426884955 4.2807094886 4.2918546451 4.3052269283 
4.1588146215 4.1588146215 4.1588146215 4.1588146215 4.042318168 4.0321740035 4.0201070968 4.0055183285 3.9875336042 
3.9337570603 3.9151549899 3.8932795963 3.8672112905 3.8356650183 3.7967995342 3.8346145692 3.809500442 3.7803704271 
3.7462412737 3.7058097288 3.657329819 3.5984456061 3.7454049075 3.7156421835 3.6816134988 3.6424295543 3.5969754326 
3.5438565869 3.4813459737 3.4073543651 3.5642842451 3.4524645613 3.5233842518 3.3320300872 3.403123212 3.4773852225 
3.20576226 3.2746326772 3.348015857 3.4255060145 3.0774230472 3.1415926536 3.2112816139 3.2864685043 3.3668817272 
2.95115522 3.00855263 3.0719036933 3.1415926536 3.2178377658 3.3005964304 2.8307207459 2.8800620952 2.9351694502 
2.9967168029 3.0653475414 3.1415926536 3.225752376 2.718901062 2.7598010554 2.8058000847 2.8576792927 2.91630358 
2.9825888767 3.0574329311 3.1415926536 3.5642842451 3.5233842518 3.4524645613 3.4773852225 3.403123212 3.3320300872 
3.4255060145 3.348015857 3.2746326772 3.20576226 3.3668817272 3.2864685043 3.2112816139 3.1415926536 3.0774230472 
3.3005964304 3.2178377658 3.1415926536 3.0719036933 3.00855263 2.95115522 3.225752376 3.1415926536 3.0653475414 
2.9967168029 2.9351694502 2.8800620952 2.8307207459 3.1415926536 3.0574329311 2.9825888767 2.91630358 2.8576792927 
2.8058000847 2.7598010554 2.718901062 4.526799744 4.426884955 4.4046155105 4.3052269283 4.2918546451 4.2807094886 
4.1588146215 4.1588146215 4.1588146215 4.1588146215 3.9875336042 4.0055183285 4.0201070968 4.0321740035 4.042318168 
3.7967995342 3.8356650183 3.8672112905 3.8932795963 3.9151549899 3.9337570603 3.5984456061 3.657329819 3.7058097288 
3.7462412737 3.7803704271 3.809500442 3.8346145692 3.4073543651 3.4813459737 3.5438565869 3.5969754326 3.6424295543 
3.6816134988 3.7156421835 3.7454049075 4.7123889804 4.8004512023 4.6243267584 4.9155579264 4.7123889804 4.5092200343 
5.0674903122 4.8353719722 4.5894059886 4.3572876485 5.2659633393 5.0120975802 4.7123889804 4.4126803806 4.1588146215 
5.5125918794 5.2659633393 4.9155579264 4.5092200343 4.1588146215 3.9121860814 5.7885595667 5.6029703303 5.2659633393 
4.7123889804 4.1588146215 3.8218076305 3.6362183941 6.0560271438 5.9702140275 5.7885595667 5.2659633393 4.1588146215 
3.6362183941 3.4545639333 3.368750817 0.22715816343 0.49462574053 0.3129712797 0.77059342779 0.68021497688 0.49462574053 
1.0172219679 1.0172219679 1.0172219679 1.0172219679 1.2156949949 1.271087727 1.3676273807 1.5707963268 2.1243706857 
1.3676273807 1.447813335 1.5707963268 1.7739652728 2.1243706857 2.6469669131 1.4827341049 1.5707963268 1.6937793186 
1.8705049266 2.1243706857 2.4613776767 2.8286213739 1.5707963268 1.6588585487 1.7739652728 1.9258976586 2.1243706857 
2.3709992258 2.6469669131 2.9144344902 1.7563855631 1.8785697967 1.8563003522 2.0024758186 1.9913306621 1.9779583789 
2.1243706857 2.1243706857 2.1243706857 2.1243706857 2.2408671392 2.2510113037 2.2630782103 2.2776669786 2.295651703 
2.3494282469 2.3680303173 2.3899057108 2.4159740166 2.4475202889 2.486385773 2.448570738 2.4736848652 2.5028148801 
2.5369440334 2.5773755784 2.6258554882 2.6847397011 2.5377803997 2.5675431237 2.6015718084 2.6407557529 2.6862098746 
2.7393287203 2.8018393335 2.8758309421 1.6743954455 1.6743954455 1.7840462375 1.6743954455 1.7840462375 1.8974821136 
1.6743954455 1.7840462375 1.8974821136 2.0119052671 1.6743954455 1.7840462375 1.8974821136 2.0119052671 2.1243706857 
1.6743954455 1.7840462375 1.8974821136 2.0119052671 2.1243706857 2.232221744 1.6743954455 1.7840462375 1.8974821136 
2.0119052671 2.1243706857 2.232221744 2.3334263672 1.6743954455 1.7840462375 1.8974821136 2.0119052671 2.1243706857 
2.232221744 2.3334263672 2.426721652 1.4671972081 1.3575464161 1.4671972081 1.24411054 1.3575464161 1.4671972081 
1.1296873865 1.24411054 1.3575464161 1.4671972081 1.0172219679 1.1296873865 1.24411054 1.3575464161 1.4671972081 
0.90937090954 1.0172219679 1.1296873865 1.24411054 1.3575464161 1.4671972081 0.80816628637 0.90937090954 1.0172219679 
1.1296873865 1.24411054 1.3575464161 1.4671972081 0.71487100155 0.80816628637 0.90937090954 1.0172219679 1.1296873865 
1.24411054 1.3575464161 1.4671972081 0.60381225391 0.57404952988 0.69302191562 0.54002084522 0.66790778838 0.79216440667 
0.50083690068 0.63877777351 0.77356233629 0.90072551443 0.45538277901 0.60464862014 0.75168694275 0.89058134991 1.0172219679 
0.40226393329 0.56421707518 0.72561863695 0.87851444325 1.0172219679 1.139116835 0.33975332011 0.51573716537 0.69407236469 
0.86392567495 1.0172219679 1.1502619915 1.2630228569 0.26576171152 0.45685295248 0.6552068806 0.84594095064 1.0172219679 
1.1636342747 1.2852923014 1.3852070904 0.22715816343 0.3129712797 0.49462574053 0.49462574053 0.68021497688 0.77059342779 
1.0172219679 1.0172219679 1.0172219679 1.0172219679 2.1243706857 1.5707963268 1.3676273807 1.271087727 1.2156949949 
2.6469669131 2.1243706857 1.7739652728 1.5707963268 1.447813335 1.3676273807 2.8286213739 2.4613776767 2.1243706857 
1.8705049266 1.6937793186 1.5707963268 1.4827341049 2.9144344902 2.6469669131 2.3709992258 2.1243706857 1.9258976586 
1.7739652728 1.6588585487 1.5707963268 1.7563855631 1.8563003522 1.8785697967 1.9779583789 1.9913306621 2.0024758186 
2.1243706857 2.1243706857 2.1243706857 2.1243706857 2.295651703 2.2776669786 2.2630782103 2.2510113037 2.2408671392 
2.486385773 2.4475202889 2.4159740166 2.3899057108 2.3680303173 2.3494282469 2.6847397011 2.6258554882 2.5773755784 
2.5369440334 2.5028148801 2.4736848652 2.448570738 2.8758309421 2.8018393335 2.7393287203 2.6862098746 2.6407557529 
2.6015718084 2.5675431237 2.5377803997 5.8604937156 5.901393709 5.9723133995 5.9473927383 6.0216547488 6.0927478736 
5.9992719463 6.0767621038 6.1501452836 6.2190157008 6.0578962336 6.1383094565 6.2134963469 0 0.064169606361 
6.1241815303 6.206940195 6.2831853072 0.069688960264 0.13304002361 0.19043743361 6.1990255847 0 0.07624511221 
0.14487585072 0.20642320337 0.26153055843 0.3108719077 0 0.084159722458 0.15900377685 0.22528907359 0.28391336087 
0.3357925689 0.38179159818 0.42269159155 5.8604937156 5.9723133995 5.901393709 6.0927478736 6.0216547488 5.9473927383 
6.2190157008 6.1501452836 6.0767621038 5.9992719463 0.064169606361 0 6.2134963469 6.1383094565 6.0578962336 
0.19043743361 0.13304002361 0.069688960264 6.2831853072 6.206940195 6.1241815303 0.3108719077 0.26153055843 0.20642320337 
0.14487585072 0.07624511221 6.2831853072 6.1990255847 0.42269159155 0.38179159818 0.3357925689 0.28391336087 0.22528907359 
0.15900377685 0.084159722458 0 5.6793730533 5.7091357773 5.5901633916 5.743164462 5.6152775188 5.4910209005 
5.7823484065 5.6444075337 5.5096229709 5.3824597928 5.8278025282 5.678536687 5.5314983644 5.3926039573 5.2659633393 
5.8809213739 5.718968232 5.5575666702 5.4046708639 5.2659633393 5.1440684722 5.9434319871 5.7674481418 5.5891129425 
5.4192596322 5.2659633393 5.1329233157 5.0201624502 6.0174235957 5.8263323547 5.6279784266 5.4372443565 5.2659633393 
5.1195510325 4.9978930058 4.8979782167 1.3852070904 1.2852923014 1.2630228569 1.1636342747 1.1502619915 1.139116835 
1.0172219679 1.0172219679 1.0172219679 1.0172219679 0.84594095064 0.86392567495 0.87851444325 0.89058134991 0.90072551443 
0.6552068806 0.69407236469 0.72561863695 0.75168694275 0.77356233629 0.79216440667 0.45685295248 0.51573716537 0.56421707518 
0.60464862014 0.63877777351 0.66790778838 0.69302191562 0.26576171152 0.33975332011 0.40226393329 0.45538277901 0.50083690068 
0.54002084522 0.57404952988 0.60381225391 
_paraPhiHalf 1 1002 double
0 3.1415926536 0 3.1415926536 1.5707963268 1.5707963268 1.5707963268 1.5707963268 2.5880182947 
0.5535743589 2.5880182947 0.5535743589 0 0 0 0 3.1415926536 3.1415926536 
3.1415926536 3.1415926536 3.1415926536 0.17788134 0.38438696014 0.60631181711 0.82323535693 1.0172219679 1.1799687454 
1.3118704726 1.4175000338 1.5022335207 0.17788134 0.38438696014 0.60631181711 0.82323535693 1.0172219679 1.1799687454 
1.3118704726 1.4175000338 1.5022335207 0.093902416448 0.17615329733 0.2478725152 0.31035131605 0.36486382811 0.41257334776 
0.45449736604 0.4915044461 0.52432611754 0.093902416448 0.17615329733 0.2478725152 0.31035131605 0.36486382811 0.41257334776 
0.45449736604 0.4915044461 0.52432611754 2.9637113136 2.7572056934 2.5352808365 2.3183572967 2.1243706857 1.9616239082 
1.829722181 1.7240926197 1.6393591329 2.9637113136 2.7572056934 2.5352808365 2.3183572967 2.1243706857 1.9616239082 
1.829722181 1.7240926197 1.6393591329 3.0476902371 2.9654393563 2.8937201384 2.8312413375 2.7767288255 2.7290193058 
2.6870952876 2.6500882075 2.617266536 3.0476902371 2.9654393563 2.8937201384 2.8312413375 2.7767288255 2.7290193058 
2.6870952876 2.6500882075 2.617266536 0 0 0 0 3.1415926536 3.1415926536 
3.1415926536 3.1415926536 3.1415926536 0.17788134 0.38438696014 0.60631181711 0.82323535693 1.0172219679 1.1799687454 
1.3118704726 1.4175000338 1.5022335207 0.17788134 0.38438696014 0.60631181711 0.82323535693 1.0172219679 1.1799687454 
1.3118704726 1.4175000338 1.5022335207 0.093902416448 0.17615329733 0.2478725152 0.31035131605 0.36486382811 0.41257334776 
0.45449736604 0.4915044461 0.52432611754 0.093902416448 0.17615329733 0.2478725152 0.31035131605 0.36486382811 0.41257334776 
0.45449736604 0.4915044461 0.52432611754 2.9637113136 2.7572056934 2.5352808365 2.3183572967 2.1243706857 1.9616239082 
1.829722181 1.7240926197 1.6393591329 2.9637113136 2.7572056934 2.5352808365 2.3183572967 2.1243706857 1.9616239082 
1.829722181 1.7240926197 1.6393591329 3.0476902371 2.9654393563 2.8937201384 2.8312413375 2.7767288255 2.7290193058 
2.6870952876 2.6500882075 2.617266536 3.0476902371 2.9654393563 2.8937201384 2.8312413375 2.7767288255 2.7290193058 
2.6870952876 2.6500882075 2.617266536 1.5707963268 1.5707963268 1.5707963268 1.5707963268 1.5707963268 1.5707963268 
1.5707963268 1.5707963268 1.5707963268 1.6743954455 1.7840462375 1.8974821136 2.0119052671 2.1243706857 2.232221744 
2.3334263672 2.426721652 2.5115728246 1.4671972081 1.3575464161 1.24411054 1.1296873865 1.0172219679 0.90937090954 
0.80816628637 0.71487100155 0.63001982895 1.6743954455 1.7840462375 1.8974821136 2.0119052671 2.1243706857 2.232221744 
2.3334263672 2.426721652 2.5115728246 1.4671972081 1.3575464161 1.24411054 1.1296873865 1.0172219679 0.90937090954 
0.80816628637 0.71487100155 0.63001982895 1.5707963268 1.5707963268 1.5707963268 1.5707963268 1.5707963268 1.5707963268 
1.5707963268 1.5707963268 1.5707963268 1.6743954455 1.7840462375 1.8974821136 2.0119052671 2.1243706857 2.232221744 
2.3334263672 2.426721652 2.5115728246 1.4671972081 1.3575464161 1.24411054 1.1296873865 1.0172219679 0.90937090954 
0.80816628637 0.71487100155 0.63001982895 1.6743954455 1.7840462375 1.8974821136 2.0119052671 2.1243706857 2.232221744 
2.3334263672 2.426721652 2.5115728246 1.4671972081 1.3575464161 1.24411054 1.1296873865 1.0172219679 0.90937090954 
0.80816628637 0.71487100155 0.63001982895 2.6824132222 2.7864913217 2.8992382033 3.0186096618 3.1415926536 3.0186096618 
2.8992382033 2.7864913217 2.6824132222 0.45917943135 0.35510133185 0.2423544503 0.12298299178 0 0.12298299178 
0.2423544503 0.35510133185 0.45917943135 0.22715816343 0.49462574053 0.3129712797 0.77059342779 0.68021497688 0.49462574053 
1.0172219679 1.0172219679 1.0172219679 1.0172219679 1.2156949949 1.271087727 1.3676273807 1.5707963268 2.1243706857 
1.3676273807 1.447813335 1.5707963268 1.7739652728 2.1243706857 2.6469669131 1.4827341049 1.5707963268 1.6937793186 
1.8705049266 2.1243706857 2.4613776767 2.8286213739 1.5707963268 1.6588585487 1.7739652728 1.9258976586 2.1243706857 
2.3709992258 2.6469669131 2.9144344902 0.26576171152 0.33975332011 0.45685295248 0.40226393329 0.51573716537 0.6552068806 
0.45538277901 0.56421707518 0.69407236469 0.84594095064 0.50083690068 0.60464862014 0.72561863695 0.86392567495 1.0172219679 
0.54002084522 0.63877777351 0.75168694275 0.87851444325 1.0172219679 1.1636342747 0.57404952988 0.66790778838 0.77356233629 
0.89058134991 1.0172219679 1.1502619915 1.2852923014 0.60381225391 0.69302191562 0.79216440667 0.90072551443 1.0172219679 
1.139116835 1.2630228569 1.3852070904 0.71487100155 0.80816628637 0.80816628637 0.90937090954 0.90937090954 0.90937090954 
1.0172219679 1.0172219679 1.0172219679 1.0172219679 1.1296873865 1.1296873865 1.1296873865 1.1296873865 1.1296873865 
1.24411054 1.24411054 1.24411054 1.24411054 1.24411054 1.24411054 1.3575464161 1.3575464161 1.3575464161 
1.3575464161 1.3575464161 1.3575464161 1.3575464161 1.4671972081 1.4671972081 1.4671972081 1.4671972081 1.4671972081 
1.4671972081 1.4671972081 1.4671972081 1.6743954455 1.6743954455 1.7840462375 1.6743954455 1.7840462375 1.8974821136 
1.6743954455 1.7840462375 1.8974821136 2.0119052671 1.6743954455 1.7840462375 1.8974821136 2.0119052671 2.1243706857 
1.6743954455 1.7840462375 1.8974821136 2.0119052671 2.1243706857 2.232221744 1.6743954455 1.7840462375 1.8974821136 
2.0119052671 2.1243706857 2.232221744 2.3334263672 1.6743954455 1.7840462375 1.8974821136 2.0119052671 2.1243706857 
2.232221744 2.3334263672 2.426721652 1.7563855631 1.8785697967 1.8563003522 2.0024758186 1.9913306621 1.9779583789 
2.1243706857 2.1243706857 2.1243706857 2.1243706857 2.2408671392 2.2510113037 2.2630782103 2.2776669786 2.295651703 
2.3494282469 2.3680303173 2.3899057108 2.4159740166 2.4475202889 2.486385773 2.448570738 2.4736848652 2.5028148801 
2.5369440334 2.5773755784 2.6258554882 2.6847397011 2.5377803997 2.5675431237 2.6015718084 2.6407557529 2.6862098746 
2.7393287203 2.8018393335 2.8758309421 2.718901062 2.8307207459 2.7598010554 2.95115522 2.8800620952 2.8058000847 
3.0774230472 3.00855263 2.9351694502 2.8576792927 3.0774230472 3.1415926536 3.0719036933 2.9967168029 2.91630358 
2.95115522 3.00855263 3.0719036933 3.1415926536 3.0653475414 2.9825888767 2.8307207459 2.8800620952 2.9351694502 
2.9967168029 3.0653475414 3.1415926536 3.0574329311 2.718901062 2.7598010554 2.8058000847 2.8576792927 2.91630358 
2.9825888767 3.0574329311 3.1415926536 2.718901062 2.7598010554 2.8307207459 2.8058000847 2.8800620952 2.95115522 
2.8576792927 2.9351694502 3.00855263 3.0774230472 2.91630358 2.9967168029 3.0719036933 3.1415926536 3.0774230472 
2.9825888767 3.0653475414 3.1415926536 3.0719036933 3.00855263 2.95115522 3.0574329311 3.1415926536 3.0653475414 