# vtk DataFile Version 5.1
vtk output
ASCII
DATASET POLYDATA
POINTS 1002 float
13.3226 31.3859 9.01645 22.257 38.8735 6.99659 12.1734 34.9814 15.3005 
22.0053 40.7367 13.0771 14.7567 40.2131 6.95613 12.9119 41.9143 11.9205 
21.5176 31.654 10.6528 20.0874 34.48 14.8255 22.2028 45.1599 7.98221 
7.16429 33.5822 11.4043 26.8584 40.563 12.4529 10.8819 28.0711 14.1908 
14.2801 32.1058 8.83064 15.1511 32.7484 8.45313 15.9805 33.4516 8.099 
16.9146 34.4409 8.00797 17.9588 35.6246 8.06476 18.9504 36.6109 7.92514 
19.8334 37.2429 7.54057 20.6906 37.7278 7.17629 21.528 38.2657 7.00719 
13.4645 32.1781 8.94934 13.6209 32.9685 8.78058 13.697 33.761 8.50818 
13.7386 34.6353 8.22546 13.9206 35.6626 8.03217 14.2737 36.7958 7.88979 
14.5922 37.8806 7.69444 14.7241 38.7951 7.44249 14.7361 39.5455 7.19167 
13.9052 31.0791 8.99298 14.6534 30.8512 8.97268 15.5321 30.761 8.98622 
16.4789 30.7772 9.04366 17.4341 30.85 9.14243 18.3359 31.0071 9.31688 
19.1642 31.2494 9.60192 19.9694 31.4663 9.95722 20.7758 31.5824 10.3135 
12.3482 31.1137 9.03917 11.2823 30.8796 9.04017 10.2322 30.7599 9.11944 
9.36264 30.7989 9.35224 8.79177 31.048 9.73352 8.46196 31.5534 10.1616 
8.17455 32.2172 10.5153 7.80669 32.8221 10.7857 7.42395 33.257 11.0638 
12.6412 30.3566 9.01611 12.061 29.2751 8.93951 11.7031 28.4423 9.00591 
11.4481 28.0706 9.46061 11.1082 28.0354 10.2917 10.7365 28.0708 11.216 
10.5192 28.102 12.0211 10.5062 28.1525 12.7387 10.6422 28.1605 13.4642 
21.6179 39.0777 6.79765 20.9278 39.2265 6.65382 20.1392 39.2749 6.46239 
19.2031 39.3319 6.15433 18.2554 39.5891 5.89307 17.503 40.0291 5.91846 
16.9022 40.3841 6.18998 16.2443 40.469 6.481 15.4864 40.3573 6.71263 
22.4833 38.261 7.22122 22.681 37.6128 7.48713 22.7385 36.8734 7.80767 
22.6527 35.958 8.16296 22.501 34.9719 8.5553 22.2982 34.1542 9.00933 
22.0538 33.5107 9.47992 21.8505 32.8547 9.89319 21.706 32.1783 10.2632 
22.546 39.6776 6.85267 22.8446 40.5571 6.6445 23.105 41.4527 6.50613 
23.2621 42.3448 6.60423 23.2746 43.2366 6.79406 23.163 44.0764 6.73468 
22.9798 44.7425 6.49252 22.7511 45.1288 6.53763 22.4845 45.2352 7.10499 
23.0072 39.1684 7.24276 23.6548 39.5138 7.61727 24.1849 39.8495 8.0577 
24.7041 40.1278 8.57517 25.3155 40.3328 9.21946 25.9194 40.4507 9.90261 
26.3327 40.497 10.4918 26.5606 40.5293 11.0458 26.7268 40.566 11.7031 
12.8629 35.7292 15.4421 13.7036 36.4674 15.4362 14.5861 37.2297 15.1941 
15.4238 37.9697 14.7433 16.3371 38.5113 14.19 17.5476 38.826 13.6545 
19.0029 39.1543 13.2636 20.354 39.653 13.0822 21.3458 40.2226 13.0526 
12.0847 35.5044 14.9885 11.9449 36.3058 14.8596 11.7977 37.4104 14.9128 
11.8017 38.476 14.8106 12.037 39.1796 14.2975 12.3242 39.6847 13.6355 
12.4648 40.3057 13.1896 12.5209 41.0003 12.8908 12.6576 41.5542 12.4824 
12.6662 35.0163 15.7863 13.2374 35.0047 16.1993 13.834 34.8024 16.2586 
14.4455 34.4019 15.8849 15.191 34.0034 15.3883 16.1838 33.8516 15.1024 
17.3232 33.9948 14.9863 18.395 34.2582 14.8688 19.3053 34.4413 14.7798 
11.5605 34.5122 14.9385 11.0088 34.091 14.6628 10.3857 33.7751 14.4423 
9.56823 33.6188 14.1888 8.7062 33.6239 13.8935 8.05696 33.657 13.5632 
7.63221 33.5806 13.1247 7.3208 33.4579 12.5533 7.14253 33.4477 11.9466 
11.8461 34.1265 15.3655 11.5211 33.0181 15.304 11.195 31.7918 15.1889 
10.8269 30.7171 15.2635 10.3983 29.8405 15.6177 10.0385 29.0027 15.9648 
9.94498 28.2692 15.9535 10.144 27.895 15.5317 10.4933 27.9057 14.8806 
21.4447 40.721 12.6591 20.5856 40.6551 12.2836 19.454 40.631 12.0167 
18.25 40.7481 11.8802 17.1757 41.0049 11.8327 16.2217 41.3306 11.8688 
15.2764 41.6544 12.0064 14.3547 41.8938 12.1494 13.5549 41.9802 12.1375 
22.0895 40.372 13.4782 22.1055 39.9087 13.8556 21.958 39.4215 14.2695 
21.5922 38.9839 14.8526 21.1443 38.5033 15.5501 20.8408 37.7794 16.015 
20.7166 36.8007 15.9915 20.6099 35.8064 15.6163 20.3968 35.0217 15.1796 
22.2963 41.2347 12.8177 22.6453 41.7568 12.5358 22.9765 42.3128 12.2504 
23.1282 42.9073 11.8765 23.1041 43.5273 11.3768 23.0711 44.1311 10.9238 
23.0241 44.6405 10.5991 22.8162 44.9779 10.1185 22.4815 45.1328 9.20482 
22.5582 41.0389 13.4102 23.0789 41.4567 13.8418 23.7403 42.0227 14.2903 
24.6588 42.4986 14.62 25.7407 42.5379 14.7581 26.6953 42.1372 14.6911 
27.2454 41.6309 14.3714 27.3399 41.2334 13.794 27.1447 40.9043 13.0952 
14.3759 40.5874 7.0292 14.0488 41.0384 7.23366 13.7717 41.4656 7.58964 
13.4477 41.779 8.07774 13.0467 41.9912 8.64544 12.7168 42.1285 9.24528 
12.5938 42.1635 9.88403 12.6388 42.1037 10.5832 12.7565 42.0101 11.2951 
15.2924 40.9987 6.46876 15.8577 41.8778 5.77329 16.3089 42.7277 5.09381 
16.8373 43.3666 4.94521 17.8651 43.731 5.42935 19.3154 43.9649 5.91115 
20.5454 44.2456 6.00405 21.2338 44.5997 6.17429 21.6727 44.9357 6.89183 
14.0931 39.6815 7.40948 13.5098 39.1257 7.99333 12.7766 38.4579 8.64019 
11.5364 37.6238 9.03827 9.89566 36.7738 9.03503 8.50614 36.1052 9.01784 
7.76015 35.5588 9.42969 7.44055 34.942 10.1745 7.25638 34.2389 10.8851 
13.6467 42.2057 11.4211 14.5381 42.3853 10.8042 15.5603 42.5958 10.1896 
16.7078 42.9748 9.69755 17.9167 43.4689 9.41145 19.024 43.8928 9.29742 
19.9402 44.2013 9.14632 20.7399 44.5113 8.78763 21.5003 44.8658 8.32129 
12.1595 41.4886 11.912 11.407 40.8428 11.8116 10.6858 40.0444 11.7306 
10.0642 39.1359 11.6802 9.50407 38.1273 11.6058 8.83323 37.0713 11.5366 
8.0353 36.0543 11.5263 7.38086 35.1273 11.5315 7.10787 34.3037 11.4896 
21.7415 31.5336 11.1855 21.8247 31.6025 11.8432 21.7712 31.8064 12.5628 
21.7017 32.0016 13.2636 21.6561 32.1939 13.8771 21.4874 32.5722 14.3351 
21.1183 33.1681 14.591 20.6916 33.7574 14.6867 20.3502 34.1769 14.7365 
22.2921 32.082 10.7521 22.9255 32.7849 10.9123 23.4347 33.7874 11.1558 
23.8882 34.9379 11.4457 24.3601 36.0552 11.7215 24.9001 37.1104 11.9513 
25.4851 38.1401 12.1156 26.026 39.0939 12.2166 26.473 39.8995 12.309 
20.6787 31.28 10.8883 19.4997 31.0115 11.201 18.251 30.5911 11.5469 
17.3791 29.7433 11.8284 16.885 28.6434 12.0534 16.167 27.8928 12.372 
14.856 27.7915 12.8417 13.2888 28.0174 13.347 11.9294 28.1434 13.7951 
21.06 34.7215 15.2274 22.0752 35.0943 15.6698 23.012 35.833 15.8071 
23.6721 36.8726 15.401 24.0846 37.8274 14.6957 24.5959 38.4776 14.1853 
25.3713 38.9884 13.948 26.1441 39.5388 13.6486 26.6367 40.0938 13.1073 
19.2073 34.0088 14.4947 18.1331 33.4177 14.2647 16.9396 32.6019 14.128 
15.9016 31.4551 14.2014 15.2706 30.0592 14.6213 14.8431 28.8045 15.169 
14.1343 28.0837 15.3925 13.0335 27.9063 15.1546 11.8586 27.9863 14.681 
23.0834 45.2771 8.63363 24.1274 45.1152 9.26291 25.2623 44.7388 9.59035 
26.422 44.3436 9.73351 27.4424 43.9864 10.112 28.0032 43.5007 10.8028 
27.965 42.7897 11.4566 27.5866 41.9815 11.8747 27.189 41.229 12.1669 
7.26475 32.775 11.5831 7.2945 31.9221 11.781 6.99477 31.0077 12.1371 
6.30646 30.0406 12.6363 5.74188 29.1094 13.1057 6.01244 28.3718 13.4643 
7.14547 27.9624 13.7591 8.5338 27.8807 13.9897 9.76859 27.9771 14.1232 
14.3665 32.8904 8.65751 14.4274 33.6849 8.35822 15.1519 33.5748 8.23069 
14.4793 34.4899 7.96148 15.2041 34.4304 7.84775 15.9921 34.4234 7.90795 
14.6312 35.3873 7.62425 15.3875 35.2575 7.36263 16.1565 35.3391 7.45647 
17.0079 35.5222 7.79631 14.9208 36.4691 7.44972 15.6783 36.1617 7.01287 
16.4381 36.1046 6.89439 17.1999 36.34 7.23274 18.0384 36.5956 7.69601 
15.2101 37.6701 7.34907 15.9272 37.298 6.90056 16.6523 36.9625 6.54964 
17.3561 36.9525 6.63729 18.1014 37.2102 7.07862 18.9365 37.366 7.43923 
15.3733 38.7757 7.20338 16.0637 38.5574 6.8694 16.7253 38.124 6.45919 
17.3893 37.7665 6.29718 18.1287 37.7531 6.55903 18.9446 37.9139 6.93861 
19.8098 37.9205 7.1284 15.4402 39.6536 6.9885 16.1564 39.6509 6.74678 
16.786 39.373 6.39182 17.4047 38.8998 6.11818 18.1686 38.5692 6.2018 
19.0498 38.5322 6.53853 19.9163 38.5698 6.79965 20.7394 38.4708 6.90846 
12.5372 31.9593 9.0188 11.4738 31.7385 9.05497 12.7391 32.809 8.90253 
10.4068 31.6209 9.15166 11.6839 32.658 8.99122 12.8386 33.7214 8.7088 
9.56281 31.7079 9.3862 10.6194 32.6201 9.09547 11.8447 33.7251 8.86772 
12.9522 34.7814 8.53355 9.03853 32.0776 9.7294 9.76509 32.7938 9.258 
10.8597 33.8059 8.97746 12.1412 34.9444 8.78504 13.2956 35.9577 8.41609 
8.65035 32.7026 10.0563 9.12448 33.2444 9.44996 9.96378 34.0293 9.053 
11.3015 35.0903 8.95437 12.6999 36.181 8.75411 13.7764 37.1046 8.25501 
8.17411 33.3805 10.3062 8.51166 33.8946 9.62832 9.10557 34.4698 9.1005 
10.3398 35.3 9.01702 11.9504 36.3323 9.01766 13.2547 37.3038 8.62577 
14.0797 38.1028 7.98073 7.64267 33.9011 10.5557 7.89161 34.5139 9.84351 
8.31127 35.0474 9.1872 9.31473 35.6622 8.98675 10.9382 36.5128 9.10427 
12.5077 37.4606 8.93794 13.5041 38.277 8.33277 14.1242 38.9416 7.66913 
7.24227 35.0435 10.825 7.65767 35.9293 10.7907 7.51417 35.8136 10.0155 
8.45905 36.9005 10.8395 8.10651 36.7249 10.0156 8.05408 36.4686 9.33519 
9.29187 37.9449 10.9813 9.029 37.6965 10.1777 8.86832 37.4078 9.42736 
9.13376 37.0881 9.04854 9.9174 39.0016 11.111 9.84013 38.7434 10.3612 
9.81892 38.4262 9.5664 10.0431 38.1318 9.06496 10.666 37.8696 8.97864 
10.4774 39.9851 11.1359 10.4254 39.8082 10.4143 10.5233 39.5346 9.62282 
10.8175 39.2551 8.99577 11.3544 39.0093 8.73723 12.0648 38.7483 8.71006 
11.1643 40.8434 11.137 11.0412 40.7775 10.3837 11.0946 40.6202 9.62199 
11.3835 40.3925 8.95651 11.868 40.1419 8.52422 12.4296 39.8506 8.31894 
12.989 39.4923 8.17336 11.9549 41.5363 11.2128 11.8127 41.5587 10.4358 
11.7905 41.5229 9.69388 11.9904 41.3886 9.04619 12.4025 41.1704 8.51693 
12.8615 40.8818 8.11907 13.2682 40.5003 7.81927 13.6674 40.0669 7.5794 
14.9369 41.475 6.48686 14.653 41.9749 6.72932 15.4885 42.464 5.75842 
14.4171 42.3379 7.26356 15.2127 42.939 6.1292 15.9405 43.3524 5.21783 
14.1138 42.5173 8.01941 15.0148 43.1234 6.95485 15.7465 43.6889 5.889 
16.6395 43.8903 5.39999 13.7519 42.6108 8.81947 14.7838 43.1042 8.02796 
15.6896 43.6579 7.02734 16.6539 44.0326 6.3706 17.9121 44.0543 6.12998 
13.5033 42.643 9.54075 14.5361 43.0596 9.02058 15.6192 43.4991 8.24431 
16.7492 43.8942 7.56524 18.0077 44.0655 7.15676 19.3508 44.0978 6.67832 
13.452 42.5559 10.1953 14.4057 42.9487 9.76842 15.5208 43.3383 9.18806 
[...]
POINT_DATA 1002
FIELD FieldData 4
_paraPhi 1 1002 double
6.2831853072 3.1415926536 6.2831853072 3.1415926536 4.7123889804 4.7123889804 1.5707963268 1.5707963268 3.6951670125 
5.7296109483 2.5880182947 0.5535743589 6.2831853072 6.2831853072 6.2831853072 6.2831853072 3.1415926536 3.1415926536 
3.1415926536 3.1415926536 3.1415926536 6.1053039672 5.898798347 5.6768734901 5.4599499503 5.2659633393 5.1032165617 
4.9713148346 4.8656852733 4.7809517865 0.17788134 0.38438696014 0.60631181711 0.82323535693 1.0172219679 1.1799687454 
1.3118704726 1.4175000338 1.5022335207 6.1892828907 6.1070320098 6.035312792 5.9728339911 5.9183214791 5.8706119594 
5.8286879411 5.7916808611 5.7588591896 0.093902416448 0.17615329733 0.2478725152 0.31035131605 0.36486382811 0.41257334776 
0.45449736604 0.4915044461 0.52432611754 3.3194739936 3.5259796137 3.7479044707 3.9648280105 4.1588146215 4.321561399 
4.4534631262 4.5590926874 4.6438261743 2.9637113136 2.7572056934 2.5352808365 2.3183572967 2.1243706857 1.9616239082 
1.829722181 1.7240926197 1.6393591329 3.23549507 3.3177459509 3.3894651688 3.4519439696 3.5064564817 3.5541660013 
3.5960900196 3.6330970997 3.6659187711 3.0476902371 2.9654393563 2.8937201384 2.8312413375 2.7767288255 2.7290193058 
2.6870952876 2.6500882075 2.617266536 6.2831853072 6.2831853072 6.2831853072 6.2831853072 3.1415926536 3.1415926536 
3.1415926536 3.1415926536 3.1415926536 6.1053039672 5.898798347 5.6768734901 5.4599499503 5.2659633393 5.1032165617 
4.9713148346 4.8656852733 4.7809517865 0.17788134 0.38438696014 0.60631181711 0.82323535693 1.0172219679 1.1799687454 
1.3118704726 1.4175000338 1.5022335207 6.1892828907 6.1070320098 6.035312792 5.9728339911 5.9183214791 5.8706119594 
5.8286879411 5.7916808611 5.7588591896 0.093902416448 0.17615329733 0.2478725152 0.31035131605 0.36486382811 0.41257334776 
0.45449736604 0.4915044461 0.52432611754 3.3194739936 3.5259796137 3.7479044707 3.9648280105 4.1588146215 4.321561399 
4.4534631262 4.5590926874 4.6438261743 2.9637113136 2.7572056934 2.5352808365 2.3183572967 2.1243706857 1.9616239082 
1.829722181 1.7240926197 1.6393591329 3.23549507 3.3177459509 3.3894651688 3.4519439696 3.5064564817 3.5541660013 
3.5960900196 3.6330970997 3.6659187711 3.0476902371 2.9654393563 2.8937201384 2.8312413375 2.7767288255 2.7290193058 
2.6870952876 2.6500882075 2.617266536 4.7123889804 4.7123889804 4.7123889804 4.7123889804 4.7123889804 4.7123889804 
4.7123889804 4.7123889804 4.7123889804 4.6087898617 4.4991390697 4.3857031936 4.2712800401 4.1588146215 4.0509635631 
3.94975894 3.8564636551 3.7716124825 4.8159880991 4.9256388911 5.0390747672 5.1534979207 5.2659633393 5.3738143976 
5.4750190208 5.5683143056 5.6531654782 4.6087898617 4.4991390697 4.3857031936 4.2712800401 4.1588146215 4.0509635631 
3.94975894 3.8564636551 3.7716124825 4.8159880991 4.9256388911 5.0390747672 5.1534979207 5.2659633393 5.3738143976 
5.4750190208 5.5683143056 5.6531654782 1.5707963268 1.5707963268 1.5707963268 1.5707963268 1.5707963268 1.5707963268 
1.5707963268 1.5707963268 1.5707963268 1.6743954455 1.7840462375 1.8974821136 2.0119052671 2.1243706857 2.232221744 
2.3334263672 2.426721652 2.5115728246 1.4671972081 1.3575464161 1.24411054 1.1296873865 1.0172219679 0.90937090954 
0.80816628637 0.71487100155 0.63001982895 1.6743954455 1.7840462375 1.8974821136 2.0119052671 2.1243706857 2.232221744 
2.3334263672 2.426721652 2.5115728246 1.4671972081 1.3575464161 1.24411054 1.1296873865 1.0172219679 0.90937090954 
0.80816628637 0.71487100155 0.63001982895 3.6007720849 3.4966939854 3.3839471039 3.2645756454 3.1415926536 3.0186096618 
2.8992382033 2.7864913217 2.6824132222 5.8240058758 5.9280839753 6.0408308569 6.1602023154 6.2831853072 0.12298299178 
0.2423544503 0.35510133185 0.45917943135 6.0560271438 5.7885595667 5.9702140275 5.5125918794 5.6029703303 5.7885595667 
5.2659633393 5.2659633393 5.2659633393 5.2659633393 5.0674903122 5.0120975802 4.9155579264 4.7123889804 4.1588146215 
4.9155579264 4.8353719722 4.7123889804 4.5092200343 4.1588146215 3.6362183941 4.8004512023 4.7123889804 4.5894059886 
4.4126803806 4.1588146215 3.8218076305 3.4545639333 4.7123889804 4.6243267584 4.5092200343 4.3572876485 4.1588146215 
3.9121860814 3.6362183941 3.368750817 6.0174235957 5.9434319871 5.8263323547 5.8809213739 5.7674481418 5.6279784266 
5.8278025282 5.718968232 5.5891129425 5.4372443565 5.7823484065 5.678536687 5.5575666702 5.4192596322 5.2659633393 
5.743164462 5.6444075337 5.5314983644 5.4046708639 5.2659633393 5.1195510325 5.7091357773 5.6152775188 5.5096229709 
5.3926039573 5.2659633393 5.1329233157 4.9978930058 5.6793730533 5.5901633916 5.4910209005 5.3824597928 5.2659633393 
5.1440684722 5.0201624502 4.8979782167 5.5683143056 5.4750190208 5.4750190208 5.3738143976 5.3738143976 5.3738143976 
5.2659633393 5.2659633393 5.2659633393 5.2659633393 5.1534979207 5.1534979207 5.1534979207 5.1534979207 5.1534979207 
5.0390747672 5.0390747672 5.0390747672 5.0390747672 5.0390747672 5.0390747672 4.9256388911 4.9256388911 4.9256388911 
4.9256388911 4.9256388911 4.9256388911 4.9256388911 4.8159880991 4.8159880991 4.8159880991 4.8159880991 4.8159880991 
4.8159880991 4.8159880991 4.8159880991 4.6087898617 4.6087898617 4.4991390697 4.6087898617 4.4991390697 4.3857031936 
4.6087898617 4.4991390697 4.3857031936 4.2712800401 4.6087898617 4.4991390697 4.3857031936 4.2712800401 4.1588146215 
4.6087898617 4.4991390697 4.3857031936 4.2712800401 4.1588146215 4.0509635631 4.6087898617 4.4991390697 4.3857031936 
4.2712800401 4.1588146215 4.0509635631 3.94975894 4.6087898617 4.4991390697 4.3857031936 4.2712800401 4.1588146215 
4.0509635631 3.94975894 3.8564636551 4.526799744 4.4046155105 4.426884955 4.2807094886 4.2918546451 4.3052269283 
4.1588146215 4.1588146215 4.1588146215 4.1588146215 4.042318168 4.0321740035 4.0201070968 4.0055183285 3.9875336042 
3.9337570603 3.9151549899 3.8932795963 3.8672112905 3.8356650183 3.7967995342 3.8346145692 3.809500442 3.7803704271 
3.7462412737 3.7058097288 3.657329819 3.5984456061 3.7454049075 3.7156421835 3.6816134988 3.6424295543 3.5969754326 
3.5438565869 3.4813459737 3.4073543651 3.5642842451 3.4524645613 3.5233842518 3.3320300872 3.403123212 3.4773852225 
3.20576226 3.2746326772 3.348015857 3.4255060145 3.0774230472 3.1415926536 3.2112816139 3.2864685043 3.3668817272 
2.95115522 3.00855263 3.0719036933 3.1415926536 3.2178377658 3.3005964304 2.8307207459 2.8800620952 2.9351694502 
2.9967168029 3.0653475414 3.1415926536 3.225752376 2.718901062 2.7598010554 2.8058000847 2.8576792927 2.91630358 
2.9825888767 3.0574329311 3.1415926536 3.5642842451 3.5233842518 3.4524645613 3.4773852225 3.403123212 3.3320300872 
3.4255060145 3.348015857 3.2746326772 3.20576226 3.3668817272 3.2864685043 3.2112816139 3.1415926536 3.0774230472 
3.3005964304 3.2178377658 3.1415926536 3.0719036933 3.00855263 2.95115522 3.225752376 3.1415926536 3.0653475414 
2.9967168029 2.9351694502 2.8800620952 2.8307207459 3.1415926536 3.0574329311 2.9825888767 2.91630358 2.8576792927 
2.8058000847 2.7598010554 2.718901062 4.526799744 4.426884955 4.4046155105 4.3052269283 4.2918546451 4.2807094886 
4.1588146215 4.1588146215 4.1588146215 4.1588146215 3.9875336042 4.0055183285 4.0201070968 4.0321740035 4.042318168 
3.7967995342 3.8356650183 3.8672112905 3.8932795963 3.9151549899 3.9337570603 3.5984456061 3.657329819 3.7058097288 
3.7462412737 3.7803704271 3.809500442 3.8346145692 3.4073543651 3.4813459737 3.5438565869 3.5969754326 3.6424295543 
3.6816134988 3.7156421835 3.7454049075 4.7123889804 4.8004512023 4.6243267584 4.9155579264 4.7123889804 4.5092200343 
5.0674903122 4.8353719722 4.5894059886 4.3572876485 5.2659633393 5.0120975802 4.7123889804 4.4126803806 4.1588146215 
5.5125918794 5.2659633393 4.9155579264 4.5092200343 4.1588146215 3.9121860814 5.7885595667 5.6029703303 5.2659633393 
4.7123889804 4.1588146215 3.8218076305 3.6362183941 6.0560271438 5.9702140275 5.7885595667 5.2659633393 4.1588146215 
3.6362183941 3.4545639333 3.368750817 0.22715816343 0.49462574053 0.3129712797 0.77059342779 0.68021497688 0.49462574053 
1.0172219679 1.0172219679 1.0172219679 1.0172219679 1.2156949949 1.271087727 1.3676273807 1.5707963268 2.1243706857 
1.3676273807 1.447813335 1.5707963268 1.7739652728 2.1243706857 2.6469669131 1.4827341049 1.5707963268 1.6937793186 
1.8705049266 2.1243706857 2.4613776767 2.8286213739 1.5707963268 1.6588585487 1.7739652728 1.9258976586 2.1243706857 
2.3709992258 2.6469669131 2.9144344902 1.7563855631 1.8785697967 1.8563003522 2.0024758186 1.9913306621 1.9779583789 
2.1243706857 2.1243706857 2.1243706857 2.1243706857 2.2408671392 2.2510113037 2.2630782103 2.2776669786 2.295651703 
2.3494282469 2.3680303173 2.3899057108 2.4159740166 2.4475202889 2.486385773 2.448570738 2.4736848652 2.5028148801 
2.5369440334 2.5773755784 2.6258554882 2.6847397011 2.5377803997 2.5675431237 2.6015718084 2.6407557529 2.6862098746 
2.7393287203 2.8018393335 2.8758309421 1.6743954455 1.6743954455 1.7840462375 1.6743954455 1.7840462375 1.8974821136 
1.6743954455 1.7840462375 1.8974821136 2.0119052671 1.6743954455 1.7840462375 1.8974821136 2.0119052671 2.1243706857 
1.6743954455 1.7840462375 1.8974821136 2.0119052671 2.1243706857 2.232221744 1.6743954455 1.7840462375 1.8974821136 
2.0119052671 2.1243706857 2.232221744 2.3334263672 1.6743954455 1.7840462375 1.8974821136 2.0119052671 2.1243706857 
2.232221744 2.3334263672 2.426721652 1.4671972081 1.3575464161 1.4671972081 1.24411054 1.3575464161 1.4671972081 
1.1296873865 1.24411054 1.3575464161 1.4671972081 1.0172219679 1.1296873865 1.24411054 1.3575464161 1.4671972081 
0.90937090954 1.0172219679 1.1296873865 1.24411054 1.3575464161 1.4671972081 0.80816628637 0.90937090954 1.0172219679 
1.1296873865 1.24411054 1.3575464161 1.4671972081 0.71487100155 0.80816628637 0.90937090954 1.0172219679 1.1296873865 
1.24411054 1.3575464161 1.4671972081 0.60381225391 0.57404952988 0.69302191562 0.54002084522 0.66790778838 0.79216440667 
0.50083690068 0.63877777351 0.77356233629 0.90072551443 0.45538277901 0.60464862014 0.75168694275 0.89058134991 1.0172219679 
0.40226393329 0.56421707518 0.72561863695 0.87851444325 1.0172219679 1.139116835 0.33975332011 0.51573716537 0.69407236469 
0.86392567495 1.0172219679 1.1502619915 1.2630228569 0.26576171152 0.45685295248 0.6552068806 0.84594095064 1.0172219679 
1.1636342747 1.2852923014 1.3852070904 0.22715816343 0.3129712797 0.49462574053 0.49462574053 0.68021497688 0.77059342779 
1.0172219679 1.0172219679 1.0172219679 1.0172219679 2.1243706857 1.5707963268 1.3676273807 1.271087727 1.2156949949 
2.6469669131 2.1243706857 1.7739652728 1.5707963268 1.447813335 1.3676273807 2.8286213739 2.4613776767 2.1243706857 
1.8705049266 1.6937793186 1.5707963268 1.4827341049 2.9144344902 2.6469669131 2.3709992258 2.1243706857 1.9258976586 
1.7739652728 1.6588585487 1.5707963268 1.7563855631 1.8563003522 1.8785697967 1.9779583789 1.9913306621 2.0024758186 
2.1243706857 2.1243706857 2.1243706857 2.1243706857 2.295651703 2.2776669786 2.2630782103 2.2510113037 2.2408671392 
2.486385773 2.4475202889 2.4159740166 2.3899057108 2.3680303173 2.3494282469 2.6847397011 2.6258554882 2.5773755784 
2.5369440334 2.5028148801 2.4736848652 2.448570738 2.8758309421 2.8018393335 2.7393287203 2.6862098746 2.6407557529 
2.6015718084 2.5675431237 2.5377803997 5.8604937156 5.901393709 5.9723133995 5.9473927383 6.0216547488 6.0927478736 
5.9992719463 6.0767621038 6.1501452836 6.2190157008 6.0578962336 6.1383094565 6.2134963469 0 0.064169606361 
6.1241815303 6.206940195 6.2831853072 0.069688960264 0.13304002361 0.19043743361 6.1990255847 0 0.07624511221 
0.14487585072 0.20642320337 0.26153055843 0.3108719077 0 0.084159722458 0.15900377685 0.22528907359 0.28391336087 
0.3357925689 0.38179159818 0.42269159155 5.8604937156 5.9723133995 5.901393709 6.0927478736 6.0216547488 5.9473927383 
6.2190157008 6.1501452836 6.0767621038 5.9992719463 0.064169606361 0 6.2134963469 6.1383094565 6.0578962336 
0.19043743361 0.13304002361 0.069688960264 6.2831853072 6.206940195 6.1241815303 0.3108719077 0.26153055843 0.20642320337 
0.14487585072 0.07624511221 6.2831853072 6.1990255847 0.42269159155 0.38179159818 0.3357925689 0.28391336087 0.22528907359 
0.15900377685 0.084159722458 0 5.6793730533 5.7091357773 5.5901633916 5.743164462 5.6152775188 5.4910209005 
5.7823484065 5.6444075337 5.5096229709 5.3824597928 5.8278025282 5.678536687 5.5314983644 5.3926039573 5.2659633393 
5.8809213739 5.718968232 5.5575666702 5.4046708639 5.2659633393 5.1440684722 5.9434319871 5.7674481418 5.5891129425 
5.4192596322 5.2659633393 5.1329233157 5.0201624502 6.0174235957 5.8263323547 5.6279784266 5.4372443565 5.2659633393 
5.1195510325 4.9978930058 4.8979782167 1.3852070904 1.2852923014 1.2630228569 1.1636342747 1.1502619915 1.139116835 
1.0172219679 1.0172219679 1.0172219679 1.0172219679 0.84594095064 0.86392567495 0.87851444325 0.89058134991 0.90072551443 
0.6552068806 0.69407236469 0.72561863695 0.75168694275 0.77356233629 0.79216440667 0.45685295248 0.51573716537 0.56421707518 
0.60464862014 0.63877777351 0.66790778838 0.69302191562 0.26576171152 0.33975332011 0.40226393329 0.45538277901 0.50083690068 
0.54002084522 0.57404952988 0.60381225391 
_paraPhiHalf 1 1002 double
0 3.1415926536 0 3.1415926536 1.5707963268 1.5707963268 1.5707963268 1.5707963268 2.5880182947 
0.5535743589 2.5880182947 0.5535743589 0 0 0 0 3.1415926536 3.1415926536 
3.1415926536 3.1415926536 3.1415926536 0.17788134 0.38438696014 0.60631181711 0.82323535693 1.0172219679 1.1799687454 
1.3118704726 1.4175000338 1.5022335207 0.17788134 0.38438696014 0.60631181711 0.82323535693 1.0172219679 1.1799687454 
1.3118704726 1.4175000338 1.5022335207 0.093902416448 0.17615329733 0.2478725152 0.31035131605 0.36486382811 0.41257334776 
0.45449736604 0.4915044461 0.52432611754 0.093902416448 0.17615329733 0.2478725152 0.31035131605 0.36486382811 0.41257334776 
0.45449736604 0.4915044461 0.52432611754 2.9637113136 2.7572056934 2.5352808365 2.3183572967 2.1243706857 1.9616239082 
1.829722181 1.7240926197 1.6393591329 2.9637113136 2.7572056934 2.5352808365 2.3183572967 2.1243706857 1.9616239082 
1.829722181 1.7240926197 1.6393591329 3.0476902371 2.9654393563 2.8937201384 2.8312413375 2.7767288255 2.7290193058 
2.6870952876 2.6500882075 2.617266536 3.0476902371 2.9654393563 2.8937201384 2.8312413375 2.7767288255 2.7290193058 
2.6870952876 2.6500882075 2.617266536 0 0 0 0 3.1415926536 3.1415926536 
3.1415926536 3.1415926536 3.1415926536 0.17788134 0.38438696014 0.60631181711 0.82323535693 1.0172219679 1.1799687454 
1.3118704726 1.4175000338 1.5022335207 0.17788134 0.38438696014 0.60631181711 0.82323535693 1.0172219679 1.1799687454 
1.3118704726 1.4175000338 1.5022335207 0.093902416448 0.17615329733 0.2478725152 0.31035131605 0.36486382811 0.41257334776 
0.45449736604 0.4915044461 0.52432611754 0.093902416448 0.17615329733 0.2478725152 0.31035131605 0.36486382811 0.41257334776 
0.45449736604 0.4915044461 0.52432611754 2.9637113136 2.7572056934 2.5352808365 2.3183572967 2.1243706857 1.9616239082 
1.829722181 1.7240926197 1.6393591329 2.9637113136 2.7572056934 2.5352808365 2.3183572967 2.1243706857 1.9616239082 
1.829722181 1.7240926197 1.6393591329 3.0476902371 2.9654393563 2.8937201384 2.8312413375 2.7767288255 2.7290193058 
2.6870952876 2.6500882075 2.617266536 3.0476902371 2.9654393563 2.8937201384 2.8312413375 2.7767288255 2.7290193058 
2.6870952876 2.6500882075 2.617266536 1.5707963268 1.5707963268 1.5707963268 1.5707963268 1.5707963268 1.5707963268 
1.5707963268 1.5707963268 1.5707963268 1.6743954455 1.7840462375 1.8974821136 2.0119052671 2.1243706857 2.232221744 
2.3334263672 2.426721652 2.5115728246 1.4671972081 1.3575464161 1.24411054 1.1296873865 1.0172219679 0.90937090954 
0.80816628637 0.71487100155 0.63001982895 1.6743954455 1.7840462375 1.8974821136 2.0119052671 2.1243706857 2.232221744 
2.3334263672 2.426721652 2.5115728246 1.4671972081 1.3575464161 1.24411054 1.1296873865 1.0172219679 0.90937090954 
0.80816628637 0.71487100155 0.63001982895 1.5707963268 1.5707963268 1.5707963268 1.5707963268 1.5707963268 1.5707963268 
1.5707963268 1.5707963268 1.5707963268 1.6743954455 1.7840462375 1.8974821136 2.0119052671 2.1243706857 2.232221744 
2.3334263672 2.426721652 2.5115728246 1.4671972081 1.3575464161 1.24411054 1.1296873865 1.0172219679 0.90937090954 
0.80816628637 0.71487100155 0.63001982895 1.6743954455 1.7840462375 1.8974821136 2.0119052671 2.1243706857 2.232221744 
2.3334263672 2.426721652 2.5115728246 1.4671972081 1.3575464161 1.24411054 1.1296873865 1.0172219679 0.90937090954 
0.80816628637 0.71487100155 0.63001982895 2.6824132222 2.7864913217 2.8992382033 3.0186096618 3.1415926536 3.0186096618 
2.8992382033 2.7864913217 2.6824132222 0.45917943135 0.35510133185 0.2423544503 0.12298299178 0 0.12298299178 
0.2423544503 0.35510133185 0.45917943135 0.22715816343 0.49462574053 0.3129712797 0.77059342779 0.68021497688 0.49462574053 
1.0172219679 1.0172219679 1.0172219679 1.0172219679 1.2156949949 1.271087727 1.3676273807 1.5707963268 2.1243706857 
1.3676273807 1.447813335 1.5707963268 1.7739652728 2.1243706857 2.6469669131 1.4827341049 1.5707963268 1.6937793186 
1.8705049266 2.1243706857 2.4613776767 2.8286213739 1.5707963268 1.6588585487 1.7739652728 1.9258976586 2.1243706857 
2.3709992258 2.6469669131 2.9144344902 0.26576171152 0.33975332011 0.45685295248 0.40226393329 0.51573716537 0.6552068806 
0.45538277901 0.56421707518 0.69407236469 0.84594095064 0.50083690068 0.60464862014 0.72561863695 0.86392567495 1.0172219679 
0.54002084522 0.63877777351 0.75168694275 0.87851444325 1.0172219679 1.1636342747 0.57404952988 0.66790778838 0.77356233629 
0.89058134991 1.0172219679 1.1502619915 1.2852923014 0.60381225391 0.69302191562 0.79216440667 0.90072551443 1.0172219679 
1.139116835 1.2630228569 1.3852070904 0.71487100155 0.80816628637 0.80816628637 0.90937090954 0.90937090954 0.90937090954 
1.0172219679 1.0172219679 1.0172219679 1.0172219679 1.1296873865 1.1296873865 1.1296873865 1.1296873865 1.1296873865 
1.24411054 1.24411054 1.24411054 1.24411054 1.24411054 1.24411054 1.3575464161 1.3575464161 1.3575464161 
1.3575464161 1.3575464161 1.3575464161 1.3575464161 1.4671972081 1.4671972081 1.4671972081 1.4671972081 1.4671972081 
1.4671972081 1.4671972081 1.4671972081 1.6743954455 1.6743954455 1.7840462375 1.6743954455 1.7840462375 1.8974821136 
1.6743954455 1.7840462375 1.8974821136 2.0119052671 1.6743954455 1.7840462375 1.8974821136 2.0119052671 2.1243706857 
1.6743954455 1.7840462375 1.8974821136 2.0119052671 2.1243706857 2.232221744 1.6743954455 1.7840462375 1.8974821136 
2.0119052671 2.1243706857 2.232221744 2.3334263672 1.6743954455 1.7840462375 1.8974821136 2.0119052671 2.1243706857 
2.232221744 2.3334263672 2.426721652 1.7563855631 1.8785697967 1.8563003522 2.0024758186 1.9913306621 1.9779583789 
2.1243706857 2.1243706857 2.1243706857 2.1243706857 2.2408671392 2.2510113037 2.2630782103 2.2776669786 2.295651703 
2.3494282469 2.3680303173 2.3899057108 2.4159740166 2.4475202889 2.486385773 2.448570738 2.4736848652 2.5028148801 
2.5369440334 2.5773755784 2.6258554882 2.6847397011 2.5377803997 2.5675431237 2.6015718084 2.6407557529 2.6862098746 
2.7393287203 2.8018393335 2.8758309421 2.718901062 2.8307207459 2.7598010554 2.95115522 2.8800620952 2.8058000847 
3.0774230472 3.00855263 2.9351694502 2.8576792927 3.0774230472 3.1415926536 3.0719036933 2.9967168029 2.91630358 
2.95115522 3.00855263 3.0719036933 3.1415926536 3.0653475414 2.9825888767 2.8307207459 2.8800620952 2.9351694502 
2.9967168029 3.0653475414 3.1415926536 3.0574329311 2.718901062 2.7598010554 2.8058000847 2.8576792927 2.91630358 
2.9825888767 3.0574329311 3.1415926536 2.718901062 2.7598010554 2.8307207459 2.8058000847 2.8800620952 2.95115522 
2.8576792927 2.9351694502 3.00855263 3.0774230472 2.91630358 2.9967168029 3.0719036933 3.1415926536 3.0774230472 
2.9825888767 3.0653475414 3.1415926536 3.0719036933 3.00855263 2.95115522 3.0574329311 3.1415926536 3.0653475414 