# vtk DataFile Version 5.1
vtk output
ASCII
DATASET POLYDATA
POINTS 100 float
6.85852 28.6878 13.8126 6.86223 28.6986 13.8157 6.87367 28.7276 13.8188 
6.89324 28.7731 13.8219 6.92155 28.8331 13.8248 6.9594 28.9047 13.8271 
7.00773 28.9851 13.8288 7.06752 29.0713 13.8294 7.13975 29.1607 13.8286 
7.22534 29.2512 13.8259 7.32505 29.3415 13.8209 7.4395 29.431 13.8128 
7.56912 29.5199 13.8011 7.71412 29.6088 13.7852 7.87452 29.6987 13.7645 
8.05011 29.7911 13.7385 8.24052 29.887 13.7068 8.44517 29.9875 13.6693 
8.6633 30.0932 13.6262 8.894 30.2041 13.5778 9.13619 30.3198 13.5249 
9.38865 30.4398 13.4684 9.65005 30.5628 13.4094 9.91894 30.6878 13.3494 
10.1939 30.8136 13.2896 10.4733 30.9394 13.2314 10.756 31.0645 13.1759 
11.0405 31.1886 13.1237 11.3259 31.3116 13.0753 11.6113 31.4337 13.0305 
11.8963 31.5551 12.9887 12.1807 31.6761 12.949 12.4646 31.7967 12.9101 
12.7485 31.9167 12.8704 13.0328 32.0353 12.8284 13.3184 32.1518 12.7828 
13.6058 32.2648 12.7324 13.8957 32.3732 12.6769 14.1882 32.4756 12.6161 
14.4835 32.5711 12.5509 14.7813 32.6591 12.4824 15.0808 32.7397 12.4125 
15.3812 32.8135 12.3432 15.6813 32.882 12.277 15.9799 32.9471 12.216 
16.2757 33.0111 12.162 16.5678 33.0766 12.1166 16.8555 33.1461 12.0803 
17.1384 33.2219 12.0533 17.4167 33.3057 12.0349 17.6908 33.3984 12.0237 
17.9617 33.5003 12.0179 18.2305 33.6108 12.0155 18.4987 33.7288 12.0144 
18.7673 33.8527 12.0127 19.0376 33.9805 12.0091 19.3103 34.1103 12.0028 
19.5857 34.2404 11.9937 19.8637 34.3698 11.9824 20.1437 34.4977 11.9702 
20.4247 34.6242 11.9587 20.7051 34.7498 11.9499 20.9837 34.8755 11.9457 
21.2587 35.0026 11.9476 21.5289 35.1323 11.957 21.7933 35.2656 11.9743 
22.0512 35.403 11.9994 22.3024 35.5445 12.0316 22.5474 35.6892 12.0694 
22.7867 35.836 12.1112 23.0213 35.9829 12.155 23.2525 36.1276 12.1988 
23.4813 36.268 12.2412 23.7086 36.4018 12.2809 23.9352 36.5273 12.3175 
24.1612 36.6434 12.3508 24.3864 36.7497 12.3814 24.6103 36.8466 12.4102 
24.8318 36.9353 12.4384 25.0496 37.0173 12.4669 25.2624 37.0948 12.4964 
25.4688 37.17 12.5274 25.6676 37.245 12.5593 25.8576 37.3215 12.5914 
26.0382 37.4007 12.6219 26.209 37.4831 12.649 26.3697 37.5688 12.6704 
26.5205 37.6569 12.684 26.6614 37.7461 12.688 26.7926 37.8347 12.6813 
26.9142 37.9208 12.6637 27.0259 38.0025 12.6358 27.1273 38.078 12.5993 
27.2178 38.1457 12.557 27.2966 38.2044 12.512 27.3626 38.253 12.468 
27.4148 38.291 12.4288 27.4523 38.318 12.3977 27.4743 38.3338 12.3775 
27.4805 38.3382 12.3697 
LINES 2 100
OFFSETS vtktypeint64
0 100 
CONNECTIVITY vtktypeint64
0 1 2 3 4 5 6 7 8 
9 10 11 12 13 14 15 16 17 
18 19 20 21 22 23 24 25 26 
27 28 29 30 31 32 33 34 35 
36 37 38 39 40 41 42 43 44 
45 46 47 48 49 50 51 52 53 
54 55 56 57 58 59 60 61 62 
63 64 65 66 67 68 69 70 71 
72 73 74 75 76 77 78 79 80 
81 82 83 84 85 86 87 88 89 
90 91 92 93 94 95 96 97 98 
99 
POINT_DATA 100
FIELD FieldData 3
_theta 1 100 double
0 0.031733259127 0.063466518254 0.095199777382 0.12693303651 0.15866629564 0.19039955476 0.22213281389 0.25386607302 
0.28559933214 0.31733259127 0.3490658504 0.38079910953 0.41253236865 0.44426562778 0.47599888691 0.50773214603 0.53946540516 
0.57119866429 0.60293192342 0.63466518254 0.66639844167 0.6981317008 0.72986495992 0.76159821905 0.79333147818 0.82506473731 
0.85679799643 0.88853125556 0.92026451469 0.95199777382 0.98373103294 1.0154642921 1.0471975512 1.0789308103 1.1106640695 
1.1423973286 1.1741305877 1.2058638468 1.237597106 1.2693303651 1.3010636242 1.3327968833 1.3645301425 1.3962634016 
1.4279966607 1.4597299198 1.491463179 1.5231964381 1.5549296972 1.5866629564 1.6183962155 1.6501294746 1.6818627337 
1.7135959929 1.745329252 1.7770625111 1.8087957702 1.8405290294 1.8722622885 1.9039955476 1.9357288068 1.9674620659 
1.999195325 2.0309285841 2.0626618433 2.0943951024 2.1261283615 2.1578616206 2.1895948798 2.2213281389 2.253061398 
2.2847946572 2.3165279163 2.3482611754 2.3799944345 2.4117276937 2.4434609528 2.4751942119 2.506927471 2.5386607302 
2.5703939893 2.6021272484 2.6338605076 2.6655937667 2.6973270258 2.7290602849 2.7607935441 2.7925268032 2.8242600623 
2.8559933214 2.8877265806 2.9194598397 2.9511930988 2.982926358 3.0146596171 3.0463928762 3.0781261353 3.1098593945 
3.1415926536 
_radius 1 100 double
4.2558484916e-14 0.35422012251 0.70430104265 1.0462822249 1.3766541016 1.6925184839 1.9916797192 2.2726660038 2.5346920167 
2.7775817244 3.001672575 3.20771953 3.3968107865 3.5702988497 3.7297435592 3.8768603027 4.0134680935 4.1414370671 
4.2626395203 4.3789089392 4.4920065338 4.6035876928 4.715156603 4.8279996757 4.9430975605 5.0610284741 5.1818875275 
5.3052520968 5.4302172128 5.5555069115 5.6796441625 5.8011444112 5.9186934668 6.0312786208 6.1382560254 6.2393511761 
6.3345995526 6.4242405704 6.5085810038 6.5878455637 6.662033747 6.7308035611 6.7934027508 6.8486643529 6.8950745255 
6.9309079507 6.9544133105 6.9640224413 6.9585541654 6.9373872857 6.9005844492 6.848956389 6.7840618749 6.7081417838 
6.62398751 6.5347473304 6.4436814442 6.3538863281 6.2680176771 6.1880443324 6.1150625889 6.049193897 5.9895814376 
5.934491797 5.8815157148 5.8278473631 5.7706078327 5.7071692492 5.6354342149 5.5540321724 5.4624084625 5.3607997753 
5.2501070151 5.1316897762 5.0071142835 4.877889588 4.7452266821 4.6098526281 4.4719053697 4.3309227947 4.1859228445 
4.0355553198 3.8782968153 3.7126597354 3.5373904707 3.3516351129 3.1550521133 2.9478532602 2.7307615209 2.5048885524 
2.2715543208 2.0320907811 1.78768152 1.5392796631 1.2876159408 1.0332721525 0.7767742186 0.51866380369 0.25952941615 
8.736629467e-14 
_area 1 100 double
0 0.39326454039 1.554749133 3.4314323382 5.9408331949 8.978458687 12.426152128 16.160418386 20.060344121 
24.015076844 27.93084145 31.737256636 35.392382103 38.885487074 42.236055559 45.487499887 48.695253562 51.911578148 
55.171953982 58.487807719 61.847355345 65.223217058 68.584203092 71.908691579 75.196898951 78.478545079 81.811521878 
85.267788102 88.907485809 92.752103775 96.773888662 100.90835013 105.07761625 109.20791897 113.23518827 117.10275894 
120.75808008 124.15321804 127.24999771 130.02730843 132.48722467 134.66462121 136.66595821 138.7130322 140.5508206 
142.03197331 143.0820481 143.64468773 143.67462276 143.14031038 142.03154783 140.39726221 138.41651389 136.0617401 
133.20834401 129.88364149 126.18360159 122.2508836 118.25409473 114.36369328 110.72413942 107.43453974 104.53955988 
102.0293365 99.876458272 98.044588763 96.539924043 94.974742083 93.072192978 90.786899793 88.13984226 85.197435763 
82.044119317 78.754470058 75.374120748 71.915893407 68.369674365 64.717923788 60.948727898 57.062944828 53.076147175 
49.017493044 44.926842384 40.850077602 36.832585183 32.912531864 29.117152318 25.464147299 21.966404267 18.636158669 
15.487228839 12.537167476 9.8105838875 7.3414792353 5.1713150969 3.3426631036 1.8917119464 0.84341107429 0.21112696631 
3.4106051316e-13 
