# vtk DataFile Version 5.1
vtk output
ASCII
DATASET POLYDATA
POINTS 100 float
28.9185 35.4695 11.4151 28.9121 35.461 11.4232 28.8893 35.4332 11.4463 
28.8505 35.3873 11.4837 28.7961 35.325 11.5344 28.7267 35.2484 11.5971 
28.6434 35.1599 11.6699 28.5471 35.062 11.751 28.4392 34.9571 11.8384 
28.321 34.8473 11.9298 28.1937 34.7343 12.0234 28.0587 34.6194 12.1173 
27.9169 34.5036 12.2099 27.7692 34.3871 12.2999 27.6159 34.2703 12.3864 
27.4572 34.153 12.4688 27.2928 34.035 12.5468 27.1222 33.916 12.6207 
26.945 33.7957 12.6907 26.7605 33.6739 12.7575 26.5683 33.5503 12.8219 
26.3685 33.4246 12.8848 26.1614 33.2965 12.9471 25.948 33.1654 13.0099 
25.7297 33.0308 13.0739 25.5083 32.8921 13.1398 25.2859 32.7484 13.2084 
25.0649 32.5991 13.2799 24.8472 32.4435 13.3547 24.6346 32.2812 13.433 
24.428 32.1122 13.5147 24.2279 31.9369 13.5999 24.0338 31.7561 13.6886 
23.8445 31.5712 13.7807 23.6581 31.3839 13.8763 23.4724 31.1962 13.9756 
23.2849 31.0102 14.0789 23.0935 30.8281 14.1866 22.8962 30.6514 14.2991 
22.692 30.4814 14.4169 22.4808 30.3188 14.5407 22.2632 30.1634 14.6707 
22.0407 30.0145 14.8073 21.8157 29.8707 14.9505 21.5905 29.7302 15.1001 
21.3681 29.591 15.2555 21.1505 29.4512 15.4161 20.9397 29.3091 15.5806 
20.7364 29.1636 15.7478 20.5405 29.0142 15.9162 20.3507 28.8612 16.0843 
20.1652 28.7055 16.2509 19.9811 28.5486 16.4147 19.7956 28.3923 16.575 
19.6058 28.2387 16.7313 19.4093 28.0895 16.8836 19.2048 27.9459 17.0324 
18.9917 27.8087 17.1786 18.7708 27.6777 17.3233 18.544 27.5518 17.468 
18.3138 27.4294 17.6139 18.0837 27.3081 17.7626 17.8569 27.1854 17.9149 
17.6366 27.0586 18.0718 17.425 26.9255 18.2334 17.2236 26.7845 18.3996 
17.0322 26.6347 18.5697 16.8497 26.4764 18.7429 16.6735 26.3107 18.9177 
16.5002 26.1397 19.093 16.326 25.9662 19.2672 16.1469 25.7934 19.4394 
15.9594 25.6245 19.6084 15.7608 25.4625 19.774 15.5496 25.3098 19.9358 
15.3256 25.1678 20.0941 15.0901 25.0371 20.2495 14.8454 24.9172 20.4025 
14.5949 24.8069 20.5538 14.3422 24.7038 20.704 14.0911 24.6056 20.8531 
13.8449 24.5092 21.0009 13.6061 24.4122 21.1468 13.3762 24.3124 21.2895 
13.1557 24.208 21.4274 12.944 24.0986 21.5586 12.7396 23.984 21.6811 
12.541 23.8654 21.7927 12.3464 23.7443 21.8919 12.1546 23.6228 21.9774 
11.9655 23.5036 22.0485 11.7799 23.3892 22.1052 11.6001 23.2821 22.1483 
11.4295 23.1847 22.1792 11.2725 23.099 22.1996 11.1342 23.0265 22.2118 
11.0198 22.9686 22.2181 10.9341 22.926 22.2204 10.8809 22.8995 22.2204 
10.8628 22.8893 22.2194 
LINES 2 100
OFFSETS vtktypeint64
0 100 
CONNECTIVITY vtktypeint64
0 1 2 3 4 5 6 7 8 
9 10 11 12 13 14 15 16 17 
18 19 20 21 22 23 24 25 26 
27 28 29 30 31 32 33 34 35 
36 37 38 39 40 41 42 43 44 
45 46 47 48 49 50 51 52 53 
54 55 56 57 58 59 60 61 62 
63 64 65 66 67 68 69 70 71 
72 73 74 75 76 77 78 79 80 
81 82 83 84 85 86 87 88 89 
90 91 92 93 94 95 96 97 98 
99 
POINT_DATA 100
FIELD FieldData 3
_theta 1 100 double
0 0.031733259127 0.063466518254 0.095199777382 0.12693303651 0.15866629564 0.19039955476 0.22213281389 0.25386607302 
0.28559933214 0.31733259127 0.3490658504 0.38079910953 0.41253236865 0.44426562778 0.47599888691 0.50773214603 0.53946540516 
0.57119866429 0.60293192342 0.63466518254 0.66639844167 0.6981317008 0.72986495992 0.76159821905 0.79333147818 0.82506473731 
0.85679799643 0.88853125556 0.92026451469 0.95199777382 0.98373103294 1.0154642921 1.0471975512 1.0789308103 1.1106640695 
1.1423973286 1.1741305877 1.2058638468 1.237597106 1.2693303651 1.3010636242 1.3327968833 1.3645301425 1.3962634016 
1.4279966607 1.4597299198 1.491463179 1.5231964381 1.5549296972 1.5866629564 1.6183962155 1.6501294746 1.6818627337 
1.7135959929 1.745329252 1.7770625111 1.8087957702 1.8405290294 1.8722622885 1.9039955476 1.9357288068 1.9674620659 
1.999195325 2.0309285841 2.0626618433 2.0943951024 2.1261283615 2.1578616206 2.1895948798 2.2213281389 2.253061398 
2.2847946572 2.3165279163 2.3482611754 2.3799944345 2.4117276937 2.4434609528 2.4751942119 2.506927471 2.5386607302 
2.5703939893 2.6021272484 2.6338605076 2.6655937667 2.6973270258 2.7290602849 2.7607935441 2.7925268032 2.8242600623 
2.8559933214 2.8877265806 2.9194598397 2.9511930988 2.982926358 3.0146596171 3.0463928762 3.0781261353 3.1098593945 
3.1415926536 
_radius 1 100 double
7.8240402763e-14 0.23528405581 0.46843871159 0.69782581431 0.92285847653 1.1441647909 1.3633734376 1.5825441682 1.8034219498 
2.0267976795 2.2522037672 2.4779913321 2.7016793644 2.9204209472 3.1314612996 3.3325070165 3.5219620568 3.6990148437 
3.8635860467 4.0161680153 4.1576019042 4.2888447258 4.4107742936 4.5240654919 4.6291499343 4.7262495831 4.8154603813 
4.8968576985 4.9705997461 5.0370135541 5.0966560509 5.1503472957 5.1991734504 5.2444555862 5.287680232 5.330391453 
5.3740524086 5.4198938908 5.4687736741 5.5210701901 5.5766272989 5.63475733 5.6943009902 5.7537364814 5.8113250608 
5.8652752093 5.9139036112 5.955770864 5.9897748187 6.015193611 6.0316805206 6.0392203116 6.0380597823 6.0286244484 
6.0114310529 5.9870044157 5.9558073211 5.9181916091 5.8743753019 5.8244449253 5.7683771484 5.7060723406 5.6373948796 
5.5622182197 5.480472809 5.3921902061 5.2975303858 5.1967779736 5.0903016475 4.9784868356 4.8616664189 4.7400782641 
4.6138686072 4.4831411354 4.3480328057 4.2087879484 4.0658052242 3.9196442298 3.7709933053 3.6206110204 3.4692572735 
3.317626093 3.1662844822 3.0156139071 2.8657460095 2.7164853016 2.5672237377 2.4168743476 2.2638692469 2.1062601281 
1.9419211685 1.768809124 1.5852172264 1.3899777026 1.1826005452 0.96335651645 0.73331104806 0.49430288035 0.2488535314 
4.3135590418e-14 
_area 1 100 double
0 0.15822409156 0.62312636946 1.3702165079 2.3732796268 3.6207551311 5.1273766939 6.9329009696 9.0861692096 
11.622063685 14.543064515 17.813253079 21.365099035 25.113978078 28.974110094 32.871002615 36.747824445 40.565641827 
44.299509342 47.93330652 51.455698473 54.858176902 58.134665341 61.281343372 64.29546158 67.172831078 69.90481218 
72.476349538 74.866616673 77.053188734 79.019453327 80.763478103 82.305460688 83.690856342 84.98743173 86.276399145 
87.639745568 89.147167541 90.846028824 92.756032108 94.867342645 97.140032316 99.507299073 101.88581796 104.18829186 
106.33265591 108.24825276 109.88039236 111.19308085 112.16928571 112.80906201 113.12640546 113.14525628 112.8947574 
112.40411781 111.69763444 110.79033401 109.68481466 108.37055941 106.82718715 105.03120471 102.96341897 100.61423072 
97.98581916 95.091745424 91.95532352 88.608022055 85.087993187 81.437596514 77.699125892 73.909800709 70.098451034 
66.285670392 62.487026924 58.716985179 54.990943937 51.324390878 47.730409685 44.217897303 40.79212853 37.457727763 
34.222887744 31.102983221 28.121347579 25.305236755 22.676727974 20.241689857 17.982869304 15.862108312 13.831809435 
11.851045339 9.8999714545 7.9875283922 6.150597564 4.4461233931 2.9398361637 1.6954503792 0.76683305381 0.19369885106 
1.6059066013e-13 
