# vtk DataFile Version 5.1
vtk output
ASCII
DATASET POLYDATA
POINTS 1002 float
-5.70578 -0.380338 -5.34784 5.17663 -0.142809 -4.38829 -5.6524 0.310348 4.97279 
5.68378 -0.217308 3.57575 0.123286 7.07826 -3.05393 -0.0916614 5.94079 2.69572 
0.26121 -6.01335 -2.89737 0.181108 -6.10698 2.56441 8.42279 3.89334 0.400055 
-8.67878 4.756 -0.0307318 9.17631 -3.97008 0.278197 -9.62194 -3.89852 1.16168 
-4.7453 -0.434975 -5.33734 -3.65624 -0.432454 -5.30374 -2.47684 -0.429291 -5.31805 
-1.28935 -0.422438 -5.30891 -0.123104 -0.33993 -5.08882 1.0763 -0.200643 -4.70451 
2.31644 -0.121887 -4.47299 3.47988 -0.130936 -4.50115 4.4394 -0.152213 -4.54693 
-5.56489 0.119019 -5.46004 -5.29219 0.682341 -5.36469 -4.81035 1.39352 -4.94054 
-4.03158 2.25848 -4.30558 -3.00375 3.14242 -3.77306 -2.0041 3.93396 -3.53385 
-1.29672 4.69747 -3.4932 -0.840706 5.5264 -3.45285 -0.408316 6.3659 -3.30659 
-5.20662 -0.969134 -5.21222 -4.65035 -1.63585 -5.14338 -4.04252 -2.33756 -5.11765 
-3.38893 -3.01942 -4.97626 -2.71998 -3.68335 -4.67546 -2.06213 -4.36821 -4.36876 
-1.41584 -5.02382 -4.11079 -0.795242 -5.51893 -3.78085 -0.232937 -5.81439 -3.34112 
-6.59877 0.0667238 -5.39212 -7.56385 0.60292 -5.34321 -8.4951 1.19402 -5.08647 
-9.20045 1.77332 -4.53323 -9.52089 2.25855 -3.76922 -9.49908 2.67728 -2.97327 
-9.3306 3.18464 -2.20636 -9.14369 3.81895 -1.44357 -8.93572 4.40163 -0.704068 
-6.31776 -0.62424 -5.18085 -6.9332 -0.864327 -4.87903 -7.57209 -1.12741 -4.48108 
-8.2359 -1.46635 -4.0539 -8.82883 -1.87493 -3.49833 -9.19565 -2.26525 -2.619 
-9.32475 -2.59534 -1.49121 -9.38554 -2.93759 -0.428338 -9.49969 -3.37377 0.424158 
4.86954 0.450134 -4.31241 4.51926 1.06463 -4.26073 4.13619 1.80234 -4.14757 
3.72091 2.74635 -3.90914 3.28066 3.72787 -3.69019 2.79752 4.46957 -3.68291 
2.2013 5.02224 -3.79224 1.47416 5.66629 -3.74993 0.732796 6.43179 -3.46556 
4.95764 -0.796645 -4.55651 4.53872 -1.51119 -4.5412 4.01084 -2.20184 -4.42517 
3.49971 -2.84998 -4.32604 3.01297 -3.51918 -4.24195 2.46848 -4.19354 -4.03933 
1.85358 -4.74666 -3.6621 1.24247 -5.15149 -3.25457 0.70371 -5.53735 -2.99348 
5.57946 0.251549 -3.86043 5.90748 0.654228 -3.04517 6.39376 1.13248 -2.36045 
7.21728 1.79876 -2.18292 8.1579 2.55725 -2.29578 8.7471 3.0954 -2.11693 
8.82779 3.30475 -1.48799 8.65478 3.41139 -0.73713 8.49768 3.61472 -0.114862 
5.79586 -0.514412 -4.26163 6.5122 -0.906524 -4.06989 7.22869 -1.29053 -3.73507 
7.7769 -1.68493 -3.24777 8.16226 -2.1461 -2.72277 8.5766 -2.6419 -2.25616 
9.02647 -3.04181 -1.7848 9.28945 -3.32038 -1.18999 9.28905 -3.60269 -0.465792 
-4.85727 0.306838 4.82824 -4.00073 0.29975 4.57727 -2.93198 0.263591 4.20568 
-1.56228 0.120292 3.77478 -0.0525922 -0.0988614 3.45732 1.32733 -0.221576 3.36065 
2.50294 -0.182424 3.4079 3.58891 -0.112909 3.48634 4.66236 -0.129941 3.55166 
-5.4248 0.948575 4.89589 -5.15949 1.68727 4.83027 -4.77089 2.49387 4.80877 
-4.19102 3.25642 4.7677 -3.45828 3.85986 4.57578 -2.68855 4.30346 4.18273 
-1.96106 4.68406 3.69584 -1.2881 5.07839 3.26205 -0.663751 5.50215 2.93749 
-5.38687 -0.278405 4.95583 -5.09567 -0.873757 4.8805 -4.70108 -1.51195 4.70552 
-4.12959 -2.22175 4.38948 -3.40944 -2.97849 3.94626 -2.64612 -3.71708 3.49295 
-1.91258 -4.37786 3.16331 -1.20942 -4.95931 2.96069 -0.511248 -5.52141 2.78352 
-6.34913 0.694547 4.99125 -7.05757 1.09895 4.87894 -7.64918 1.48916 4.56702 
-8.11205 1.86378 4.07374 -8.50603 2.23164 3.5129 -8.78082 2.63688 2.95116 
-8.86186 3.17116 2.31693 -8.8201 3.82221 1.54474 -8.75799 4.40676 0.714773 
-6.3557 -0.118573 5.01502 -7.21535 -0.695053 4.88886 -8.12818 -1.39995 4.59691 
-8.93278 -2.13267 4.32407 -9.60495 -2.84156 4.23205 -10.2039 -3.51758 4.14523 
-10.6146 -4.02221 3.72119 -10.6251 -4.18975 2.91339 -10.2265 -4.07717 1.98287 
5.4194 0.33208 3.48257 4.99946 0.942599 3.30002 4.4312 1.59289 3.10138 
3.79994 2.28336 3.04898 3.15155 3.01661 3.14366 2.45416 3.74999 3.17133 
1.717 4.42692 3.03511 1.01988 5.02711 2.86879 0.417752 5.53885 2.77243 
5.24568 -0.665819 3.66057 4.78127 -1.13994 3.78639 4.3701 -1.73903 3.94133 
3.98606 -2.53265 4.0761 3.5138 -3.39415 4.0901 2.89683 -4.07644 3.90845 
2.2008 -4.53094 3.57697 1.50895 -4.95478 3.21009 0.839545 -5.49596 2.8726 
6.52145 0.0458802 3.53589 7.25339 0.42966 3.49493 7.80347 0.898744 3.40576 
8.24676 1.35143 3.22108 8.68596 1.78625 2.95157 9.06297 2.30747 2.6148 
9.21351 2.8962 2.16241 9.07914 3.38853 1.5738 8.76506 3.70041 0.945935 
6.43647 -0.622531 3.55931 7.26258 -1.05442 3.50899 8.19005 -1.46533 3.5685 
9.15993 -1.90035 3.69951 9.9498 -2.49392 3.5695 10.3036 -3.19871 3.00246 
10.1966 -3.71512 2.26248 9.85384 -3.88971 1.60359 9.494 -3.90163 0.973022 
0.207164 7.68962 -2.57327 0.364822 8.06964 -2.01965 0.496779 8.25173 -1.37431 
0.496205 8.35217 -0.641342 0.376654 8.34534 0.123355 0.242444 8.09307 0.866038 
0.141538 7.59826 1.54237 0.0525922 7.01197 2.08536 -0.0310739 6.44985 2.4577 
1.16024 7.28397 -2.95954 2.40684 7.30575 -2.77921 3.63413 7.25226 -2.59041 
4.65321 7.25805 -2.35189 5.49 7.24652 -1.92466 6.23166 6.94049 -1.3194 
6.86405 6.22772 -0.724114 7.38595 5.32769 -0.259858 7.88238 4.51895 0.0964751 
-0.704383 7.05511 -2.75079 -1.51438 6.71497 -2.37449 -2.50449 6.27419 -2.0279 
-3.72054 6.02387 -1.77076 -4.90151 5.90743 -1.55825 -5.85154 5.69788 -1.33202 
-6.68042 5.46789 -1.08686 -7.47926 5.35168 -0.808814 -8.16326 5.18552 -0.4583 
0.774684 6.14893 2.53154 1.7074 6.21375 2.3143 2.7083 6.06954 2.05359 
3.77827 5.88032 1.88355 4.90283 5.85619 1.88381 6.00428 5.9139 1.86422 
6.9331 5.75541 1.59589 7.58984 5.25715 1.149 8.03628 4.56674 0.733313 
-0.953458 6.00025 2.71021 -1.93279 6.14277 2.66759 -2.98698 6.50018 2.57453 
-4.00677 6.91345 2.44973 -4.90971 6.93729 2.22073 -5.72656 6.42754 1.7776 
-6.53122 5.81445 1.19888 -7.32782 5.4575 0.690293 -8.05976 5.20192 0.311051 
0.303377 -6.51699 -2.58277 0.348742 -7.14199 -2.18674 0.384928 -7.76286 -1.63676 
0.373256 -8.14171 -0.845102 0.297231 -8.2156 0.0846964 0.203775 -8.1496 0.852377 
0.155146 -7.9838 1.33996 0.160433 -7.56654 1.73167 0.181522 -6.87783 2.16581 
1.04363 -5.98872 -2.62388 1.97179 -6.22047 -2.60865 3 -6.51141 -2.65231 
4.0495 -6.46859 -2.36115 5.06792 -6.07295 -1.7309 6.04582 -5.7299 -1.20942 
6.97045 -5.55104 -0.957301 7.8064 -5.22536 -0.679791 8.53535 -4.62665 -0.218003 
-0.414841 -6.51876 -3.16562 -1.09939 -7.02703 -3.34854 -1.8933 -7.12847 -3.14687 
-2.94411 -6.64933 -2.54442 -4.2686 -5.9357 -1.80537 -5.63362 -5.41717 -1.12843 
-6.78402 -5.07867 -0.510879 -7.73717 -4.69783 0.0870671 -8.6686 -4.26259 0.654171 
1.33747 -6.36785 2.54654 2.50822 -6.64546 2.53892 3.45809 -6.66163 2.40466 
4.23495 -6.21821 2.10081 5.22693 -5.67037 1.76129 6.5154 -5.53205 1.52404 
7.63667 -5.63801 1.3485 8.30095 -5.427 1.09758 8.72548 -4.77121 0.717773 
-0.940957 -6.35074 2.45941 -2.14936 -6.52968 2.38248 -3.40757 -6.52515 2.27511 
-4.61729 -6.35616 2.23137 -5.6863 -6.20799 2.35421 -6.64721 -6.15665 2.48645 
-7.56445 -5.98655 2.37944 -8.39706 -5.4754 2.02985 -9.08041 -4.69561 1.59565 
9.12907 3.18954 0.343628 10.0636 2.48982 0.203965 11.0782 1.73947 0.0275949 
11.8512 0.900958 -0.0749376 12.1433 -0.0386195 -0.0413853 11.9796 -0.991985 0.0688396 
11.4851 -1.79043 0.169703 10.7533 -2.44286 0.23662 9.92681 -3.14596 0.273332 
-9.30033 3.83079 0.0175173 -9.91906 2.66424 0.0295898 -10.4928 1.68844 0.0416768 
-10.9616 0.992191 0.118502 -11.3344 0.118253 0.2722 -11.6285 -1.08885 0.474288 
-11.6841 -2.143 0.712566 -11.296 -2.78683 0.953881 -10.5196 -3.29617 1.12116 
-4.48049 0.0862206 -5.4489 -4.06455 0.703148 -5.33108 -3.24215 0.0813166 -5.46703 
-3.4195 1.52418 -4.85275 -2.67125 0.741992 -5.32645 -1.92853 0.072783 -5.4805 
-2.52294 2.50265 -4.22617 -1.9145 1.67107 -4.78318 -1.23942 0.777214 -5.22446 
-0.647953 0.115765 -5.31111 -1.55502 3.41786 -3.84973 -1.05044 2.73226 -4.19425 
-0.450199 1.77829 -4.60676 0.118598 0.862767 -4.92603 0.597386 0.256578 -4.93145 
-0.791678 4.16846 -3.81521 -0.27271 3.62812 -3.95771 0.312317 2.8609 -4.08768 
0.907719 1.86763 -4.38037 1.41856 1.00078 -4.64451 1.87046 0.404596 -4.6384 
-0.278074 4.8874 -3.85544 0.330403 4.3074 -3.98724 0.962475 3.73032 -3.91288 
1.59423 2.91597 -3.99117 2.17154 1.93205 -4.33032 2.66864 1.09673 -4.59794 
3.10416 0.46415 -4.60088 0.182622 5.67112 -3.74262 0.874932 4.9601 -3.95859 
1.56474 4.39284 -3.88688 2.19215 3.77953 -3.79648 2.76247 2.89468 -3.99909 
3.28148 1.91179 -4.36895 3.73868 1.1053 -4.57476 4.12625 0.461187 -4.57807 
-6.46029 0.599509 -5.43564 -7.36247 1.21294 -5.24509 -6.14293 1.24337 -5.14934 
-8.15195 1.95631 -4.81768 -6.94914 1.99839 -4.80696 -5.56187 2.05535 -4.55869 
-8.6621 2.71712 -4.16916 -7.60929 2.94353 -4.35673 -6.27355 2.93643 -4.21485 
-4.64095 2.95227 -3.91555 -8.80456 3.33379 -3.40363 -7.96918 3.84287 -3.78691 
-6.85593 3.96244 -3.89144 -5.27558 3.82468 -3.65838 -3.49619 3.78567 -3.44356 
-8.69452 3.82534 -2.60225 -7.97251 4.43233 -3.05484 -7.11679 4.76228 -3.39936 
-5.81483 4.70619 -3.38023 -4.08339 4.54297 -3.15604 -2.46633 4.5628 -3.16854 
-8.52457 4.33424 -1.81294 -7.79036 4.77318 -2.21608 -7.02664 5.12062 -2.6335 
-6.03437 5.24931 -2.84597 -4.59037 5.19071 -2.77528 -3.00847 5.21702 -2.74213 
-1.7578 5.39679 -3.01706 -8.36018 4.83844 -1.09225 -7.61848 5.0718 -1.43978 
-6.82093 5.27028 -1.78594 -5.96581 5.47384 -2.07752 -4.83488 5.57489 -2.21229 
-3.44909 5.68073 -2.2774 -2.19167 5.96358 -2.49836 -1.24032 6.274 -2.90469 
-7.46067 5.50316 -0.12652 -6.65363 5.82031 0.290785 -6.70153 5.68859 -0.451335 
-5.79956 6.4594 0.848015 -5.86339 6.33535 -0.0067612 -5.86133 6.02612 -0.681732 
-4.93181 7.19701 1.39517 -4.99241 7.27028 0.492959 -5.0121 6.97927 -0.274111 
-4.95531 6.4097 -0.918204 -4.01002 7.39846 1.74166 -4.04727 7.7978 0.894342 
-4.0774 7.80897 0.0710431 -3.99302 7.27008 -0.624658 -3.84533 6.54013 -1.22819 
-2.9899 7.0036 1.94082 -2.98942 7.55019 1.16805 -2.9906 7.90842 0.354612 
-2.89637 7.74092 -0.398584 -2.71893 7.15625 -1.05124 -2.58634 6.61679 -1.58846 
-1.92346 6.58587 2.14231 -1.88539 7.09589 1.45883 -1.83466 7.5895 0.691547 
-1.71994 7.78833 -0.0771668 -1.54812 7.58135 -0.808516 -1.45283 7.2477 -1.44733 
[...]
POINT_DATA 1002
FIELD FieldData 4
_paraPhi 1 1002 double
6.2831853072 3.1415926536 6.2831853072 3.1415926536 4.7123889804 4.7123889804 1.5707963268 1.5707963268 3.6951670125 
5.7296109483 2.5880182947 0.5535743589 6.2831853072 6.2831853072 6.2831853072 6.2831853072 3.1415926536 3.1415926536 
3.1415926536 3.1415926536 3.1415926536 6.1053039672 5.898798347 5.6768734901 5.4599499503 5.2659633393 5.1032165617 
4.9713148346 4.8656852733 4.7809517865 0.17788134 0.38438696014 0.60631181711 0.82323535693 1.0172219679 1.1799687454 
1.3118704726 1.4175000338 1.5022335207 6.1892828907 6.1070320098 6.035312792 5.9728339911 5.9183214791 5.8706119594 
5.8286879411 5.7916808611 5.7588591896 0.093902416448 0.17615329733 0.2478725152 0.31035131605 0.36486382811 0.41257334776 
0.45449736604 0.4915044461 0.52432611754 3.3194739936 3.5259796137 3.7479044707 3.9648280105 4.1588146215 4.321561399 
4.4534631262 4.5590926874 4.6438261743 2.9637113136 2.7572056934 2.5352808365 2.3183572967 2.1243706857 1.9616239082 
1.829722181 1.7240926197 1.6393591329 3.23549507 3.3177459509 3.3894651688 3.4519439696 3.5064564817 3.5541660013 
3.5960900196 3.6330970997 3.6659187711 3.0476902371 2.9654393563 2.8937201384 2.8312413375 2.7767288255 2.7290193058 
2.6870952876 2.6500882075 2.617266536 6.2831853072 6.2831853072 6.2831853072 6.2831853072 3.1415926536 3.1415926536 
3.1415926536 3.1415926536 3.1415926536 6.1053039672 5.898798347 5.6768734901 5.4599499503 5.2659633393 5.1032165617 
4.9713148346 4.8656852733 4.7809517865 0.17788134 0.38438696014 0.60631181711 0.82323535693 1.0172219679 1.1799687454 
1.3118704726 1.4175000338 1.5022335207 6.1892828907 6.1070320098 6.035312792 5.9728339911 5.9183214791 5.8706119594 
5.8286879411 5.7916808611 5.7588591896 0.093902416448 0.17615329733 0.2478725152 0.31035131605 0.36486382811 0.41257334776 
0.45449736604 0.4915044461 0.52432611754 3.3194739936 3.5259796137 3.7479044707 3.9648280105 4.1588146215 4.321561399 
4.4534631262 4.5590926874 4.6438261743 2.9637113136 2.7572056934 2.5352808365 2.3183572967 2.1243706857 1.9616239082 
1.829722181 1.7240926197 1.6393591329 3.23549507 3.3177459509 3.3894651688 3.4519439696 3.5064564817 3.5541660013 
3.5960900196 3.6330970997 3.6659187711 3.0476902371 2.9654393563 2.8937201384 2.8312413375 2.7767288255 2.7290193058 
2.6870952876 2.6500882075 2.617266536 4.7123889804 4.7123889804 4.7123889804 4.7123889804 4.7123889804 4.7123889804 
4.7123889804 4.7123889804 4.7123889804 4.6087898617 4.4991390697 4.3857031936 4.2712800401 4.1588146215 4.0509635631 
3.94975894 3.8564636551 3.7716124825 4.8159880991 4.9256388911 5.0390747672 5.1534979207 5.2659633393 5.3738143976 
5.4750190208 5.5683143056 5.6531654782 4.6087898617 4.4991390697 4.3857031936 4.2712800401 4.1588146215 4.0509635631 
3.94975894 3.8564636551 3.7716124825 4.8159880991 4.9256388911 5.0390747672 5.1534979207 5.2659633393 5.3738143976 
5.4750190208 5.5683143056 5.6531654782 1.5707963268 1.5707963268 1.5707963268 1.5707963268 1.5707963268 1.5707963268 
1.5707963268 1.5707963268 1.5707963268 1.6743954455 1.7840462375 1.8974821136 2.0119052671 2.1243706857 2.232221744 
2.3334263672 2.426721652 2.5115728246 1.4671972081 1.3575464161 1.24411054 1.1296873865 1.0172219679 0.90937090954 
0.80816628637 0.71487100155 0.63001982895 1.6743954455 1.7840462375 1.8974821136 2.0119052671 2.1243706857 2.232221744 
2.3334263672 2.426721652 2.5115728246 1.4671972081 1.3575464161 1.24411054 1.1296873865 1.0172219679 0.90937090954 
0.80816628637 0.71487100155 0.63001982895 3.6007720849 3.4966939854 3.3839471039 3.2645756454 3.1415926536 3.0186096618 
2.8992382033 2.7864913217 2.6824132222 5.8240058758 5.9280839753 6.0408308569 6.1602023154 6.2831853072 0.12298299178 
0.2423544503 0.35510133185 0.45917943135 6.0560271438 5.7885595667 5.9702140275 5.5125918794 5.6029703303 5.7885595667 
5.2659633393 5.2659633393 5.2659633393 5.2659633393 5.0674903122 5.0120975802 4.9155579264 4.7123889804 4.1588146215 
4.9155579264 4.8353719722 4.7123889804 4.5092200343 4.1588146215 3.6362183941 4.8004512023 4.7123889804 4.5894059886 
4.4126803806 4.1588146215 3.8218076305 3.4545639333 4.7123889804 4.6243267584 4.5092200343 4.3572876485 4.1588146215 
3.9121860814 3.6362183941 3.368750817 6.0174235957 5.9434319871 5.8263323547 5.8809213739 5.7674481418 5.6279784266 
5.8278025282 5.718968232 5.5891129425 5.4372443565 5.7823484065 5.678536687 5.5575666702 5.4192596322 5.2659633393 
5.743164462 5.6444075337 5.5314983644 5.4046708639 5.2659633393 5.1195510325 5.7091357773 5.6152775188 5.5096229709 
5.3926039573 5.2659633393 5.1329233157 4.9978930058 5.6793730533 5.5901633916 5.4910209005 5.3824597928 5.2659633393 
5.1440684722 5.0201624502 4.8979782167 5.5683143056 5.4750190208 5.4750190208 5.3738143976 5.3738143976 5.3738143976 
5.2659633393 5.2659633393 5.2659633393 5.2659633393 5.1534979207 5.1534979207 5.1534979207 5.1534979207 5.1534979207 
5.0390747672 5.0390747672 5.0390747672 5.0390747672 5.0390747672 5.0390747672 4.9256388911 4.9256388911 4.9256388911 
4.9256388911 4.9256388911 4.9256388911 4.9256388911 4.8159880991 4.8159880991 4.8159880991 4.8159880991 4.8159880991 
4.8159880991 4.8159880991 4.8159880991 4.6087898617 4.6087898617 4.4991390697 4.6087898617 4.4991390697 4.3857031936 
4.6087898617 4.4991390697 4.3857031936 4.2712800401 4.6087898617 4.4991390697 4.3857031936 4.2712800401 4.1588146215 
4.6087898617 4.4991390697 4.3857031936 4.2712800401 4.1588146215 4.0509635631 4.6087898617 4.4991390697 4.3857031936 
4.2712800401 4.1588146215 4.0509635631 3.94975894 4.6087898617 4.4991390697 4.3857031936 4.2712800401 4.1588146215 
4.0509635631 3.94975894 3.8564636551 4.526799744 4.4046155105 4.426884955 4.2807094886 4.2918546451 4.3052269283 
4.1588146215 4.1588146215 4.1588146215 4.1588146215 4.042318168 4.0321740035 4.0201070968 4.0055183285 3.9875336042 
3.9337570603 3.9151549899 3.8932795963 3.8672112905 3.8356650183 3.7967995342 3.8346145692 3.809500442 3.7803704271 
3.7462412737 3.7058097288 3.657329819 3.5984456061 3.7454049075 3.7156421835 3.6816134988 3.6424295543 3.5969754326 
3.5438565869 3.4813459737 3.4073543651 3.5642842451 3.4524645613 3.5233842518 3.3320300872 3.403123212 3.4773852225 
3.20576226 3.2746326772 3.348015857 3.4255060145 3.0774230472 3.1415926536 3.2112816139 3.2864685043 3.3668817272 
2.95115522 3.00855263 3.0719036933 3.1415926536 3.2178377658 3.3005964304 2.8307207459 2.8800620952 2.9351694502 
2.9967168029 3.0653475414 3.1415926536 3.225752376 2.718901062 2.7598010554 2.8058000847 2.8576792927 2.91630358 
2.9825888767 3.0574329311 3.1415926536 3.5642842451 3.5233842518 3.4524645613 3.4773852225 3.403123212 3.3320300872 
3.4255060145 3.348015857 3.2746326772 3.20576226 3.3668817272 3.2864685043 3.2112816139 3.1415926536 3.0774230472 
3.3005964304 3.2178377658 3.1415926536 3.0719036933 3.00855263 2.95115522 3.225752376 3.1415926536 3.0653475414 
2.9967168029 2.9351694502 2.8800620952 2.8307207459 3.1415926536 3.0574329311 2.9825888767 2.91630358 2.8576792927 
2.8058000847 2.7598010554 2.718901062 4.526799744 4.426884955 4.4046155105 4.3052269283 4.2918546451 4.2807094886 
4.1588146215 4.1588146215 4.1588146215 4.1588146215 3.9875336042 4.0055183285 4.0201070968 4.0321740035 4.042318168 
3.7967995342 3.8356650183 3.8672112905 3.8932795963 3.9151549899 3.9337570603 3.5984456061 3.657329819 3.7058097288 
3.7462412737 3.7803704271 3.809500442 3.8346145692 3.4073543651 3.4813459737 3.5438565869 3.5969754326 3.6424295543 
3.6816134988 3.7156421835 3.7454049075 4.7123889804 4.8004512023 4.6243267584 4.9155579264 4.7123889804 4.5092200343 
5.0674903122 4.8353719722 4.5894059886 4.3572876485 5.2659633393 5.0120975802 4.7123889804 4.4126803806 4.1588146215 
5.5125918794 5.2659633393 4.9155579264 4.5092200343 4.1588146215 3.9121860814 5.7885595667 5.6029703303 5.2659633393 
4.7123889804 4.1588146215 3.8218076305 3.6362183941 6.0560271438 5.9702140275 5.7885595667 5.2659633393 4.1588146215 
3.6362183941 3.4545639333 3.368750817 0.22715816343 0.49462574053 0.3129712797 0.77059342779 0.68021497688 0.49462574053 
1.0172219679 1.0172219679 1.0172219679 1.0172219679 1.2156949949 1.271087727 1.3676273807 1.5707963268 2.1243706857 
1.3676273807 1.447813335 1.5707963268 1.7739652728 2.1243706857 2.6469669131 1.4827341049 1.5707963268 1.6937793186 
1.8705049266 2.1243706857 2.4613776767 2.8286213739 1.5707963268 1.6588585487 1.7739652728 1.9258976586 2.1243706857 
2.3709992258 2.6469669131 2.9144344902 1.7563855631 1.8785697967 1.8563003522 2.0024758186 1.9913306621 1.9779583789 
2.1243706857 2.1243706857 2.1243706857 2.1243706857 2.2408671392 2.2510113037 2.2630782103 2.2776669786 2.295651703 
2.3494282469 2.3680303173 2.3899057108 2.4159740166 2.4475202889 2.486385773 2.448570738 2.4736848652 2.5028148801 
2.5369440334 2.5773755784 2.6258554882 2.6847397011 2.5377803997 2.5675431237 2.6015718084 2.6407557529 2.6862098746 
2.7393287203 2.8018393335 2.8758309421 1.6743954455 1.6743954455 1.7840462375 1.6743954455 1.7840462375 1.8974821136 
1.6743954455 1.7840462375 1.8974821136 2.0119052671 1.6743954455 1.7840462375 1.8974821136 2.0119052671 2.1243706857 
1.6743954455 1.7840462375 1.8974821136 2.0119052671 2.1243706857 2.232221744 1.6743954455 1.7840462375 1.8974821136 
2.0119052671 2.1243706857 2.232221744 2.3334263672 1.6743954455 1.7840462375 1.8974821136 2.0119052671 2.1243706857 
2.232221744 2.3334263672 2.426721652 1.4671972081 1.3575464161 1.4671972081 1.24411054 1.3575464161 1.4671972081 
1.1296873865 1.24411054 1.3575464161 1.4671972081 1.0172219679 1.1296873865 1.24411054 1.3575464161 1.4671972081 
0.90937090954 1.0172219679 1.1296873865 1.24411054 1.3575464161 1.4671972081 0.80816628637 0.90937090954 1.0172219679 
1.1296873865 1.24411054 1.3575464161 1.4671972081 0.71487100155 0.80816628637 0.90937090954 1.0172219679 1.1296873865 
1.24411054 1.3575464161 1.4671972081 0.60381225391 0.57404952988 0.69302191562 0.54002084522 0.66790778838 0.79216440667 
0.50083690068 0.63877777351 0.77356233629 0.90072551443 0.45538277901 0.60464862014 0.75168694275 0.89058134991 1.0172219679 
0.40226393329 0.56421707518 0.72561863695 0.87851444325 1.0172219679 1.139116835 0.33975332011 0.51573716537 0.69407236469 
0.86392567495 1.0172219679 1.1502619915 1.2630228569 0.26576171152 0.45685295248 0.6552068806 0.84594095064 1.0172219679 
1.1636342747 1.2852923014 1.3852070904 0.22715816343 0.3129712797 0.49462574053 0.49462574053 0.68021497688 0.77059342779 
1.0172219679 1.0172219679 1.0172219679 1.0172219679 2.1243706857 1.5707963268 1.3676273807 1.271087727 1.2156949949 
2.6469669131 2.1243706857 1.7739652728 1.5707963268 1.447813335 1.3676273807 2.8286213739 2.4613776767 2.1243706857 
1.8705049266 1.6937793186 1.5707963268 1.4827341049 2.9144344902 2.6469669131 2.3709992258 2.1243706857 1.9258976586 
1.7739652728 1.6588585487 1.5707963268 1.7563855631 1.8563003522 1.8785697967 1.9779583789 1.9913306621 2.0024758186 
2.1243706857 2.1243706857 2.1243706857 2.1243706857 2.295651703 2.2776669786 2.2630782103 2.2510113037 2.2408671392 
2.486385773 2.4475202889 2.4159740166 2.3899057108 2.3680303173 2.3494282469 2.6847397011 2.6258554882 2.5773755784 
2.5369440334 2.5028148801 2.4736848652 2.448570738 2.8758309421 2.8018393335 2.7393287203 2.6862098746 2.6407557529 
2.6015718084 2.5675431237 2.5377803997 5.8604937156 5.901393709 5.9723133995 5.9473927383 6.0216547488 6.0927478736 
5.9992719463 6.0767621038 6.1501452836 6.2190157008 6.0578962336 6.1383094565 6.2134963469 0 0.064169606361 
6.1241815303 6.206940195 6.2831853072 0.069688960264 0.13304002361 0.19043743361 6.1990255847 0 0.07624511221 
0.14487585072 0.20642320337 0.26153055843 0.3108719077 0 0.084159722458 0.15900377685 0.22528907359 0.28391336087 
0.3357925689 0.38179159818 0.42269159155 5.8604937156 5.9723133995 5.901393709 6.0927478736 6.0216547488 5.9473927383 
6.2190157008 6.1501452836 6.0767621038 5.9992719463 0.064169606361 0 6.2134963469 6.1383094565 6.0578962336 
0.19043743361 0.13304002361 0.069688960264 6.2831853072 6.206940195 6.1241815303 0.3108719077 0.26153055843 0.20642320337 
0.14487585072 0.07624511221 6.2831853072 6.1990255847 0.42269159155 0.38179159818 0.3357925689 0.28391336087 0.22528907359 
0.15900377685 0.084159722458 0 5.6793730533 5.7091357773 5.5901633916 5.743164462 5.6152775188 5.4910209005 
5.7823484065 5.6444075337 5.5096229709 5.3824597928 5.8278025282 5.678536687 5.5314983644 5.3926039573 5.2659633393 
5.8809213739 5.718968232 5.5575666702 5.4046708639 5.2659633393 5.1440684722 5.9434319871 5.7674481418 5.5891129425 
5.4192596322 5.2659633393 5.1329233157 5.0201624502 6.0174235957 5.8263323547 5.6279784266 5.4372443565 5.2659633393 
5.1195510325 4.9978930058 4.8979782167 1.3852070904 1.2852923014 1.2630228569 1.1636342747 1.1502619915 1.139116835 
1.0172219679 1.0172219679 1.0172219679 1.0172219679 0.84594095064 0.86392567495 0.87851444325 0.89058134991 0.90072551443 
0.6552068806 0.69407236469 0.72561863695 0.75168694275 0.77356233629 0.79216440667 0.45685295248 0.51573716537 0.56421707518 
0.60464862014 0.63877777351 0.66790778838 0.69302191562 0.26576171152 0.33975332011 0.40226393329 0.45538277901 0.50083690068 
0.54002084522 0.57404952988 0.60381225391 
_paraPhiHalf 1 1002 double
0 3.1415926536 0 3.1415926536 1.5707963268 1.5707963268 1.5707963268 1.5707963268 2.5880182947 
0.5535743589 2.5880182947 0.5535743589 0 0 0 0 3.1415926536 3.1415926536 
3.1415926536 3.1415926536 3.1415926536 0.17788134 0.38438696014 0.60631181711 0.82323535693 1.0172219679 1.1799687454 
1.3118704726 1.4175000338 1.5022335207 0.17788134 0.38438696014 0.60631181711 0.82323535693 1.0172219679 1.1799687454 
1.3118704726 1.4175000338 1.5022335207 0.093902416448 0.17615329733 0.2478725152 0.31035131605 0.36486382811 0.41257334776 
0.45449736604 0.4915044461 0.52432611754 0.093902416448 0.17615329733 0.2478725152 0.31035131605 0.36486382811 0.41257334776 
0.45449736604 0.4915044461 0.52432611754 2.9637113136 2.7572056934 2.5352808365 2.3183572967 2.1243706857 1.9616239082 
1.829722181 1.7240926197 1.6393591329 2.9637113136 2.7572056934 2.5352808365 2.3183572967 2.1243706857 1.9616239082 
1.829722181 1.7240926197 1.6393591329 3.0476902371 2.9654393563 2.8937201384 2.8312413375 2.7767288255 2.7290193058 
2.6870952876 2.6500882075 2.617266536 3.0476902371 2.9654393563 2.8937201384 2.8312413375 2.7767288255 2.7290193058 
2.6870952876 2.6500882075 2.617266536 0 0 0 0 3.1415926536 3.1415926536 
3.1415926536 3.1415926536 3.1415926536 0.17788134 0.38438696014 0.60631181711 0.82323535693 1.0172219679 1.1799687454 
1.3118704726 1.4175000338 1.5022335207 0.17788134 0.38438696014 0.60631181711 0.82323535693 1.0172219679 1.1799687454 
1.3118704726 1.4175000338 1.5022335207 0.093902416448 0.17615329733 0.2478725152 0.31035131605 0.36486382811 0.41257334776 
0.45449736604 0.4915044461 0.52432611754 0.093902416448 0.17615329733 0.2478725152 0.31035131605 0.36486382811 0.41257334776 
0.45449736604 0.4915044461 0.52432611754 2.9637113136 2.7572056934 2.5352808365 2.3183572967 2.1243706857 1.9616239082 
1.829722181 1.7240926197 1.6393591329 2.9637113136 2.7572056934 2.5352808365 2.3183572967 2.1243706857 1.9616239082 
1.829722181 1.7240926197 1.6393591329 3.0476902371 2.9654393563 2.8937201384 2.8312413375 2.7767288255 2.7290193058 
2.6870952876 2.6500882075 2.617266536 3.0476902371 2.9654393563 2.8937201384 2.8312413375 2.7767288255 2.7290193058 
2.6870952876 2.6500882075 2.617266536 1.5707963268 1.5707963268 1.5707963268 1.5707963268 1.5707963268 1.5707963268 
1.5707963268 1.5707963268 1.5707963268 1.6743954455 1.7840462375 1.8974821136 2.0119052671 2.1243706857 2.232221744 
2.3334263672 2.426721652 2.5115728246 1.4671972081 1.3575464161 1.24411054 1.1296873865 1.0172219679 0.90937090954 
0.80816628637 0.71487100155 0.63001982895 1.6743954455 1.7840462375 1.8974821136 2.0119052671 2.1243706857 2.232221744 
2.3334263672 2.426721652 2.5115728246 1.4671972081 1.3575464161 1.24411054 1.1296873865 1.0172219679 0.90937090954 
0.80816628637 0.71487100155 0.63001982895 1.5707963268 1.5707963268 1.5707963268 1.5707963268 1.5707963268 1.5707963268 
1.5707963268 1.5707963268 1.5707963268 1.6743954455 1.7840462375 1.8974821136 2.0119052671 2.1243706857 2.232221744 
2.3334263672 2.426721652 2.5115728246 1.4671972081 1.3575464161 1.24411054 1.1296873865 1.0172219679 0.90937090954 
0.80816628637 0.71487100155 0.63001982895 1.6743954455 1.7840462375 1.8974821136 2.0119052671 2.1243706857 2.232221744 
2.3334263672 2.426721652 2.5115728246 1.4671972081 1.3575464161 1.24411054 1.1296873865 1.0172219679 0.90937090954 
0.80816628637 0.71487100155 0.63001982895 2.6824132222 2.7864913217 2.8992382033 3.0186096618 3.1415926536 3.0186096618 
2.8992382033 2.7864913217 2.6824132222 0.45917943135 0.35510133185 0.2423544503 0.12298299178 0 0.12298299178 
0.2423544503 0.35510133185 0.45917943135 0.22715816343 0.49462574053 0.3129712797 0.77059342779 0.68021497688 0.49462574053 
1.0172219679 1.0172219679 1.0172219679 1.0172219679 1.2156949949 1.271087727 1.3676273807 1.5707963268 2.1243706857 
1.3676273807 1.447813335 1.5707963268 1.7739652728 2.1243706857 2.6469669131 1.4827341049 1.5707963268 1.6937793186 
1.8705049266 2.1243706857 2.4613776767 2.8286213739 1.5707963268 1.6588585487 1.7739652728 1.9258976586 2.1243706857 
2.3709992258 2.6469669131 2.9144344902 0.26576171152 0.33975332011 0.45685295248 0.40226393329 0.51573716537 0.6552068806 
0.45538277901 0.56421707518 0.69407236469 0.84594095064 0.50083690068 0.60464862014 0.72561863695 0.86392567495 1.0172219679 
0.54002084522 0.63877777351 0.75168694275 0.87851444325 1.0172219679 1.1636342747 0.57404952988 0.66790778838 0.77356233629 
0.89058134991 1.0172219679 1.1502619915 1.2852923014 0.60381225391 0.69302191562 0.79216440667 0.90072551443 1.0172219679 
1.139116835 1.2630228569 1.3852070904 0.71487100155 0.80816628637 0.80816628637 0.90937090954 0.90937090954 0.90937090954 
1.0172219679 1.0172219679 1.0172219679 1.0172219679 1.1296873865 1.1296873865 1.1296873865 1.1296873865 1.1296873865 
1.24411054 1.24411054 1.24411054 1.24411054 1.24411054 1.24411054 1.3575464161 1.3575464161 1.3575464161 
1.3575464161 1.3575464161 1.3575464161 1.3575464161 1.4671972081 1.4671972081 1.4671972081 1.4671972081 1.4671972081 
1.4671972081 1.4671972081 1.4671972081 1.6743954455 1.6743954455 1.7840462375 1.6743954455 1.7840462375 1.8974821136 
1.6743954455 1.7840462375 1.8974821136 2.0119052671 1.6743954455 1.7840462375 1.8974821136 2.0119052671 2.1243706857 
1.6743954455 1.7840462375 1.8974821136 2.0119052671 2.1243706857 2.232221744 1.6743954455 1.7840462375 1.8974821136 
2.0119052671 2.1243706857 2.232221744 2.3334263672 1.6743954455 1.7840462375 1.8974821136 2.0119052671 2.1243706857 
2.232221744 2.3334263672 2.426721652 1.7563855631 1.8785697967 1.8563003522 2.0024758186 1.9913306621 1.9779583789 
2.1243706857 2.1243706857 2.1243706857 2.1243706857 2.2408671392 2.2510113037 2.2630782103 2.2776669786 2.295651703 
2.3494282469 2.3680303173 2.3899057108 2.4159740166 2.4475202889 2.486385773 2.448570738 2.4736848652 2.5028148801 
2.5369440334 2.5773755784 2.6258554882 2.6847397011 2.5377803997 2.5675431237 2.6015718084 2.6407557529 2.6862098746 
2.7393287203 2.8018393335 2.8758309421 2.718901062 2.8307207459 2.7598010554 2.95115522 2.8800620952 2.8058000847 
3.0774230472 3.00855263 2.9351694502 2.8576792927 3.0774230472 3.1415926536 3.0719036933 2.9967168029 2.91630358 
2.95115522 3.00855263 3.0719036933 3.1415926536 3.0653475414 2.9825888767 2.8307207459 2.8800620952 2.9351694502 
2.9967168029 3.0653475414 3.1415926536 3.0574329311 2.718901062 2.7598010554 2.8058000847 2.8576792927 2.91630358 
2.9825888767 3.0574329311 3.1415926536 2.718901062 2.7598010554 2.8307207459 2.8058000847 2.8800620952 2.95115522 
2.8576792927 2.9351694502 3.00855263 3.0774230472 2.91630358 2.9967168029 3.0719036933 3.1415926536 3.0774230472 
2.9825888767 3.0653475414 3.1415926536 3.0719036933 3.00855263 2.95115522 3.0574329311 3.1415926536 3.0653475414 