# vtk DataFile Version 5.1
vtk output
ASCII
DATASET POLYDATA
POINTS 100 float
7.10517 28.0901 16.9936 7.12982 28.1013 16.9905 7.20394 28.1332 16.9766 
7.32505 28.1851 16.9521 7.48923 28.2559 16.9172 7.69143 28.3441 16.8726 
7.92582 28.4478 16.8188 8.18624 28.5648 16.7567 8.46657 28.6927 16.6872 
8.76114 28.8289 16.6115 9.06498 28.9709 16.5309 9.3741 29.1165 16.4466 
9.68551 29.2638 16.3599 9.99727 29.4113 16.272 10.3084 29.5584 16.1839 
10.6185 29.7048 16.0965 10.9278 29.8511 16.0104 11.2368 29.9985 15.926 
11.5458 30.1484 15.8433 11.8551 30.3027 15.7622 12.1644 30.4631 15.6824 
12.4733 30.6311 15.6035 12.7808 30.8078 15.525 13.0855 30.9934 15.4465 
13.3861 31.1874 15.3675 13.6811 31.3885 15.2879 13.9692 31.5946 15.2075 
14.2496 31.8029 15.1264 14.5217 32.0103 15.0448 14.7859 32.2136 14.9629 
15.0427 32.41 14.8811 15.2933 32.5969 14.7997 15.5392 32.773 14.7188 
15.7823 32.9376 14.6385 16.0242 33.0912 14.5588 16.2665 33.2355 14.4795 
16.5103 33.3728 14.4001 16.7565 33.5062 14.3203 17.0051 33.6391 14.2396 
17.2557 33.7748 14.1574 17.5076 33.9162 14.0733 17.7594 34.0657 13.987 
18.0097 34.2245 13.8981 18.2568 34.393 13.8067 18.4996 34.5705 13.7127 
18.7369 34.7555 13.6162 18.968 34.9458 13.5176 19.1928 35.1389 13.417 
19.4117 35.332 13.3148 19.6255 35.5228 13.2111 19.8354 35.7096 13.1063 
20.0427 35.8913 13.0005 20.2489 36.0676 12.894 20.4554 36.2393 12.7868 
20.6631 36.4079 12.6793 20.8726 36.5752 12.5718 21.084 36.7436 12.4647 
21.2969 36.9156 12.3585 21.5105 37.0931 12.2539 21.7233 37.2779 12.1517 
21.9337 37.4711 12.0527 22.14 37.673 11.9577 22.3404 37.8831 11.8676 
22.5333 38.1005 11.7831 22.7175 38.3238 11.7046 22.8923 38.5513 11.6326 
23.0573 38.7811 11.5672 23.2129 39.0115 11.5083 23.3597 39.2414 11.4557 
23.499 39.4695 11.4091 23.6323 39.6954 11.3682 23.7612 39.9189 11.3324 
23.8875 40.1399 11.3015 24.0127 40.3586 11.2751 24.1381 40.5752 11.253 
24.2648 40.7895 11.2351 24.3932 41.0012 11.2212 24.5233 41.2094 11.211 
24.6548 41.4128 11.2043 24.7867 41.6098 11.2004 24.9179 41.7984 11.1985 
25.0468 41.9765 11.1976 25.1718 42.1421 11.1962 25.2912 42.2932 11.1928 
25.4035 42.4283 11.1857 25.5072 42.5464 11.1733 25.6013 42.6469 11.1541 
25.685 42.7299 11.127 25.7578 42.7963 11.0914 25.8198 42.8473 11.0474 
25.8713 42.8845 10.9958 25.913 42.91 10.9381 25.9458 42.9258 10.8764 
25.9709 42.9342 10.8135 25.9894 42.9372 10.7524 26.0026 42.9367 10.6965 
26.0115 42.9343 10.6487 26.0172 42.9314 10.6119 26.0203 42.9288 10.5881 
26.0213 42.9272 10.5788 
LINES 2 100
OFFSETS vtktypeint64
0 100 
CONNECTIVITY vtktypeint64
0 1 2 3 4 5 6 7 8 
9 10 11 12 13 14 15 16 17 
18 19 20 21 22 23 24 25 26 
27 28 29 30 31 32 33 34 35 
36 37 38 39 40 41 42 43 44 
45 46 47 48 49 50 51 52 53 
54 55 56 57 58 59 60 61 62 
63 64 65 66 67 68 69 70 71 
72 73 74 75 76 77 78 79 80 
81 82 83 84 85 86 87 88 89 
90 91 92 93 94 95 96 97 98 
99 
POINT_DATA 100
FIELD FieldData 3
_theta 1 100 double
0 0.031733259127 0.063466518254 0.095199777382 0.12693303651 0.15866629564 0.19039955476 0.22213281389 0.25386607302 
0.28559933214 0.31733259127 0.3490658504 0.38079910953 0.41253236865 0.44426562778 0.47599888691 0.50773214603 0.53946540516 
0.57119866429 0.60293192342 0.63466518254 0.66639844167 0.6981317008 0.72986495992 0.76159821905 0.79333147818 0.82506473731 
0.85679799643 0.88853125556 0.92026451469 0.95199777382 0.98373103294 1.0154642921 1.0471975512 1.0789308103 1.1106640695 
1.1423973286 1.1741305877 1.2058638468 1.237597106 1.2693303651 1.3010636242 1.3327968833 1.3645301425 1.3962634016 
1.4279966607 1.4597299198 1.491463179 1.5231964381 1.5549296972 1.5866629564 1.6183962155 1.6501294746 1.6818627337 
1.7135959929 1.745329252 1.7770625111 1.8087957702 1.8405290294 1.8722622885 1.9039955476 1.9357288068 1.9674620659 
1.999195325 2.0309285841 2.0626618433 2.0943951024 2.1261283615 2.1578616206 2.1895948798 2.2213281389 2.253061398 
2.2847946572 2.3165279163 2.3482611754 2.3799944345 2.4117276937 2.4434609528 2.4751942119 2.506927471 2.5386607302 
2.5703939893 2.6021272484 2.6338605076 2.6655937667 2.6973270258 2.7290602849 2.7607935441 2.7925268032 2.8242600623 
2.8559933214 2.8877265806 2.9194598397 2.9511930988 2.982926358 3.0146596171 3.0463928762 3.0781261353 3.1098593945 
3.1415926536 
_radius 1 100 double
5.5267254546e-14 0.27512960928 0.5461449666 0.80936148505 1.0618183136 1.3015374547 1.5276632793 1.7404591169 1.941161032 
2.1317170552 2.3144623471 2.4917877413 2.6658499767 2.8383540391 3.0104204299 3.1825382027 3.3545985436 3.5260000136 
3.6958117651 3.8629743356 4.0265108077 4.1857167315 4.3402976119 4.4904295651 4.6367315813 4.7801539334 4.9218023826 
5.0627280275 5.2037160716 5.3451042314 5.4866551556 5.6274992973 5.7661567909 5.900639788 6.0286294156 6.1477119876 
6.2556473127 6.3506316856 6.4315146252 6.4979341562 6.5503488878 6.5899624173 6.6185525686 6.6382316838 6.651172988 
6.6593415371 6.6642665876 6.6668858249 6.6674813553 6.6657138705 6.660746742 6.6514383838 6.6365716235 6.6150851166 
6.5862745342 6.549938638 6.5064542789 6.4567721231 6.4023310519 6.3448955396 6.2863294019 6.2283316443 6.1721726732 
6.1184761531 6.0670883968 6.0170625679 5.9667629035 5.9140706647 5.8566544485 5.7922571161 5.7189521004 5.6353326412 
5.5406148625 5.4346536016 5.317882664 5.1911959045 5.0557840604 4.9129400216 4.7638472793 4.6093733879 4.4498982574 
4.2852105845 4.1145016975 3.9364738379 3.749559691 3.5522239056 3.3432915781 3.1222327137 2.8893338729 2.6457108944 
2.393154677 2.1338452394 1.8700054762 1.6035833809 1.3360413194 1.0682928968 0.80077515978 0.53359977269 0.26671154218 
4.5580004788e-14 
_area 1 100 double
0 0.20085668295 0.80177519699 1.7958601592 3.1666022714 4.8843375729 6.9063566429 9.1814261029 11.657285172 
14.288472053 17.041941321 19.899041645 22.853901912 25.909440366 29.072606835 32.350116754 35.745330742 39.256582485 
42.877162872 46.596904104 50.404703968 54.290841477 58.248106559 62.271523549 66.357184205 70.500984583 74.697917669 
78.942161775 83.227650934 87.548432974 91.898055605 96.267142894 100.63836119 104.97925771 109.23630287 113.33522513 
117.19009162 120.71789861 123.85183376 126.54697922 128.77813863 130.54004578 131.84522159 132.71942496 133.21167891 
133.3902359 133.3265963 133.08093794 132.69095478 132.1655578 131.48440519 130.60396085 129.46967721 128.03174492 
126.26058507 124.15837383 121.76396822 119.15027539 116.41491825 113.66648979 111.00950364 108.53116736 106.29201431 
104.32039327 102.60932735 101.11527716 99.761062473 98.445155112 97.055682964 95.485058272 93.642625863 91.464607175 
88.920291981 86.012721904 82.773424677 79.253189747 75.511985503 71.610228287 67.602028246 63.530207913 59.423018661 
55.292817065 51.137038098 46.941915603 42.689714095 38.369700494 33.990719323 29.590727091 25.238810862 21.028082741 
17.061238036 13.432996004 10.214684227 7.4457676895 5.1351052586 3.27113621 1.8358686185 0.81553648226 0.20393702129 
1.7053025658e-13 
