# vtk DataFile Version 5.1
vtk output
ASCII
DATASET POLYDATA
POINTS 1002 float
-6.5324 -0.350501 -3.6584 6.2656 0.147033 -4.88895 -5.28306 0.0923813 3.16232 
6.35578 0.0527282 4.68947 -0.0545979 6.75254 -2.33074 -0.61939 7.12268 3.61514 
-0.217622 -6.05128 -2.51497 -1.22104 -7.48076 4.07078 11.8387 4.35065 -0.277738 
-11.0271 5.86392 -0.74182 12.0693 -4.62263 -1.45103 -12.1786 -5.678 -0.235521 
-5.34405 -0.209208 -3.17867 -4.04162 -0.0298465 -2.89035 -2.72329 0.0581054 -3.12427 
-1.43278 -0.0151197 -3.86543 -0.121457 -0.117005 -4.57831 1.27707 -0.0635579 -4.82063 
2.72655 0.116644 -4.76613 4.08943 0.2465 -4.76784 5.26453 0.240769 -4.85718 
-6.1905 0.441317 -3.68879 -5.71179 1.2874 -3.65435 -5.06111 2.11804 -3.47425 
-4.32836 2.90552 -3.22798 -3.6586 3.6803 -3.15924 -3.03383 4.46573 -3.31509 
-2.31409 5.21735 -3.39066 -1.49405 5.85492 -3.14996 -0.709266 6.34985 -2.715 
-6.10483 -1.01516 -3.3579 -5.63066 -1.6254 -3.1763 -5.12797 -2.2288 -3.11926 
-4.51769 -2.89702 -3.02164 -3.73065 -3.58034 -2.73527 -2.87402 -4.16945 -2.4163 
-2.1233 -4.68306 -2.35765 -1.49172 -5.19764 -2.5379 -0.872434 -5.68222 -2.65394 
-7.44302 0.093397 -4.17244 -8.26369 0.667773 -4.63897 -8.95549 1.26832 -4.91963 
-9.59359 1.84866 -4.87617 -10.1989 2.50647 -4.45047 -10.6065 3.30267 -3.78415 
-10.7113 4.1159 -3.09069 -10.6932 4.81322 -2.39637 -10.7915 5.38705 -1.60753 
-7.41504 -0.885274 -3.90197 -8.30556 -1.44237 -4.00544 -9.1413 -2.04724 -3.91952 
-9.84188 -2.74517 -3.74857 -10.37 -3.49703 -3.58668 -10.8158 -4.15339 -3.30395 
-11.321 -4.63654 -2.70835 -11.8558 -5.031 -1.84817 -12.2 -5.4009 -0.961687 
5.96183 0.867995 -4.94404 5.58216 1.60315 -4.89309 5.13628 2.33589 -4.58724 
4.58143 3.10104 -4.14931 3.85773 3.91028 -3.89196 3.01095 4.67479 -3.79524 
2.16809 5.30184 -3.52405 1.38879 5.8143 -3.02851 0.652703 6.289 -2.58088 
5.88727 -0.526103 -4.87124 5.36157 -1.24103 -4.89788 4.70905 -1.91259 -4.85923 
4.03389 -2.53292 -4.59582 3.40469 -3.20894 -4.1843 2.75905 -3.95259 -3.83981 
2.0221 -4.59602 -3.54295 1.23195 -5.07074 -3.16517 0.472689 -5.51816 -2.77518 
7.07964 0.478707 -4.84132 8.01548 0.877783 -4.67988 9.09249 1.43008 -4.41327 
10.1956 2.09039 -4.05213 11.1301 2.62194 -3.58404 11.7793 2.90294 -3.00103 
12.1393 3.14129 -2.32715 12.2435 3.54523 -1.61017 12.1283 4.02163 -0.908936 
7.04585 -0.383016 -4.81044 7.92594 -0.939199 -4.63398 8.90343 -1.49124 -4.32045 
9.88669 -2.06493 -3.95495 10.7518 -2.7184 -3.75269 11.48 -3.44883 -3.76254 
12.0949 -4.1285 -3.67765 12.4811 -4.57515 -3.19029 12.4725 -4.71067 -2.35694 
-4.39762 0.0934012 3.51495 -3.5244 0.0130216 4.25403 -2.57378 -0.138823 5.12928 
-1.45213 -0.252744 5.6528 -0.159567 -0.185326 5.65579 1.24781 0.05502 5.45805 
2.70659 0.278898 5.32725 4.10672 0.329896 5.2 5.33175 0.220672 4.97399 
-5.05339 0.844067 3.48487 -4.76568 1.62234 3.76574 -4.35451 2.46609 4.12009 
-3.82375 3.40323 4.71586 -3.26682 4.30336 5.25834 -2.75751 4.98252 5.19326 
-2.2633 5.48125 4.57615 -1.72602 5.99007 3.99395 -1.15896 6.56631 3.72969 
-4.97551 -0.624348 3.00909 -4.70538 -1.32029 3.18407 -4.40664 -2.02494 3.92636 
-4.0336 -2.84224 4.92837 -3.62418 -3.83085 5.41556 -3.2204 -4.88825 5.13472 
-2.80152 -5.82954 4.67286 -2.33477 -6.56028 4.48201 -1.80834 -7.09898 4.37931 
-6.15697 0.562229 3.26051 -7.1893 1.08294 3.37783 -8.12988 1.56007 3.27089 
-8.76088 2.00271 2.83223 -9.23171 2.61534 2.18194 -9.85016 3.52289 1.51795 
-10.56 4.49997 0.949418 -11.0362 5.22626 0.448976 -11.1507 5.63778 -0.0929056 
-6.04792 -0.455076 2.93593 -6.97485 -1.09777 2.87363 -8.04502 -1.69167 2.89556 
-9.1145 -2.16824 2.81467 -9.98582 -2.69162 2.46954 -10.6515 -3.44623 1.89387 
-11.2841 -4.31304 1.28831 -11.8898 -5.00908 0.780616 -12.24 -5.4312 0.3096 
5.96159 0.711987 4.61365 5.48953 1.43416 4.67498 4.90866 2.14541 4.73881 
4.21012 2.86512 4.74971 3.46437 3.70018 4.8688 2.74189 4.6203 5.12212 
2.00615 5.43399 5.17082 1.18233 6.06462 4.78186 0.279294 6.60657 4.15771 
6.08064 -0.501853 5.03245 5.66516 -1.16813 5.31345 5.07962 -1.91284 5.40107 
4.33993 -2.65042 5.22527 3.49216 -3.33878 4.82803 2.57067 -4.03568 4.37167 
1.57727 -4.8225 4.07087 0.539219 -5.71442 4.01538 -0.435054 -6.64153 4.0817 
7.09383 0.254057 4.26359 7.92226 0.504103 3.82973 8.8796 0.906448 3.47005 
9.87332 1.4202 3.11565 10.7317 1.86244 2.6451 11.3673 2.2381 2.08375 
11.7851 2.77526 1.526 11.9877 3.4848 0.962943 11.9872 4.07801 0.351614 
7.18668 -0.406014 4.69042 8.06345 -0.814299 4.79112 8.94037 -1.23841 4.71237 
9.73297 -1.75225 4.09456 10.3831 -2.26045 2.93452 10.9342 -2.61582 1.66737 
11.4521 -2.9079 0.657652 11.8864 -3.35731 -0.114765 12.1119 -3.9893 -0.80681 
-0.168188 7.28086 -2.02766 -0.350921 7.81229 -1.63386 -0.521364 8.27036 -1.03613 
-0.635263 8.56782 -0.258816 -0.747135 8.70408 0.549765 -0.899228 8.73596 1.32309 
-1.0148 8.63237 2.07428 -0.993702 8.30095 2.73753 -0.836311 7.7537 3.23737 
1.01936 6.93525 -2.25127 2.22337 7.31466 -2.42265 3.50125 7.71804 -2.62481 
4.76282 7.69837 -2.55884 6.03223 6.99576 -2.22292 7.41668 5.96122 -1.84705 
8.85375 5.18896 -1.51095 10.116 4.84566 -1.13598 11.0871 4.65656 -0.706179 
-1.1535 7.00935 -2.43589 -2.3677 7.23245 -2.53665 -3.70368 7.23742 -2.3474 
-5.09735 7.05618 -1.92544 -6.46862 6.97511 -1.7204 -7.81773 7.12388 -1.86668 
-9.1199 7.24602 -1.92215 -10.1874 7.05458 -1.59601 -10.8217 6.54163 -1.10501 
0.450918 7.29314 3.72729 1.53385 7.30309 3.5831 2.64354 7.05761 3.07394 
3.87985 6.55393 2.41796 5.31843 5.921 1.89468 6.8978 5.38565 1.47226 
8.4491 5.0922 0.992337 9.8205 4.94444 0.48883 10.9485 4.73063 0.0671761 
-1.87555 7.29277 3.32092 -3.21965 7.46308 3.22251 -4.54219 7.61321 3.1198 
-5.79236 7.69165 2.69885 -7.07813 7.70253 2.05708 -8.52716 7.69683 1.58213 
-9.94901 7.61866 1.269 -10.8982 7.30428 0.777934 -11.1774 6.68461 0.0298366 
-0.211434 -6.58315 -2.19359 -0.234955 -7.05423 -1.7331 -0.311146 -7.44586 -1.09282 
-0.386035 -7.85404 -0.353902 -0.411036 -8.35231 0.329966 -0.473772 -8.80169 0.981994 
-0.684795 -8.94485 1.78997 -0.976881 -8.68186 2.74321 -1.18111 -8.13273 3.57134 
0.946156 -5.99621 -2.27338 2.26828 -5.99924 -1.96014 3.66282 -6.15846 -1.81678 
5.07615 -6.50927 -1.9025 6.49207 -6.92382 -1.95702 7.83704 -7.12658 -1.8068 
9.03624 -6.89775 -1.61901 10.1266 -6.26383 -1.54804 11.1557 -5.4382 -1.52448 
-1.32529 -6.50048 -2.51418 -2.54204 -6.96922 -2.54073 -3.91211 -7.27541 -2.54892 
-5.38008 -7.40294 -2.47628 -6.74299 -7.50442 -2.30415 -7.89836 -7.56198 -2.03811 
-9.0118 -7.35332 -1.65006 -10.215 -6.8418 -1.14938 -11.3516 -6.23354 -0.642735 
-0.0575165 -7.19161 3.57469 1.36495 -6.68191 2.96011 2.92294 -6.2108 2.49119 
4.40064 -6.14161 2.23746 5.67225 -6.47161 1.91508 6.83498 -6.68617 1.33109 
8.08403 -6.36925 0.654138 9.47461 -5.68549 0.017964 10.8673 -5.04509 -0.668497 
-2.23597 -7.9313 4.15068 -3.21831 -8.08994 3.99603 -4.30402 -7.96115 3.60151 
-5.55254 -7.61597 3.00734 -6.79248 -7.12606 2.28117 -7.89025 -6.64909 1.56382 
-8.99509 -6.37537 0.992393 -10.2202 -6.26852 0.559333 -11.3689 -6.08731 0.167351 
12.7865 3.71794 -0.233074 13.8533 2.92023 -0.262856 14.9628 2.052 -0.474411 
15.8181 1.14126 -0.908434 16.1107 0.11152 -1.46338 15.8284 -1.07686 -1.95739 
15.1779 -2.26861 -2.22954 14.2957 -3.23874 -2.19152 13.2297 -3.96526 -1.8805 
-10.8574 4.77462 -1.01241 -10.9031 3.54151 -1.2153 -11.5688 2.2896 -1.28007 
-12.6699 1.078 -1.21173 -13.4763 -0.100415 -1.04688 -13.6129 -1.30387 -0.813678 
-13.4048 -2.58178 -0.569758 -13.1659 -3.84359 -0.387803 -12.8069 -4.90342 -0.286868 
-4.91335 0.58997 -3.2042 -4.3394 1.4316 -3.21025 -3.53833 0.727677 -3.01354 
-3.60933 2.23845 -3.14645 -2.89961 1.50882 -3.11122 -2.17462 0.724688 -3.37212 
-2.86494 2.98074 -3.14899 -2.14007 2.25314 -3.17144 -1.48923 1.44414 -3.4858 
-0.825408 0.600354 -4.08066 -2.23147 3.70553 -3.34181 -1.42028 2.95519 -3.34758 
-0.706554 2.19793 -3.54371 -0.0613545 1.37193 -4.05918 0.599521 0.574305 -4.60952 
-1.61121 4.44961 -3.50916 -0.799732 3.67929 -3.59762 0.0282495 2.97538 -3.69399 
0.783723 2.25282 -3.98892 1.46501 1.47905 -4.46464 2.11779 0.748789 -4.77601 
-0.871761 5.15973 -3.35844 -0.140445 4.43997 -3.62733 0.706603 3.77834 -3.81251 
1.58069 3.12969 -3.962 2.35713 2.4192 -4.28697 3.01349 1.67255 -4.67336 
3.59388 0.943734 -4.82698 -0.0712851 5.7684 -2.95639 0.623876 5.1652 -3.3613 
1.42363 4.56833 -3.7298 2.31465 3.93544 -3.89697 3.16453 3.22494 -4.07822 
3.85536 2.47298 -4.46342 4.40857 1.72412 -4.81513 4.88031 0.977824 -4.90864 
-7.0785 0.965456 -4.21094 -7.85819 1.57411 -4.59995 -6.54121 1.84183 -4.04163 
-8.52456 2.19427 -4.71802 -7.28529 2.44324 -4.20327 -5.84675 2.68077 -3.61143 
-9.15559 2.87067 -4.52982 -7.94883 3.09621 -4.09063 -6.59558 3.2865 -3.49285 
-5.12629 3.51407 -3.16177 -9.73344 3.71266 -4.11857 -8.572 3.89715 -3.83789 
-7.26058 3.96823 -3.218 -5.8815 4.14032 -2.90708 -4.44289 4.37475 -3.05101 
-10.1318 4.65074 -3.60452 -9.13046 4.87009 -3.57901 -7.84142 4.79261 -3.01302 
-6.48997 4.77249 -2.62007 -5.1067 5.00364 -2.82369 -3.68044 5.22894 -3.21707 
-10.3549 5.47485 -2.97241 -9.56809 5.82931 -3.23021 -8.35587 5.73353 -2.89246 
-6.98402 5.49425 -2.42977 -5.60313 5.56077 -2.52299 -4.18918 5.86157 -2.99259 
-2.78571 5.99272 -3.22898 -10.56 6.09183 -2.12233 -9.90284 6.5697 -2.57586 
-8.78905 6.60981 -2.59236 -7.43419 6.33556 -2.24104 -6.03981 6.20962 -2.15197 
-4.63035 6.42245 -2.55473 -3.22129 6.64428 -2.92439 -1.89832 6.58807 -2.90296 
-10.6292 7.26189 -0.333605 -9.89742 7.71421 0.355879 -9.56053 7.60249 -0.851946 
-8.66707 7.89336 0.789898 -8.51346 7.9248 -0.211912 -8.21257 7.6904 -1.19311 
-7.31778 7.93349 1.17923 -7.29816 8.08824 0.25142 -7.13135 8.06858 -0.572952 
-6.85013 7.67647 -1.21637 -6.09012 7.95587 1.80342 -6.1481 8.14557 0.776133 
-6.04415 8.31401 -0.0687596 -5.82439 8.2359 -0.672481 -5.48489 7.7471 -1.27014 
-4.86723 7.97492 2.46432 -4.97693 8.14809 1.4684 -4.89966 8.31642 0.481433 
-4.70917 8.47201 -0.212609 -4.4177 8.34339 -0.833486 -4.04954 7.85611 -1.60097 
-3.52611 7.96344 2.83289 -3.65707 8.19292 2.07529 -3.59387 8.25936 1.09399 
-3.42327 8.36883 0.259595 -3.21132 8.45033 -0.411939 -2.94126 8.26479 -1.15613 
[...]
POINT_DATA 1002
FIELD FieldData 4
_paraPhi 1 1002 double
6.2831853072 3.1415926536 6.2831853072 3.1415926536 4.7123889804 4.7123889804 1.5707963268 1.5707963268 3.6951670125 
5.7296109483 2.5880182947 0.5535743589 6.2831853072 6.2831853072 6.2831853072 6.2831853072 3.1415926536 3.1415926536 
3.1415926536 3.1415926536 3.1415926536 6.1053039672 5.898798347 5.6768734901 5.4599499503 5.2659633393 5.1032165617 
4.9713148346 4.8656852733 4.7809517865 0.17788134 0.38438696014 0.60631181711 0.82323535693 1.0172219679 1.1799687454 
1.3118704726 1.4175000338 1.5022335207 6.1892828907 6.1070320098 6.035312792 5.9728339911 5.9183214791 5.8706119594 
5.8286879411 5.7916808611 5.7588591896 0.093902416448 0.17615329733 0.2478725152 0.31035131605 0.36486382811 0.41257334776 
0.45449736604 0.4915044461 0.52432611754 3.3194739936 3.5259796137 3.7479044707 3.9648280105 4.1588146215 4.321561399 
4.4534631262 4.5590926874 4.6438261743 2.9637113136 2.7572056934 2.5352808365 2.3183572967 2.1243706857 1.9616239082 
1.829722181 1.7240926197 1.6393591329 3.23549507 3.3177459509 3.3894651688 3.4519439696 3.5064564817 3.5541660013 
3.5960900196 3.6330970997 3.6659187711 3.0476902371 2.9654393563 2.8937201384 2.8312413375 2.7767288255 2.7290193058 
2.6870952876 2.6500882075 2.617266536 6.2831853072 6.2831853072 6.2831853072 6.2831853072 3.1415926536 3.1415926536 
3.1415926536 3.1415926536 3.1415926536 6.1053039672 5.898798347 5.6768734901 5.4599499503 5.2659633393 5.1032165617 
4.9713148346 4.8656852733 4.7809517865 0.17788134 0.38438696014 0.60631181711 0.82323535693 1.0172219679 1.1799687454 
1.3118704726 1.4175000338 1.5022335207 6.1892828907 6.1070320098 6.035312792 5.9728339911 5.9183214791 5.8706119594 
5.8286879411 5.7916808611 5.7588591896 0.093902416448 0.17615329733 0.2478725152 0.31035131605 0.36486382811 0.41257334776 
0.45449736604 0.4915044461 0.52432611754 3.3194739936 3.5259796137 3.7479044707 3.9648280105 4.1588146215 4.321561399 
4.4534631262 4.5590926874 4.6438261743 2.9637113136 2.7572056934 2.5352808365 2.3183572967 2.1243706857 1.9616239082 
1.829722181 1.7240926197 1.6393591329 3.23549507 3.3177459509 3.3894651688 3.4519439696 3.5064564817 3.5541660013 
3.5960900196 3.6330970997 3.6659187711 3.0476902371 2.9654393563 2.8937201384 2.8312413375 2.7767288255 2.7290193058 
2.6870952876 2.6500882075 2.617266536 4.7123889804 4.7123889804 4.7123889804 4.7123889804 4.7123889804 4.7123889804 
4.7123889804 4.7123889804 4.7123889804 4.6087898617 4.4991390697 4.3857031936 4.2712800401 4.1588146215 4.0509635631 
3.94975894 3.8564636551 3.7716124825 4.8159880991 4.9256388911 5.0390747672 5.1534979207 5.2659633393 5.3738143976 
5.4750190208 5.5683143056 5.6531654782 4.6087898617 4.4991390697 4.3857031936 4.2712800401 4.1588146215 4.0509635631 
3.94975894 3.8564636551 3.7716124825 4.8159880991 4.9256388911 5.0390747672 5.1534979207 5.2659633393 5.3738143976 
5.4750190208 5.5683143056 5.6531654782 1.5707963268 1.5707963268 1.5707963268 1.5707963268 1.5707963268 1.5707963268 
1.5707963268 1.5707963268 1.5707963268 1.6743954455 1.7840462375 1.8974821136 2.0119052671 2.1243706857 2.232221744 
2.3334263672 2.426721652 2.5115728246 1.4671972081 1.3575464161 1.24411054 1.1296873865 1.0172219679 0.90937090954 
0.80816628637 0.71487100155 0.63001982895 1.6743954455 1.7840462375 1.8974821136 2.0119052671 2.1243706857 2.232221744 
2.3334263672 2.426721652 2.5115728246 1.4671972081 1.3575464161 1.24411054 1.1296873865 1.0172219679 0.90937090954 
0.80816628637 0.71487100155 0.63001982895 3.6007720849 3.4966939854 3.3839471039 3.2645756454 3.1415926536 3.0186096618 
2.8992382033 2.7864913217 2.6824132222 5.8240058758 5.9280839753 6.0408308569 6.1602023154 6.2831853072 0.12298299178 
0.2423544503 0.35510133185 0.45917943135 6.0560271438 5.7885595667 5.9702140275 5.5125918794 5.6029703303 5.7885595667 
5.2659633393 5.2659633393 5.2659633393 5.2659633393 5.0674903122 5.0120975802 4.9155579264 4.7123889804 4.1588146215 
4.9155579264 4.8353719722 4.7123889804 4.5092200343 4.1588146215 3.6362183941 4.8004512023 4.7123889804 4.5894059886 
4.4126803806 4.1588146215 3.8218076305 3.4545639333 4.7123889804 4.6243267584 4.5092200343 4.3572876485 4.1588146215 
3.9121860814 3.6362183941 3.368750817 6.0174235957 5.9434319871 5.8263323547 5.8809213739 5.7674481418 5.6279784266 
5.8278025282 5.718968232 5.5891129425 5.4372443565 5.7823484065 5.678536687 5.5575666702 5.4192596322 5.2659633393 
5.743164462 5.6444075337 5.5314983644 5.4046708639 5.2659633393 5.1195510325 5.7091357773 5.6152775188 5.5096229709 
5.3926039573 5.2659633393 5.1329233157 4.9978930058 5.6793730533 5.5901633916 5.4910209005 5.3824597928 5.2659633393 
5.1440684722 5.0201624502 4.8979782167 5.5683143056 5.4750190208 5.4750190208 5.3738143976 5.3738143976 5.3738143976 
5.2659633393 5.2659633393 5.2659633393 5.2659633393 5.1534979207 5.1534979207 5.1534979207 5.1534979207 5.1534979207 
5.0390747672 5.0390747672 5.0390747672 5.0390747672 5.0390747672 5.0390747672 4.9256388911 4.9256388911 4.9256388911 
4.9256388911 4.9256388911 4.9256388911 4.9256388911 4.8159880991 4.8159880991 4.8159880991 4.8159880991 4.8159880991 
4.8159880991 4.8159880991 4.8159880991 4.6087898617 4.6087898617 4.4991390697 4.6087898617 4.4991390697 4.3857031936 
4.6087898617 4.4991390697 4.3857031936 4.2712800401 4.6087898617 4.4991390697 4.3857031936 4.2712800401 4.1588146215 
4.6087898617 4.4991390697 4.3857031936 4.2712800401 4.1588146215 4.0509635631 4.6087898617 4.4991390697 4.3857031936 
4.2712800401 4.1588146215 4.0509635631 3.94975894 4.6087898617 4.4991390697 4.3857031936 4.2712800401 4.1588146215 
4.0509635631 3.94975894 3.8564636551 4.526799744 4.4046155105 4.426884955 4.2807094886 4.2918546451 4.3052269283 
4.1588146215 4.1588146215 4.1588146215 4.1588146215 4.042318168 4.0321740035 4.0201070968 4.0055183285 3.9875336042 
3.9337570603 3.9151549899 3.8932795963 3.8672112905 3.8356650183 3.7967995342 3.8346145692 3.809500442 3.7803704271 
3.7462412737 3.7058097288 3.657329819 3.5984456061 3.7454049075 3.7156421835 3.6816134988 3.6424295543 3.5969754326 
3.5438565869 3.4813459737 3.4073543651 3.5642842451 3.4524645613 3.5233842518 3.3320300872 3.403123212 3.4773852225 
3.20576226 3.2746326772 3.348015857 3.4255060145 3.0774230472 3.1415926536 3.2112816139 3.2864685043 3.3668817272 
2.95115522 3.00855263 3.0719036933 3.1415926536 3.2178377658 3.3005964304 2.8307207459 2.8800620952 2.9351694502 
2.9967168029 3.0653475414 3.1415926536 3.225752376 2.718901062 2.7598010554 2.8058000847 2.8576792927 2.91630358 
2.9825888767 3.0574329311 3.1415926536 3.5642842451 3.5233842518 3.4524645613 3.4773852225 3.403123212 3.3320300872 
3.4255060145 3.348015857 3.2746326772 3.20576226 3.3668817272 3.2864685043 3.2112816139 3.1415926536 3.0774230472 
3.3005964304 3.2178377658 3.1415926536 3.0719036933 3.00855263 2.95115522 3.225752376 3.1415926536 3.0653475414 
2.9967168029 2.9351694502 2.8800620952 2.8307207459 3.1415926536 3.0574329311 2.9825888767 2.91630358 2.8576792927 
2.8058000847 2.7598010554 2.718901062 4.526799744 4.426884955 4.4046155105 4.3052269283 4.2918546451 4.2807094886 
4.1588146215 4.1588146215 4.1588146215 4.1588146215 3.9875336042 4.0055183285 4.0201070968 4.0321740035 4.042318168 
3.7967995342 3.8356650183 3.8672112905 3.8932795963 3.9151549899 3.9337570603 3.5984456061 3.657329819 3.7058097288 
3.7462412737 3.7803704271 3.809500442 3.8346145692 3.4073543651 3.4813459737 3.5438565869 3.5969754326 3.6424295543 
3.6816134988 3.7156421835 3.7454049075 4.7123889804 4.8004512023 4.6243267584 4.9155579264 4.7123889804 4.5092200343 
5.0674903122 4.8353719722 4.5894059886 4.3572876485 5.2659633393 5.0120975802 4.7123889804 4.4126803806 4.1588146215 
5.5125918794 5.2659633393 4.9155579264 4.5092200343 4.1588146215 3.9121860814 5.7885595667 5.6029703303 5.2659633393 
4.7123889804 4.1588146215 3.8218076305 3.6362183941 6.0560271438 5.9702140275 5.7885595667 5.2659633393 4.1588146215 
3.6362183941 3.4545639333 3.368750817 0.22715816343 0.49462574053 0.3129712797 0.77059342779 0.68021497688 0.49462574053 
1.0172219679 1.0172219679 1.0172219679 1.0172219679 1.2156949949 1.271087727 1.3676273807 1.5707963268 2.1243706857 
1.3676273807 1.447813335 1.5707963268 1.7739652728 2.1243706857 2.6469669131 1.4827341049 1.5707963268 1.6937793186 
1.8705049266 2.1243706857 2.4613776767 2.8286213739 1.5707963268 1.6588585487 1.7739652728 1.9258976586 2.1243706857 
2.3709992258 2.6469669131 2.9144344902 1.7563855631 1.8785697967 1.8563003522 2.0024758186 1.9913306621 1.9779583789 
2.1243706857 2.1243706857 2.1243706857 2.1243706857 2.2408671392 2.2510113037 2.2630782103 2.2776669786 2.295651703 
2.3494282469 2.3680303173 2.3899057108 2.4159740166 2.4475202889 2.486385773 2.448570738 2.4736848652 2.5028148801 
2.5369440334 2.5773755784 2.6258554882 2.6847397011 2.5377803997 2.5675431237 2.6015718084 2.6407557529 2.6862098746 
2.7393287203 2.8018393335 2.8758309421 1.6743954455 1.6743954455 1.7840462375 1.6743954455 1.7840462375 1.8974821136 
1.6743954455 1.7840462375 1.8974821136 2.0119052671 1.6743954455 1.7840462375 1.8974821136 2.0119052671 2.1243706857 
1.6743954455 1.7840462375 1.8974821136 2.0119052671 2.1243706857 2.232221744 1.6743954455 1.7840462375 1.8974821136 
2.0119052671 2.1243706857 2.232221744 2.3334263672 1.6743954455 1.7840462375 1.8974821136 2.0119052671 2.1243706857 
2.232221744 2.3334263672 2.426721652 1.4671972081 1.3575464161 1.4671972081 1.24411054 1.3575464161 1.4671972081 
1.1296873865 1.24411054 1.3575464161 1.4671972081 1.0172219679 1.1296873865 1.24411054 1.3575464161 1.4671972081 
0.90937090954 1.0172219679 1.1296873865 1.24411054 1.3575464161 1.4671972081 0.80816628637 0.90937090954 1.0172219679 
1.1296873865 1.24411054 1.3575464161 1.4671972081 0.71487100155 0.80816628637 0.90937090954 1.0172219679 1.1296873865 
1.24411054 1.3575464161 1.4671972081 0.60381225391 0.57404952988 0.69302191562 0.54002084522 0.66790778838 0.79216440667 
0.50083690068 0.63877777351 0.77356233629 0.90072551443 0.45538277901 0.60464862014 0.75168694275 0.89058134991 1.0172219679 
0.40226393329 0.56421707518 0.72561863695 0.87851444325 1.0172219679 1.139116835 0.33975332011 0.51573716537 0.69407236469 
0.86392567495 1.0172219679 1.1502619915 1.2630228569 0.26576171152 0.45685295248 0.6552068806 0.84594095064 1.0172219679 
1.1636342747 1.2852923014 1.3852070904 0.22715816343 0.3129712797 0.49462574053 0.49462574053 0.68021497688 0.77059342779 
1.0172219679 1.0172219679 1.0172219679 1.0172219679 2.1243706857 1.5707963268 1.3676273807 1.271087727 1.2156949949 
2.6469669131 2.1243706857 1.7739652728 1.5707963268 1.447813335 1.3676273807 2.8286213739 2.4613776767 2.1243706857 
1.8705049266 1.6937793186 1.5707963268 1.4827341049 2.9144344902 2.6469669131 2.3709992258 2.1243706857 1.9258976586 
1.7739652728 1.6588585487 1.5707963268 1.7563855631 1.8563003522 1.8785697967 1.9779583789 1.9913306621 2.0024758186 
2.1243706857 2.1243706857 2.1243706857 2.1243706857 2.295651703 2.2776669786 2.2630782103 2.2510113037 2.2408671392 
2.486385773 2.4475202889 2.4159740166 2.3899057108 2.3680303173 2.3494282469 2.6847397011 2.6258554882 2.5773755784 
2.5369440334 2.5028148801 2.4736848652 2.448570738 2.8758309421 2.8018393335 2.7393287203 2.6862098746 2.6407557529 
2.6015718084 2.5675431237 2.5377803997 5.8604937156 5.901393709 5.9723133995 5.9473927383 6.0216547488 6.0927478736 
5.9992719463 6.0767621038 6.1501452836 6.2190157008 6.0578962336 6.1383094565 6.2134963469 0 0.064169606361 
6.1241815303 6.206940195 6.2831853072 0.069688960264 0.13304002361 0.19043743361 6.1990255847 0 0.07624511221 
0.14487585072 0.20642320337 0.26153055843 0.3108719077 0 0.084159722458 0.15900377685 0.22528907359 0.28391336087 
0.3357925689 0.38179159818 0.42269159155 5.8604937156 5.9723133995 5.901393709 6.0927478736 6.0216547488 5.9473927383 
6.2190157008 6.1501452836 6.0767621038 5.9992719463 0.064169606361 0 6.2134963469 6.1383094565 6.0578962336 
0.19043743361 0.13304002361 0.069688960264 6.2831853072 6.206940195 6.1241815303 0.3108719077 0.26153055843 0.20642320337 
0.14487585072 0.07624511221 6.2831853072 6.1990255847 0.42269159155 0.38179159818 0.3357925689 0.28391336087 0.22528907359 
0.15900377685 0.084159722458 0 5.6793730533 5.7091357773 5.5901633916 5.743164462 5.6152775188 5.4910209005 
5.7823484065 5.6444075337 5.5096229709 5.3824597928 5.8278025282 5.678536687 5.5314983644 5.3926039573 5.2659633393 
5.8809213739 5.718968232 5.5575666702 5.4046708639 5.2659633393 5.1440684722 5.9434319871 5.7674481418 5.5891129425 
5.4192596322 5.2659633393 5.1329233157 5.0201624502 6.0174235957 5.8263323547 5.6279784266 5.4372443565 5.2659633393 
5.1195510325 4.9978930058 4.8979782167 1.3852070904 1.2852923014 1.2630228569 1.1636342747 1.1502619915 1.139116835 
1.0172219679 1.0172219679 1.0172219679 1.0172219679 0.84594095064 0.86392567495 0.87851444325 0.89058134991 0.90072551443 
0.6552068806 0.69407236469 0.72561863695 0.75168694275 0.77356233629 0.79216440667 0.45685295248 0.51573716537 0.56421707518 
0.60464862014 0.63877777351 0.66790778838 0.69302191562 0.26576171152 0.33975332011 0.40226393329 0.45538277901 0.50083690068 
0.54002084522 0.57404952988 0.60381225391 
_paraPhiHalf 1 1002 double
0 3.1415926536 0 3.1415926536 1.5707963268 1.5707963268 1.5707963268 1.5707963268 2.5880182947 
0.5535743589 2.5880182947 0.5535743589 0 0 0 0 3.1415926536 3.1415926536 
3.1415926536 3.1415926536 3.1415926536 0.17788134 0.38438696014 0.60631181711 0.82323535693 1.0172219679 1.1799687454 
1.3118704726 1.4175000338 1.5022335207 0.17788134 0.38438696014 0.60631181711 0.82323535693 1.0172219679 1.1799687454 
1.3118704726 1.4175000338 1.5022335207 0.093902416448 0.17615329733 0.2478725152 0.31035131605 0.36486382811 0.41257334776 
0.45449736604 0.4915044461 0.52432611754 0.093902416448 0.17615329733 0.2478725152 0.31035131605 0.36486382811 0.41257334776 
0.45449736604 0.4915044461 0.52432611754 2.9637113136 2.7572056934 2.5352808365 2.3183572967 2.1243706857 1.9616239082 
1.829722181 1.7240926197 1.6393591329 2.9637113136 2.7572056934 2.5352808365 2.3183572967 2.1243706857 1.9616239082 
1.829722181 1.7240926197 1.6393591329 3.0476902371 2.9654393563 2.8937201384 2.8312413375 2.7767288255 2.7290193058 
2.6870952876 2.6500882075 2.617266536 3.0476902371 2.9654393563 2.8937201384 2.8312413375 2.7767288255 2.7290193058 
2.6870952876 2.6500882075 2.617266536 0 0 0 0 3.1415926536 3.1415926536 
3.1415926536 3.1415926536 3.1415926536 0.17788134 0.38438696014 0.60631181711 0.82323535693 1.0172219679 1.1799687454 
1.3118704726 1.4175000338 1.5022335207 0.17788134 0.38438696014 0.60631181711 0.82323535693 1.0172219679 1.1799687454 
1.3118704726 1.4175000338 1.5022335207 0.093902416448 0.17615329733 0.2478725152 0.31035131605 0.36486382811 0.41257334776 
0.45449736604 0.4915044461 0.52432611754 0.093902416448 0.17615329733 0.2478725152 0.31035131605 0.36486382811 0.41257334776 
0.45449736604 0.4915044461 0.52432611754 2.9637113136 2.7572056934 2.5352808365 2.3183572967 2.1243706857 1.9616239082 
1.829722181 1.7240926197 1.6393591329 2.9637113136 2.7572056934 2.5352808365 2.3183572967 2.1243706857 1.9616239082 
1.829722181 1.7240926197 1.6393591329 3.0476902371 2.9654393563 2.8937201384 2.8312413375 2.7767288255 2.7290193058 
2.6870952876 2.6500882075 2.617266536 3.0476902371 2.9654393563 2.8937201384 2.8312413375 2.7767288255 2.7290193058 
2.6870952876 2.6500882075 2.617266536 1.5707963268 1.5707963268 1.5707963268 1.5707963268 1.5707963268 1.5707963268 
1.5707963268 1.5707963268 1.5707963268 1.6743954455 1.7840462375 1.8974821136 2.0119052671 2.1243706857 2.232221744 
2.3334263672 2.426721652 2.5115728246 1.4671972081 1.3575464161 1.24411054 1.1296873865 1.0172219679 0.90937090954 
0.80816628637 0.71487100155 0.63001982895 1.6743954455 1.7840462375 1.8974821136 2.0119052671 2.1243706857 2.232221744 
2.3334263672 2.426721652 2.5115728246 1.4671972081 1.3575464161 1.24411054 1.1296873865 1.0172219679 0.90937090954 
0.80816628637 0.71487100155 0.63001982895 1.5707963268 1.5707963268 1.5707963268 1.5707963268 1.5707963268 1.5707963268 
1.5707963268 1.5707963268 1.5707963268 1.6743954455 1.7840462375 1.8974821136 2.0119052671 2.1243706857 2.232221744 
2.3334263672 2.426721652 2.5115728246 1.4671972081 1.3575464161 1.24411054 1.1296873865 1.0172219679 0.90937090954 
0.80816628637 0.71487100155 0.63001982895 1.6743954455 1.7840462375 1.8974821136 2.0119052671 2.1243706857 2.232221744 
2.3334263672 2.426721652 2.5115728246 1.4671972081 1.3575464161 1.24411054 1.1296873865 1.0172219679 0.90937090954 
0.80816628637 0.71487100155 0.63001982895 2.6824132222 2.7864913217 2.8992382033 3.0186096618 3.1415926536 3.0186096618 
2.8992382033 2.7864913217 2.6824132222 0.45917943135 0.35510133185 0.2423544503 0.12298299178 0 0.12298299178 
0.2423544503 0.35510133185 0.45917943135 0.22715816343 0.49462574053 0.3129712797 0.77059342779 0.68021497688 0.49462574053 
1.0172219679 1.0172219679 1.0172219679 1.0172219679 1.2156949949 1.271087727 1.3676273807 1.5707963268 2.1243706857 
1.3676273807 1.447813335 1.5707963268 1.7739652728 2.1243706857 2.6469669131 1.4827341049 1.5707963268 1.6937793186 
1.8705049266 2.1243706857 2.4613776767 2.8286213739 1.5707963268 1.6588585487 1.7739652728 1.9258976586 2.1243706857 
2.3709992258 2.6469669131 2.9144344902 0.26576171152 0.33975332011 0.45685295248 0.40226393329 0.51573716537 0.6552068806 
0.45538277901 0.56421707518 0.69407236469 0.84594095064 0.50083690068 0.60464862014 0.72561863695 0.86392567495 1.0172219679 
0.54002084522 0.63877777351 0.75168694275 0.87851444325 1.0172219679 1.1636342747 0.57404952988 0.66790778838 0.77356233629 
0.89058134991 1.0172219679 1.1502619915 1.2852923014 0.60381225391 0.69302191562 0.79216440667 0.90072551443 1.0172219679 
1.139116835 1.2630228569 1.3852070904 0.71487100155 0.80816628637 0.80816628637 0.90937090954 0.90937090954 0.90937090954 
1.0172219679 1.0172219679 1.0172219679 1.0172219679 1.1296873865 1.1296873865 1.1296873865 1.1296873865 1.1296873865 
1.24411054 1.24411054 1.24411054 1.24411054 1.24411054 1.24411054 1.3575464161 1.3575464161 1.3575464161 
1.3575464161 1.3575464161 1.3575464161 1.3575464161 1.4671972081 1.4671972081 1.4671972081 1.4671972081 1.4671972081 
1.4671972081 1.4671972081 1.4671972081 1.6743954455 1.6743954455 1.7840462375 1.6743954455 1.7840462375 1.8974821136 
1.6743954455 1.7840462375 1.8974821136 2.0119052671 1.6743954455 1.7840462375 1.8974821136 2.0119052671 2.1243706857 
1.6743954455 1.7840462375 1.8974821136 2.0119052671 2.1243706857 2.232221744 1.6743954455 1.7840462375 1.8974821136 
2.0119052671 2.1243706857 2.232221744 2.3334263672 1.6743954455 1.7840462375 1.8974821136 2.0119052671 2.1243706857 
2.232221744 2.3334263672 2.426721652 1.7563855631 1.8785697967 1.8563003522 2.0024758186 1.9913306621 1.9779583789 
2.1243706857 2.1243706857 2.1243706857 2.1243706857 2.2408671392 2.2510113037 2.2630782103 2.2776669786 2.295651703 
2.3494282469 2.3680303173 2.3899057108 2.4159740166 2.4475202889 2.486385773 2.448570738 2.4736848652 2.5028148801 
2.5369440334 2.5773755784 2.6258554882 2.6847397011 2.5377803997 2.5675431237 2.6015718084 2.6407557529 2.6862098746 
2.7393287203 2.8018393335 2.8758309421 2.718901062 2.8307207459 2.7598010554 2.95115522 2.8800620952 2.8058000847 
3.0774230472 3.00855263 2.9351694502 2.8576792927 3.0774230472 3.1415926536 3.0719036933 2.9967168029 2.91630358 
2.95115522 3.00855263 3.0719036933 3.1415926536 3.0653475414 2.9825888767 2.8307207459 2.8800620952 2.9351694502 
2.9967168029 3.0653475414 3.1415926536 3.0574329311 2.718901062 2.7598010554 2.8058000847 2.8576792927 2.91630358 
2.9825888767 3.0574329311 3.1415926536 2.718901062 2.7598010554 2.8307207459 2.8058000847 2.8800620952 2.95115522 
2.8576792927 2.9351694502 3.00855263 3.0774230472 2.91630358 2.9967168029 3.0719036933 3.1415926536 3.0774230472 
2.9825888767 3.0653475414 3.1415926536 3.0719036933 3.00855263 2.95115522 3.0574329311 3.1415926536 3.0653475414 