# vtk DataFile Version 5.1
vtk output
ASCII
DATASET POLYDATA
POINTS 1002 float
22.8969 35.7593 14.0371 12.3552 31.9592 18.7195 23.4888 29.7583 9.83598 
15.9279 23.957 12.4907 14.0555 36.268 10.1951 16.0286 30.5304 7.07655 
21.8845 30.4461 18.7699 23.473 25.7657 17.5324 8.83603 27.6436 14.2631 
23.1673 37.1546 7.26487 11.1272 24.2999 23.3284 30.0559 34.1195 15.5065 
22.1239 35.2672 14.1256 21.2156 34.9223 14.4472 20.1993 34.7991 15.0496 
19.0032 34.7167 15.7927 17.5846 34.3651 16.4105 16.1427 33.7676 16.8383 
14.9358 33.2524 17.2775 13.9747 32.9103 17.8297 13.1296 32.5259 18.3569 
22.2431 35.8437 13.6264 21.4742 36.1382 13.365 20.5477 36.4912 13.1701 
19.4398 36.7087 12.9263 18.2552 36.7852 12.6114 17.1638 36.8233 12.2392 
16.2211 36.8135 11.7706 15.3883 36.6988 11.2093 14.6579 36.502 10.6545 
23.0534 35.4702 14.5727 23.1952 35.1367 15.1768 23.3376 34.6523 15.7586 
23.4456 34.0185 16.25 23.4452 33.3855 16.6923 23.2998 32.8384 17.1331 
23.04 32.2801 17.5332 22.7043 31.6408 17.8907 22.3099 30.9988 18.29 
23.1657 36.285 13.7168 23.2483 36.8312 13.3358 23.1262 37.3615 12.8131 
23.0085 37.848 12.0599 23.0991 38.2509 11.095 23.2685 38.4684 10.0951 
23.2756 38.3936 9.22688 23.1627 38.0543 8.49616 23.1166 37.6004 7.8425 
23.6996 36.2002 14.4544 24.5 36.7661 15.0602 25.3112 37.2075 15.6849 
26.2159 37.2875 16.1483 27.293 37.0277 16.3699 28.4507 36.6381 16.3654 
29.4159 36.1982 16.2022 29.9743 35.6199 15.9706 30.1388 34.8849 15.7347 
12.2799 32.5843 18.3597 12.232 33.176 17.944 12.2515 33.6437 17.2777 
12.3813 33.974 16.2305 12.6439 34.2782 15.0054 12.9965 34.6766 13.9384 
13.3341 35.1606 13.048 13.59 35.6312 12.1248 13.8029 36.0097 11.1253 
12.9254 31.7214 18.9266 13.6198 31.4804 19.1404 14.5461 31.322 19.2881 
15.7054 31.2602 19.3256 16.8634 31.1661 19.3085 17.8184 30.9153 19.2626 
18.6973 30.5831 19.1168 19.7151 30.357 18.8891 20.8401 30.325 18.7384 
11.5522 31.6051 18.7028 10.7467 31.1162 18.543 10.0186 30.6264 18.2424 
9.36754 30.2567 17.815 8.73442 29.9896 17.2543 8.19973 29.7017 16.5522 
7.96149 29.2849 15.7701 8.07233 28.7312 15.0586 8.40666 28.1418 14.5523 
11.9492 31.0936 19.1142 11.5752 30.1183 19.5099 11.272 29.1327 19.916 
11.0196 28.1862 20.3831 10.7865 27.3105 20.9639 10.5848 26.549 21.6441 
10.4513 25.8849 22.3431 10.4516 25.2641 22.9408 10.6706 24.7092 23.2982 
23.044 29.1314 9.86834 22.4594 28.3982 9.9359 21.7542 27.5767 10.1332 
21.0586 26.7633 10.4277 20.4005 25.9909 10.6198 19.6262 25.2142 10.6643 
18.6825 24.5181 10.8131 17.709 24.0858 11.2447 16.7994 23.945 11.8578 
22.7865 29.8756 9.49892 22.0813 29.9494 9.05798 21.4797 29.9197 8.44306 
20.9269 29.7946 7.71372 20.2332 29.669 7.07679 19.351 29.6679 6.73133 
18.4399 29.8406 6.70372 17.6025 30.109 6.85385 16.8033 30.3541 7.00784 
23.9188 29.2633 10.2056 24.2918 28.7563 10.7003 24.4714 28.2835 11.3947 
24.4577 27.8671 12.2617 24.4097 27.4499 13.1967 24.4242 26.965 14.1143 
24.4023 26.4757 14.9921 24.2179 26.1152 15.849 23.8781 25.9068 16.7023 
23.52 30.4597 9.55082 23.6658 31.2363 9.13348 23.8705 32.0255 8.62921 
23.9907 32.7678 8.17902 24.0155 33.5359 7.82213 24.0612 34.4366 7.4538 
24.0914 35.3703 7.09344 23.9418 36.1306 6.92778 23.5914 36.6842 7.02648 
24.1388 30.0903 10.037 24.8263 30.5475 10.33 25.6742 31.1171 10.7285 
26.6974 31.6601 11.2046 27.6865 32.0815 11.7596 28.4659 32.4607 12.4277 
29.0814 32.8876 13.1892 29.5896 33.3296 13.9787 29.9304 33.738 14.757 
15.7966 24.2515 11.97 15.7009 24.814 11.6107 15.6356 25.4989 11.1823 
15.5887 26.0865 10.4443 15.5723 26.5902 9.49927 15.6167 27.2415 8.69357 
15.7299 28.1068 8.16174 15.8716 29.0116 7.77068 15.9807 29.8183 7.40767 
16.6699 23.8493 12.8433 17.5052 23.905 13.4141 18.3854 24.0178 14.0582 
19.3214 24.0359 14.5956 20.3337 23.9923 15.0737 21.2998 24.0924 15.6776 
22.0395 24.4226 16.3773 22.5639 24.8703 16.9591 23.0217 25.3211 17.3241 
14.9216 24.1 12.7384 13.858 24.1534 12.9437 12.8258 24.0525 13.061 
11.8665 23.9774 13.211 10.9728 24.2154 13.5526 10.2004 24.7854 14.0108 
9.64874 25.4597 14.3325 9.30202 26.1311 14.4072 9.04941 26.8574 14.3382 
15.4218 23.9343 13.399 14.7738 23.9843 14.6259 14.0107 24.0211 16.0616 
13.2496 23.9987 17.4 12.5834 23.9611 18.5007 11.9786 23.9501 19.6515 
11.4225 23.9414 21.0763 11.046 23.9424 22.435 10.9623 24.0393 23.2191 
13.9324 36.1977 9.43811 13.8952 35.99 8.75217 13.9756 35.5586 8.10875 
14.1441 34.9053 7.40054 14.3204 34.1318 6.68409 14.4766 33.3227 6.2509 
14.6966 32.5092 6.26787 15.0652 31.7433 6.55927 15.5473 31.0835 6.8632 
13.3742 35.8234 10.3603 12.7068 35.2581 10.5657 12.0243 34.5762 10.7707 
11.4707 33.6808 11.0966 11.1551 32.5274 11.7264 10.8357 31.3071 12.5622 
10.2424 30.2497 13.2654 9.54242 29.3561 13.6938 9.05983 28.5025 13.9817 
14.8286 36.5537 9.64208 15.9407 36.694 9.21555 17.2143 36.8317 8.82255 
18.2494 37.249 8.25803 18.9046 37.9748 7.55906 19.5351 38.5715 7.0673 
20.4596 38.6039 6.95946 21.534 38.1427 7.05825 22.4644 37.5752 7.16622 
15.2504 30.2423 7.33429 14.4511 29.9548 7.8136 13.6948 29.6927 8.58796 
13.0525 29.4043 9.48131 12.4895 29.0308 10.3509 11.8595 28.6169 11.3224 
11.0837 28.2546 12.4101 10.2423 27.9762 13.3181 9.46608 27.7748 13.8785 
16.5544 31.1554 6.76518 17.2308 31.8419 6.40256 18.0891 32.5641 5.89188 
18.9916 33.3413 5.31483 19.7775 34.2398 4.99284 20.5168 35.2132 5.14678 
21.3458 36.0464 5.62751 22.1644 36.5921 6.17103 22.7791 36.9166 6.69974 
22.1895 30.2704 19.2289 22.4527 30.0871 19.735 22.7272 29.7048 20.0717 
23.066 28.9545 20.1106 23.3948 27.9663 19.9228 23.5624 27.1134 19.6222 
23.5511 26.5862 19.2206 23.4924 26.2632 18.7091 23.475 25.995 18.1296 
20.8108 29.8093 19.222 19.6935 29.07 19.5699 18.5725 28.2466 19.7747 
17.378 27.4883 20.109 16.1342 26.9131 20.7657 15.0449 26.4147 21.4791 
14.1544 25.8199 21.9623 13.2351 25.1662 22.3544 12.171 24.6304 22.8507 
23.0974 30.9888 18.6571 24.2127 31.6956 18.8641 25.2029 32.5347 19.4526 
26.1776 33.2696 20.0698 27.1793 33.6305 20.1985 28.0835 33.6637 19.6979 
28.8039 33.6658 18.791 29.3797 33.7906 17.6912 29.8185 33.9712 16.546 
22.7614 25.3077 18.2935 21.961 24.8126 19.0609 20.9949 24.4029 19.628 
19.8127 24.1727 19.9624 18.4865 24.092 20.348 17.1035 24.0714 21.0066 
15.6263 24.0678 21.7697 14.0258 24.0891 22.404 12.4507 24.1605 22.9073 
24.1806 26.3649 17.1956 24.806 27.1792 16.8791 25.2627 28.311 16.593 
25.7856 29.6252 16.3956 26.6885 30.7526 16.3926 27.8222 31.4725 16.5224 
28.7451 31.9606 16.5296 29.3337 32.5315 16.2823 29.7489 33.2914 15.8914 
8.42338 26.9901 14.7717 7.9944 26.2175 15.5405 7.55529 25.4268 16.5669 
7.321 24.8059 17.7857 7.49634 24.4947 19.299 7.93925 24.4317 21.1405 
8.41035 24.4201 22.8198 8.99591 24.3591 23.7024 9.91039 24.2978 23.7281 
23.7365 37.1215 7.81257 24.4337 37.093 8.60894 25.4076 36.9136 9.57801 
26.5291 36.545 10.5476 27.5186 36.1651 11.4522 28.3586 35.8931 12.3365 
29.1775 35.6139 13.1856 29.8493 35.2046 13.9633 30.1425 34.6845 14.7176 
21.3552 35.4802 13.8932 20.4378 35.847 13.8017 20.3143 35.2875 14.412 
19.3299 36.1682 13.6949 19.237 35.6887 14.424 19.1631 35.2292 15.1188 
18.0867 36.3513 13.4583 17.9983 35.9516 14.3098 17.9574 35.5403 15.0854 
17.8333 35.0064 15.7998 16.8949 36.4816 13.1115 16.7537 36.0873 14.0193 
16.6932 35.655 14.8678 16.582 35.1139 15.6441 16.3646 34.4455 16.3149 
15.8955 36.561 12.6835 15.6938 36.1536 13.6075 15.5649 35.6433 14.4924 
15.4119 35.0801 15.3604 15.2078 34.4692 16.1628 15.0234 33.8386 16.7903 
15.0775 36.4844 12.1734 14.861 36.0851 13.1254 14.6697 35.5394 14.014 
14.4385 34.9714 14.9486 14.1975 34.4609 15.9447 14.0278 33.9732 16.7873 
13.9628 33.4542 17.3688 14.386 36.2661 11.6307 14.1796 35.8729 12.6197 
13.9532 35.3515 13.5128 13.6545 34.8194 14.4355 13.3463 34.3933 15.5437 
13.138 34.0454 16.6504 13.0649 33.6423 17.4493 13.0815 33.1192 17.9491 
22.4587 36.4325 13.2189 22.4299 37.0524 12.7385 21.6465 36.7978 12.8495 
22.2004 37.6433 12.1194 21.5591 37.4859 12.2719 20.6847 37.1568 12.5332 
22.0713 38.1909 11.2881 21.3057 38.1294 11.5925 20.5997 37.8459 11.8878 
19.5747 37.2898 12.2018 22.2046 38.6404 10.2635 21.1826 38.7095 10.6908 
20.3912 38.4853 11.1536 19.5853 37.8772 11.5088 18.4599 37.2181 11.8364 
22.3825 38.8148 9.22938 21.2684 39.1155 9.55546 20.2683 39.0193 10.1077 
19.5151 38.3978 10.6472 18.6488 37.5989 11.0423 17.4548 37.0731 11.3761 
22.4198 38.6001 8.37227 21.3794 39.1392 8.44882 20.2722 39.2872 8.81197 
19.4547 38.7733 9.40853 18.7741 37.8899 10.0057 17.7836 37.2159 10.4316 
16.5192 36.9112 10.7807 22.4123 38.1172 7.70934 21.4457 38.748 7.62246 
20.3384 39.128 7.68484 19.4523 38.8585 8.06318 18.8394 38.0473 8.71942 
18.056 37.2798 9.34261 16.8745 36.9048 9.76813 15.622 36.7413 10.1548 
21.8891 37.3599 6.6088 21.145 36.9469 6.04593 20.8066 37.8204 6.49168 
20.3524 36.1987 5.52113 20.0909 37.1303 5.99751 19.7801 37.9712 6.45115 
19.608 35.1961 5.26422 19.4355 36.1003 5.74346 19.2309 36.934 6.22603 
19.0322 37.6024 6.75299 18.7841 34.2148 5.47619 18.6521 35.0315 5.8659 
18.5738 35.7942 6.34946 18.476 36.4856 6.82484 18.3577 36.9918 7.41811 
17.7758 33.3807 5.97079 17.5633 34.1534 6.19014 17.5139 34.8679 6.5608 
17.52 35.5656 7.01566 17.4621 36.1864 7.49728 17.3452 36.6104 8.0793 
16.7857 32.5984 6.37612 16.4039 33.3719 6.37698 16.2294 34.115 6.51191 
16.225 34.8526 6.88752 16.2174 35.5792 7.41204 16.1306 36.1682 7.94371 
16.0207 36.5234 8.5183 16.0491 31.8138 6.61467 15.556 32.5531 6.40929 
15.2287 33.3337 6.27714 15.1026 34.1256 6.46364 15.0485 34.9243 7.01442 
14.9536 35.6538 7.67802 14.8459 36.1744 8.28376 14.7989 36.4458 8.91072 
13.2306 35.6775 9.58002 13.2159 35.3311 8.87624 12.5878 34.9672 9.79137 
13.3792 34.7605 8.21147 12.6547 34.458 9.16912 12.0039 34.0999 10.0852 
13.6772 34.0481 7.50076 12.9592 33.8194 8.66761 12.2157 33.4773 9.69409 
11.6186 33.0573 10.6144 13.9749 33.2646 6.87657 13.3973 33.1352 8.16497 
12.6502 32.8427 9.47517 11.9492 32.396 10.4653 11.399 31.8632 11.4485 
14.1986 32.4137 6.62374 13.7448 32.3515 7.74034 13.1143 32.1635 9.1819 
12.3739 31.7423 10.3538 11.6963 31.1893 11.327 11.0217 30.6638 12.3429 
[...]
POINT_DATA 1002
FIELD FieldData 4
_paraPhi 1 1002 double
6.2831853072 3.1415926536 6.2831853072 3.1415926536 4.7123889804 4.7123889804 1.5707963268 1.5707963268 3.6951670125 
5.7296109483 2.5880182947 0.5535743589 6.2831853072 6.2831853072 6.2831853072 6.2831853072 3.1415926536 3.1415926536 
3.1415926536 3.1415926536 3.1415926536 6.1053039672 5.898798347 5.6768734901 5.4599499503 5.2659633393 5.1032165617 
4.9713148346 4.8656852733 4.7809517865 0.17788134 0.38438696014 0.60631181711 0.82323535693 1.0172219679 1.1799687454 
1.3118704726 1.4175000338 1.5022335207 6.1892828907 6.1070320098 6.035312792 5.9728339911 5.9183214791 5.8706119594 
5.8286879411 5.7916808611 5.7588591896 0.093902416448 0.17615329733 0.2478725152 0.31035131605 0.36486382811 0.41257334776 
0.45449736604 0.4915044461 0.52432611754 3.3194739936 3.5259796137 3.7479044707 3.9648280105 4.1588146215 4.321561399 
4.4534631262 4.5590926874 4.6438261743 2.9637113136 2.7572056934 2.5352808365 2.3183572967 2.1243706857 1.9616239082 
1.829722181 1.7240926197 1.6393591329 3.23549507 3.3177459509 3.3894651688 3.4519439696 3.5064564817 3.5541660013 
3.5960900196 3.6330970997 3.6659187711 3.0476902371 2.9654393563 2.8937201384 2.8312413375 2.7767288255 2.7290193058 
2.6870952876 2.6500882075 2.617266536 6.2831853072 6.2831853072 6.2831853072 6.2831853072 3.1415926536 3.1415926536 
3.1415926536 3.1415926536 3.1415926536 6.1053039672 5.898798347 5.6768734901 5.4599499503 5.2659633393 5.1032165617 
4.9713148346 4.8656852733 4.7809517865 0.17788134 0.38438696014 0.60631181711 0.82323535693 1.0172219679 1.1799687454 
1.3118704726 1.4175000338 1.5022335207 6.1892828907 6.1070320098 6.035312792 5.9728339911 5.9183214791 5.8706119594 
5.8286879411 5.7916808611 5.7588591896 0.093902416448 0.17615329733 0.2478725152 0.31035131605 0.36486382811 0.41257334776 
0.45449736604 0.4915044461 0.52432611754 3.3194739936 3.5259796137 3.7479044707 3.9648280105 4.1588146215 4.321561399 
4.4534631262 4.5590926874 4.6438261743 2.9637113136 2.7572056934 2.5352808365 2.3183572967 2.1243706857 1.9616239082 
1.829722181 1.7240926197 1.6393591329 3.23549507 3.3177459509 3.3894651688 3.4519439696 3.5064564817 3.5541660013 
3.5960900196 3.6330970997 3.6659187711 3.0476902371 2.9654393563 2.8937201384 2.8312413375 2.7767288255 2.7290193058 
2.6870952876 2.6500882075 2.617266536 4.7123889804 4.7123889804 4.7123889804 4.7123889804 4.7123889804 4.7123889804 
4.7123889804 4.7123889804 4.7123889804 4.6087898617 4.4991390697 4.3857031936 4.2712800401 4.1588146215 4.0509635631 
3.94975894 3.8564636551 3.7716124825 4.8159880991 4.9256388911 5.0390747672 5.1534979207 5.2659633393 5.3738143976 
5.4750190208 5.5683143056 5.6531654782 4.6087898617 4.4991390697 4.3857031936 4.2712800401 4.1588146215 4.0509635631 
3.94975894 3.8564636551 3.7716124825 4.8159880991 4.9256388911 5.0390747672 5.1534979207 5.2659633393 5.3738143976 
5.4750190208 5.5683143056 5.6531654782 1.5707963268 1.5707963268 1.5707963268 1.5707963268 1.5707963268 1.5707963268 
1.5707963268 1.5707963268 1.5707963268 1.6743954455 1.7840462375 1.8974821136 2.0119052671 2.1243706857 2.232221744 
2.3334263672 2.426721652 2.5115728246 1.4671972081 1.3575464161 1.24411054 1.1296873865 1.0172219679 0.90937090954 
0.80816628637 0.71487100155 0.63001982895 1.6743954455 1.7840462375 1.8974821136 2.0119052671 2.1243706857 2.232221744 
2.3334263672 2.426721652 2.5115728246 1.4671972081 1.3575464161 1.24411054 1.1296873865 1.0172219679 0.90937090954 
0.80816628637 0.71487100155 0.63001982895 3.6007720849 3.4966939854 3.3839471039 3.2645756454 3.1415926536 3.0186096618 
2.8992382033 2.7864913217 2.6824132222 5.8240058758 5.9280839753 6.0408308569 6.1602023154 6.2831853072 0.12298299178 
0.2423544503 0.35510133185 0.45917943135 6.0560271438 5.7885595667 5.9702140275 5.5125918794 5.6029703303 5.7885595667 
5.2659633393 5.2659633393 5.2659633393 5.2659633393 5.0674903122 5.0120975802 4.9155579264 4.7123889804 4.1588146215 
4.9155579264 4.8353719722 4.7123889804 4.5092200343 4.1588146215 3.6362183941 4.8004512023 4.7123889804 4.5894059886 
4.4126803806 4.1588146215 3.8218076305 3.4545639333 4.7123889804 4.6243267584 4.5092200343 4.3572876485 4.1588146215 
3.9121860814 3.6362183941 3.368750817 6.0174235957 5.9434319871 5.8263323547 5.8809213739 5.7674481418 5.6279784266 
5.8278025282 5.718968232 5.5891129425 5.4372443565 5.7823484065 5.678536687 5.5575666702 5.4192596322 5.2659633393 
5.743164462 5.6444075337 5.5314983644 5.4046708639 5.2659633393 5.1195510325 5.7091357773 5.6152775188 5.5096229709 
5.3926039573 5.2659633393 5.1329233157 4.9978930058 5.6793730533 5.5901633916 5.4910209005 5.3824597928 5.2659633393 
5.1440684722 5.0201624502 4.8979782167 5.5683143056 5.4750190208 5.4750190208 5.3738143976 5.3738143976 5.3738143976 
5.2659633393 5.2659633393 5.2659633393 5.2659633393 5.1534979207 5.1534979207 5.1534979207 5.1534979207 5.1534979207 
5.0390747672 5.0390747672 5.0390747672 5.0390747672 5.0390747672 5.0390747672 4.9256388911 4.9256388911 4.9256388911 
4.9256388911 4.9256388911 4.9256388911 4.9256388911 4.8159880991 4.8159880991 4.8159880991 4.8159880991 4.8159880991 
4.8159880991 4.8159880991 4.8159880991 4.6087898617 4.6087898617 4.4991390697 4.6087898617 4.4991390697 4.3857031936 
4.6087898617 4.4991390697 4.3857031936 4.2712800401 4.6087898617 4.4991390697 4.3857031936 4.2712800401 4.1588146215 
4.6087898617 4.4991390697 4.3857031936 4.2712800401 4.1588146215 4.0509635631 4.6087898617 4.4991390697 4.3857031936 
4.2712800401 4.1588146215 4.0509635631 3.94975894 4.6087898617 4.4991390697 4.3857031936 4.2712800401 4.1588146215 
4.0509635631 3.94975894 3.8564636551 4.526799744 4.4046155105 4.426884955 4.2807094886 4.2918546451 4.3052269283 
4.1588146215 4.1588146215 4.1588146215 4.1588146215 4.042318168 4.0321740035 4.0201070968 4.0055183285 3.9875336042 
3.9337570603 3.9151549899 3.8932795963 3.8672112905 3.8356650183 3.7967995342 3.8346145692 3.809500442 3.7803704271 
3.7462412737 3.7058097288 3.657329819 3.5984456061 3.7454049075 3.7156421835 3.6816134988 3.6424295543 3.5969754326 
3.5438565869 3.4813459737 3.4073543651 3.5642842451 3.4524645613 3.5233842518 3.3320300872 3.403123212 3.4773852225 
3.20576226 3.2746326772 3.348015857 3.4255060145 3.0774230472 3.1415926536 3.2112816139 3.2864685043 3.3668817272 
2.95115522 3.00855263 3.0719036933 3.1415926536 3.2178377658 3.3005964304 2.8307207459 2.8800620952 2.9351694502 
2.9967168029 3.0653475414 3.1415926536 3.225752376 2.718901062 2.7598010554 2.8058000847 2.8576792927 2.91630358 
2.9825888767 3.0574329311 3.1415926536 3.5642842451 3.5233842518 3.4524645613 3.4773852225 3.403123212 3.3320300872 
3.4255060145 3.348015857 3.2746326772 3.20576226 3.3668817272 3.2864685043 3.2112816139 3.1415926536 3.0774230472 
3.3005964304 3.2178377658 3.1415926536 3.0719036933 3.00855263 2.95115522 3.225752376 3.1415926536 3.0653475414 
2.9967168029 2.9351694502 2.8800620952 2.8307207459 3.1415926536 3.0574329311 2.9825888767 2.91630358 2.8576792927 
2.8058000847 2.7598010554 2.718901062 4.526799744 4.426884955 4.4046155105 4.3052269283 4.2918546451 4.2807094886 
4.1588146215 4.1588146215 4.1588146215 4.1588146215 3.9875336042 4.0055183285 4.0201070968 4.0321740035 4.042318168 
3.7967995342 3.8356650183 3.8672112905 3.8932795963 3.9151549899 3.9337570603 3.5984456061 3.657329819 3.7058097288 
3.7462412737 3.7803704271 3.809500442 3.8346145692 3.4073543651 3.4813459737 3.5438565869 3.5969754326 3.6424295543 
3.6816134988 3.7156421835 3.7454049075 4.7123889804 4.8004512023 4.6243267584 4.9155579264 4.7123889804 4.5092200343 
5.0674903122 4.8353719722 4.5894059886 4.3572876485 5.2659633393 5.0120975802 4.7123889804 4.4126803806 4.1588146215 
5.5125918794 5.2659633393 4.9155579264 4.5092200343 4.1588146215 3.9121860814 5.7885595667 5.6029703303 5.2659633393 
4.7123889804 4.1588146215 3.8218076305 3.6362183941 6.0560271438 5.9702140275 5.7885595667 5.2659633393 4.1588146215 
3.6362183941 3.4545639333 3.368750817 0.22715816343 0.49462574053 0.3129712797 0.77059342779 0.68021497688 0.49462574053 
1.0172219679 1.0172219679 1.0172219679 1.0172219679 1.2156949949 1.271087727 1.3676273807 1.5707963268 2.1243706857 
1.3676273807 1.447813335 1.5707963268 1.7739652728 2.1243706857 2.6469669131 1.4827341049 1.5707963268 1.6937793186 
1.8705049266 2.1243706857 2.4613776767 2.8286213739 1.5707963268 1.6588585487 1.7739652728 1.9258976586 2.1243706857 
2.3709992258 2.6469669131 2.9144344902 1.7563855631 1.8785697967 1.8563003522 2.0024758186 1.9913306621 1.9779583789 
2.1243706857 2.1243706857 2.1243706857 2.1243706857 2.2408671392 2.2510113037 2.2630782103 2.2776669786 2.295651703 
2.3494282469 2.3680303173 2.3899057108 2.4159740166 2.4475202889 2.486385773 2.448570738 2.4736848652 2.5028148801 
2.5369440334 2.5773755784 2.6258554882 2.6847397011 2.5377803997 2.5675431237 2.6015718084 2.6407557529 2.6862098746 
2.7393287203 2.8018393335 2.8758309421 1.6743954455 1.6743954455 1.7840462375 1.6743954455 1.7840462375 1.8974821136 
1.6743954455 1.7840462375 1.8974821136 2.0119052671 1.6743954455 1.7840462375 1.8974821136 2.0119052671 2.1243706857 
1.6743954455 1.7840462375 1.8974821136 2.0119052671 2.1243706857 2.232221744 1.6743954455 1.7840462375 1.8974821136 
2.0119052671 2.1243706857 2.232221744 2.3334263672 1.6743954455 1.7840462375 1.8974821136 2.0119052671 2.1243706857 
2.232221744 2.3334263672 2.426721652 1.4671972081 1.3575464161 1.4671972081 1.24411054 1.3575464161 1.4671972081 
1.1296873865 1.24411054 1.3575464161 1.4671972081 1.0172219679 1.1296873865 1.24411054 1.3575464161 1.4671972081 
0.90937090954 1.0172219679 1.1296873865 1.24411054 1.3575464161 1.4671972081 0.80816628637 0.90937090954 1.0172219679 
1.1296873865 1.24411054 1.3575464161 1.4671972081 0.71487100155 0.80816628637 0.90937090954 1.0172219679 1.1296873865 
1.24411054 1.3575464161 1.4671972081 0.60381225391 0.57404952988 0.69302191562 0.54002084522 0.66790778838 0.79216440667 
0.50083690068 0.63877777351 0.77356233629 0.90072551443 0.45538277901 0.60464862014 0.75168694275 0.89058134991 1.0172219679 
0.40226393329 0.56421707518 0.72561863695 0.87851444325 1.0172219679 1.139116835 0.33975332011 0.51573716537 0.69407236469 
0.86392567495 1.0172219679 1.1502619915 1.2630228569 0.26576171152 0.45685295248 0.6552068806 0.84594095064 1.0172219679 
1.1636342747 1.2852923014 1.3852070904 0.22715816343 0.3129712797 0.49462574053 0.49462574053 0.68021497688 0.77059342779 
1.0172219679 1.0172219679 1.0172219679 1.0172219679 2.1243706857 1.5707963268 1.3676273807 1.271087727 1.2156949949 
2.6469669131 2.1243706857 1.7739652728 1.5707963268 1.447813335 1.3676273807 2.8286213739 2.4613776767 2.1243706857 
1.8705049266 1.6937793186 1.5707963268 1.4827341049 2.9144344902 2.6469669131 2.3709992258 2.1243706857 1.9258976586 
1.7739652728 1.6588585487 1.5707963268 1.7563855631 1.8563003522 1.8785697967 1.9779583789 1.9913306621 2.0024758186 
2.1243706857 2.1243706857 2.1243706857 2.1243706857 2.295651703 2.2776669786 2.2630782103 2.2510113037 2.2408671392 
2.486385773 2.4475202889 2.4159740166 2.3899057108 2.3680303173 2.3494282469 2.6847397011 2.6258554882 2.5773755784 
2.5369440334 2.5028148801 2.4736848652 2.448570738 2.8758309421 2.8018393335 2.7393287203 2.6862098746 2.6407557529 
2.6015718084 2.5675431237 2.5377803997 5.8604937156 5.901393709 5.9723133995 5.9473927383 6.0216547488 6.0927478736 
5.9992719463 6.0767621038 6.1501452836 6.2190157008 6.0578962336 6.1383094565 6.2134963469 0 0.064169606361 
6.1241815303 6.206940195 6.2831853072 0.069688960264 0.13304002361 0.19043743361 6.1990255847 0 0.07624511221 
0.14487585072 0.20642320337 0.26153055843 0.3108719077 0 0.084159722458 0.15900377685 0.22528907359 0.28391336087 
0.3357925689 0.38179159818 0.42269159155 5.8604937156 5.9723133995 5.901393709 6.0927478736 6.0216547488 5.9473927383 
6.2190157008 6.1501452836 6.0767621038 5.9992719463 0.064169606361 0 6.2134963469 6.1383094565 6.0578962336 
0.19043743361 0.13304002361 0.069688960264 6.2831853072 6.206940195 6.1241815303 0.3108719077 0.26153055843 0.20642320337 
0.14487585072 0.07624511221 6.2831853072 6.1990255847 0.42269159155 0.38179159818 0.3357925689 0.28391336087 0.22528907359 
0.15900377685 0.084159722458 0 5.6793730533 5.7091357773 5.5901633916 5.743164462 5.6152775188 5.4910209005 
5.7823484065 5.6444075337 5.5096229709 5.3824597928 5.8278025282 5.678536687 5.5314983644 5.3926039573 5.2659633393 
5.8809213739 5.718968232 5.5575666702 5.4046708639 5.2659633393 5.1440684722 5.9434319871 5.7674481418 5.5891129425 
5.4192596322 5.2659633393 5.1329233157 5.0201624502 6.0174235957 5.8263323547 5.6279784266 5.4372443565 5.2659633393 
5.1195510325 4.9978930058 4.8979782167 1.3852070904 1.2852923014 1.2630228569 1.1636342747 1.1502619915 1.139116835 
1.0172219679 1.0172219679 1.0172219679 1.0172219679 0.84594095064 0.86392567495 0.87851444325 0.89058134991 0.90072551443 
0.6552068806 0.69407236469 0.72561863695 0.75168694275 0.77356233629 0.79216440667 0.45685295248 0.51573716537 0.56421707518 
0.60464862014 0.63877777351 0.66790778838 0.69302191562 0.26576171152 0.33975332011 0.40226393329 0.45538277901 0.50083690068 
0.54002084522 0.57404952988 0.60381225391 
_paraPhiHalf 1 1002 double
0 3.1415926536 0 3.1415926536 1.5707963268 1.5707963268 1.5707963268 1.5707963268 2.5880182947 
0.5535743589 2.5880182947 0.5535743589 0 0 0 0 3.1415926536 3.1415926536 
3.1415926536 3.1415926536 3.1415926536 0.17788134 0.38438696014 0.60631181711 0.82323535693 1.0172219679 1.1799687454 
1.3118704726 1.4175000338 1.5022335207 0.17788134 0.38438696014 0.60631181711 0.82323535693 1.0172219679 1.1799687454 
1.3118704726 1.4175000338 1.5022335207 0.093902416448 0.17615329733 0.2478725152 0.31035131605 0.36486382811 0.41257334776 
0.45449736604 0.4915044461 0.52432611754 0.093902416448 0.17615329733 0.2478725152 0.31035131605 0.36486382811 0.41257334776 
0.45449736604 0.4915044461 0.52432611754 2.9637113136 2.7572056934 2.5352808365 2.3183572967 2.1243706857 1.9616239082 
1.829722181 1.7240926197 1.6393591329 2.9637113136 2.7572056934 2.5352808365 2.3183572967 2.1243706857 1.9616239082 
1.829722181 1.7240926197 1.6393591329 3.0476902371 2.9654393563 2.8937201384 2.8312413375 2.7767288255 2.7290193058 
2.6870952876 2.6500882075 2.617266536 3.0476902371 2.9654393563 2.8937201384 2.8312413375 2.7767288255 2.7290193058 
2.6870952876 2.6500882075 2.617266536 0 0 0 0 3.1415926536 3.1415926536 
3.1415926536 3.1415926536 3.1415926536 0.17788134 0.38438696014 0.60631181711 0.82323535693 1.0172219679 1.1799687454 
1.3118704726 1.4175000338 1.5022335207 0.17788134 0.38438696014 0.60631181711 0.82323535693 1.0172219679 1.1799687454 
1.3118704726 1.4175000338 1.5022335207 0.093902416448 0.17615329733 0.2478725152 0.31035131605 0.36486382811 0.41257334776 
0.45449736604 0.4915044461 0.52432611754 0.093902416448 0.17615329733 0.2478725152 0.31035131605 0.36486382811 0.41257334776 
0.45449736604 0.4915044461 0.52432611754 2.9637113136 2.7572056934 2.5352808365 2.3183572967 2.1243706857 1.9616239082 
1.829722181 1.7240926197 1.6393591329 2.9637113136 2.7572056934 2.5352808365 2.3183572967 2.1243706857 1.9616239082 
1.829722181 1.7240926197 1.6393591329 3.0476902371 2.9654393563 2.8937201384 2.8312413375 2.7767288255 2.7290193058 
2.6870952876 2.6500882075 2.617266536 3.0476902371 2.9654393563 2.8937201384 2.8312413375 2.7767288255 2.7290193058 
2.6870952876 2.6500882075 2.617266536 1.5707963268 1.5707963268 1.5707963268 1.5707963268 1.5707963268 1.5707963268 
1.5707963268 1.5707963268 1.5707963268 1.6743954455 1.7840462375 1.8974821136 2.0119052671 2.1243706857 2.232221744 
2.3334263672 2.426721652 2.5115728246 1.4671972081 1.3575464161 1.24411054 1.1296873865 1.0172219679 0.90937090954 
0.80816628637 0.71487100155 0.63001982895 1.6743954455 1.7840462375 1.8974821136 2.0119052671 2.1243706857 2.232221744 
2.3334263672 2.426721652 2.5115728246 1.4671972081 1.3575464161 1.24411054 1.1296873865 1.0172219679 0.90937090954 
0.80816628637 0.71487100155 0.63001982895 1.5707963268 1.5707963268 1.5707963268 1.5707963268 1.5707963268 1.5707963268 
1.5707963268 1.5707963268 1.5707963268 1.6743954455 1.7840462375 1.8974821136 2.0119052671 2.1243706857 2.232221744 
2.3334263672 2.426721652 2.5115728246 1.4671972081 1.3575464161 1.24411054 1.1296873865 1.0172219679 0.90937090954 
0.80816628637 0.71487100155 0.63001982895 1.6743954455 1.7840462375 1.8974821136 2.0119052671 2.1243706857 2.232221744 
2.3334263672 2.426721652 2.5115728246 1.4671972081 1.3575464161 1.24411054 1.1296873865 1.0172219679 0.90937090954 
0.80816628637 0.71487100155 0.63001982895 2.6824132222 2.7864913217 2.8992382033 3.0186096618 3.1415926536 3.0186096618 
2.8992382033 2.7864913217 2.6824132222 0.45917943135 0.35510133185 0.2423544503 0.12298299178 0 0.12298299178 
0.2423544503 0.35510133185 0.45917943135 0.22715816343 0.49462574053 0.3129712797 0.77059342779 0.68021497688 0.49462574053 
1.0172219679 1.0172219679 1.0172219679 1.0172219679 1.2156949949 1.271087727 1.3676273807 1.5707963268 2.1243706857 
1.3676273807 1.447813335 1.5707963268 1.7739652728 2.1243706857 2.6469669131 1.4827341049 1.5707963268 1.6937793186 
1.8705049266 2.1243706857 2.4613776767 2.8286213739 1.5707963268 1.6588585487 1.7739652728 1.9258976586 2.1243706857 
2.3709992258 2.6469669131 2.9144344902 0.26576171152 0.33975332011 0.45685295248 0.40226393329 0.51573716537 0.6552068806 
0.45538277901 0.56421707518 0.69407236469 0.84594095064 0.50083690068 0.60464862014 0.72561863695 0.86392567495 1.0172219679 
0.54002084522 0.63877777351 0.75168694275 0.87851444325 1.0172219679 1.1636342747 0.57404952988 0.66790778838 0.77356233629 
0.89058134991 1.0172219679 1.1502619915 1.2852923014 0.60381225391 0.69302191562 0.79216440667 0.90072551443 1.0172219679 
1.139116835 1.2630228569 1.3852070904 0.71487100155 0.80816628637 0.80816628637 0.90937090954 0.90937090954 0.90937090954 
1.0172219679 1.0172219679 1.0172219679 1.0172219679 1.1296873865 1.1296873865 1.1296873865 1.1296873865 1.1296873865 
1.24411054 1.24411054 1.24411054 1.24411054 1.24411054 1.24411054 1.3575464161 1.3575464161 1.3575464161 
1.3575464161 1.3575464161 1.3575464161 1.3575464161 1.4671972081 1.4671972081 1.4671972081 1.4671972081 1.4671972081 
1.4671972081 1.4671972081 1.4671972081 1.6743954455 1.6743954455 1.7840462375 1.6743954455 1.7840462375 1.8974821136 
1.6743954455 1.7840462375 1.8974821136 2.0119052671 1.6743954455 1.7840462375 1.8974821136 2.0119052671 2.1243706857 
1.6743954455 1.7840462375 1.8974821136 2.0119052671 2.1243706857 2.232221744 1.6743954455 1.7840462375 1.8974821136 
2.0119052671 2.1243706857 2.232221744 2.3334263672 1.6743954455 1.7840462375 1.8974821136 2.0119052671 2.1243706857 
2.232221744 2.3334263672 2.426721652 1.7563855631 1.8785697967 1.8563003522 2.0024758186 1.9913306621 1.9779583789 
2.1243706857 2.1243706857 2.1243706857 2.1243706857 2.2408671392 2.2510113037 2.2630782103 2.2776669786 2.295651703 
2.3494282469 2.3680303173 2.3899057108 2.4159740166 2.4475202889 2.486385773 2.448570738 2.4736848652 2.5028148801 
2.5369440334 2.5773755784 2.6258554882 2.6847397011 2.5377803997 2.5675431237 2.6015718084 2.6407557529 2.6862098746 
2.7393287203 2.8018393335 2.8758309421 2.718901062 2.8307207459 2.7598010554 2.95115522 2.8800620952 2.8058000847 
3.0774230472 3.00855263 2.9351694502 2.8576792927 3.0774230472 3.1415926536 3.0719036933 2.9967168029 2.91630358 
2.95115522 3.00855263 3.0719036933 3.1415926536 3.0653475414 2.9825888767 2.8307207459 2.8800620952 2.9351694502 
2.9967168029 3.0653475414 3.1415926536 3.0574329311 2.718901062 2.7598010554 2.8058000847 2.8576792927 2.91630358 
2.9825888767 3.0574329311 3.1415926536 2.718901062 2.7598010554 2.8307207459 2.8058000847 2.8800620952 2.95115522 
2.8576792927 2.9351694502 3.00855263 3.0774230472 2.91630358 2.9967168029 3.0719036933 3.1415926536 3.0774230472 
2.9825888767 3.0653475414 3.1415926536 3.0719036933 3.00855263 2.95115522 3.0574329311 3.1415926536 3.0653475414 