# vtk DataFile Version 5.1
vtk output
ASCII
DATASET POLYDATA
POINTS 1002 float
-5.20291 -0.21542 -3.92187 4.82119 0.292047 -2.59432 -4.8579 0.128035 4.30535 
4.69958 0.0760399 3.77301 0.45547 7.03425 -2.83226 -0.140977 6.75932 2.78999 
-0.0309768 -7.19478 -3.43139 -0.610139 -6.42154 3.03574 8.95989 3.49687 -0.561846 
-9.53545 4.38112 -0.79419 9.63584 -5.03797 -0.443096 -8.51001 -5.0171 -0.18304 
-4.29597 -0.228677 -4.06979 -3.27797 -0.19473 -4.25556 -2.18119 -0.163995 -4.33539 
-1.09329 -0.160246 -4.09786 -0.089382 -0.12779 -3.54067 0.867935 -0.0263437 -2.95557 
1.87002 0.0936238 -2.62003 2.91806 0.17974 -2.54628 3.92539 0.239773 -2.58048 
-4.96285 0.395201 -3.95154 -4.65076 1.0485 -3.9735 -4.21625 1.7459 -3.86919 
-3.58114 2.55226 -3.53918 -2.77754 3.45352 -3.0963 -1.9741 4.29262 -2.77556 
-1.28498 4.98952 -2.65764 -0.678109 5.64746 -2.67145 -0.0970842 6.34861 -2.74861 
-4.83661 -0.827063 -4.00036 -4.38707 -1.43663 -4.10219 -3.88076 -2.07807 -4.16086 
-3.33243 -2.82541 -4.13405 -2.74378 -3.63212 -4.0678 -2.14821 -4.38308 -4.02239 
-1.59006 -5.10497 -3.97271 -1.06441 -5.86974 -3.86018 -0.543726 -6.60604 -3.67407 
-5.94879 0.225178 -3.81718 -6.73398 0.727375 -3.65107 -7.54512 1.22144 -3.36622 
-8.35711 1.657 -3.11884 -9.14632 2.10182 -3.11651 -9.86615 2.67978 -3.18788 
-10.3712 3.35741 -2.92139 -10.4739 3.93183 -2.24717 -10.14 4.26165 -1.45891 
-5.86579 -0.538851 -3.83051 -6.49714 -0.863059 -3.67478 -7.05457 -1.24352 -3.36134 
-7.60458 -1.74104 -2.99096 -8.20453 -2.33428 -2.8483 -8.699 -2.93687 -2.89738 
-8.87611 -3.51523 -2.67265 -8.78068 -4.08679 -1.94144 -8.62443 -4.61632 -0.989037 
4.6314 0.869078 -2.58098 4.36987 1.48877 -2.56437 4.00865 2.19019 -2.4809 
3.54682 3.02866 -2.28063 3.04857 3.94015 -2.06689 2.57467 4.75194 -2.04136 
2.09465 5.40255 -2.25132 1.55795 5.98105 -2.54111 0.99066 6.54032 -2.75219 
4.44011 -0.335355 -2.57355 3.9991 -1.04945 -2.42286 3.51795 -1.81223 -2.25905 
3.0571 -2.57322 -2.36095 2.61374 -3.35935 -2.78381 2.0696 -4.22796 -3.21945 
1.39382 -5.12645 -3.44698 0.75119 -5.94307 -3.54022 0.285424 -6.63347 -3.55997 
5.58345 0.699918 -2.52374 6.38556 1.1473 -2.45815 7.1813 1.62067 -2.57389 
7.94343 2.09572 -2.90859 8.69117 2.58775 -3.27149 9.373 3.09389 -3.39938 
9.7828 3.48422 -3.11081 9.76633 3.623 -2.39584 9.41804 3.56599 -1.45504 
5.44401 -0.0409226 -2.59804 6.08803 -0.427325 -2.61612 6.76444 -0.900737 -2.66587 
7.46514 -1.48732 -2.727 8.14071 -2.19118 -2.7155 8.72539 -2.99996 -2.5613 
9.17704 -3.83299 -2.2627 9.48367 -4.5174 -1.81295 9.6402 -4.91549 -1.18888 
-3.9738 0.290656 4.40458 -3.03864 0.392739 4.40457 -2.10723 0.409725 4.32571 
-1.14977 0.377086 4.22777 -0.0872867 0.351432 4.17066 1.04879 0.331856 4.16065 
2.11727 0.2777 4.15079 3.05181 0.193112 4.0929 3.89939 0.120677 3.96737 
-4.46127 0.885967 4.38033 -4.04567 1.67382 4.35712 -3.6736 2.4829 4.26678 
-3.26642 3.34963 4.22037 -2.69378 4.28397 4.35086 -2.02254 5.18685 4.56718 
-1.45211 5.90031 4.52283 -1.02077 6.34385 4.04632 -0.608186 6.58149 3.36497 
-4.62831 -0.539222 4.20549 -4.25545 -1.27498 3.93236 -3.807 -2.01972 3.58904 
-3.38252 -2.78114 3.51529 -2.9732 -3.67766 3.90824 -2.50099 -4.68011 4.40913 
-1.98761 -5.48371 4.47279 -1.5131 -5.90398 4.04017 -1.07326 -6.12825 3.46982 
-5.46615 0.403865 4.19535 -6.06628 0.686849 4.06661 -6.71101 1.02191 3.96812 
-7.41297 1.46757 3.73166 -8.02027 1.99272 3.07599 -8.36682 2.47436 2.03389 
-8.55449 2.88455 0.997304 -8.82711 3.33551 0.24032 -9.21682 3.87174 -0.301524 
-5.61067 -0.459324 4.07081 -6.32101 -1.04118 3.69079 -6.91508 -1.56765 3.20953 
-7.44086 -2.09279 2.72005 -7.99588 -2.69842 2.25603 -8.54189 -3.35791 1.78522 
-8.90688 -3.96904 1.32475 -8.97935 -4.46422 0.895325 -8.80457 -4.81691 0.418848 
4.42476 0.628711 3.67692 4.10672 1.33385 3.60096 3.70634 2.11563 3.58649 
3.22049 2.8514 3.62884 2.68073 3.58867 3.64182 2.09158 4.41716 3.52738 
1.45691 5.19762 3.30901 0.839929 5.77839 3.10023 0.306466 6.25242 2.94509 
4.45074 -0.414672 3.96518 4.12281 -1.01364 4.03949 3.74861 -1.7558 4.05587 
3.37653 -2.53597 4.13185 2.92403 -3.2345 4.16998 2.22223 -3.89937 3.95131 
1.30389 -4.62104 3.55148 0.431682 -5.34229 3.25499 -0.201213 -5.95129 3.13388 
5.33281 0.363114 3.43451 6.02173 0.69495 3.07983 6.76318 1.05214 2.81726 
7.46995 1.39831 2.50523 8.0088 1.721 1.89016 8.36068 2.03209 1.11253 
8.62241 2.33888 0.579045 8.83525 2.66272 0.30851 8.95637 3.04582 -0.0246205 
5.39474 -0.263977 3.65701 6.1541 -0.686539 3.43166 6.86673 -1.25301 3.0449 
7.48268 -1.92277 2.52341 8.10179 -2.56471 2.00582 8.79459 -3.12946 1.61552 
9.41911 -3.70282 1.27073 9.776 -4.30769 0.787805 9.82052 -4.80265 0.159773 
0.472061 7.70987 -2.78721 0.4762 8.32245 -2.46148 0.41947 8.76674 -1.84477 
0.27371 9.0005 -1.10479 0.101841 9.01455 -0.375828 0.00659268 8.78692 0.369962 
-0.0081413 8.34083 1.13643 -0.0249553 7.78572 1.81805 -0.0810582 7.24018 2.35643 
1.33642 7.33757 -2.89736 2.28137 7.43663 -2.98061 3.26426 7.3678 -2.97205 
4.24856 7.34233 -2.7174 5.17692 7.41728 -2.24668 6.02276 7.26358 -1.75815 
6.8293 6.56606 -1.35598 7.62375 5.46832 -1.02327 8.35458 4.36635 -0.758107 
-0.424141 7.01177 -2.78129 -1.4138 6.91001 -2.63948 -2.52656 6.86155 -2.37904 
-3.7072 6.91895 -2.04376 -4.86355 6.95537 -1.73881 -6.00025 6.82323 -1.53796 
-7.16648 6.47511 -1.40164 -8.25755 5.90814 -1.23796 -9.07142 5.17041 -1.02257 
0.681825 6.71565 2.52271 1.60861 6.79393 2.3837 2.54727 6.7873 2.21344 
3.48929 6.60988 1.96928 4.52379 6.43716 1.79816 5.6311 6.27651 1.70315 
6.63147 5.80987 1.43864 7.44585 4.96275 0.880396 8.18814 4.08952 0.160221 
-0.88072 7.27748 2.93754 -1.66314 7.89165 3.10143 -2.49531 8.25367 3.09633 
-3.38967 8.10795 2.74493 -4.36102 7.60604 2.10189 -5.41136 7.02356 1.39137 
-6.50643 6.38837 0.747899 -7.58962 5.66865 0.178364 -8.61295 4.96846 -0.331709 
0.114847 -7.81045 -3.00768 0.215174 -8.3696 -2.31173 0.223745 -8.77463 -1.4077 
0.215193 -8.99865 -0.486419 0.273667 -9.05981 0.307984 0.304753 -8.88904 0.983866 
0.149565 -8.39651 1.60703 -0.160048 -7.68175 2.18576 -0.449114 -6.97804 2.67398 
0.684446 -7.28588 -3.25202 1.5113 -7.2542 -2.99705 2.45762 -7.26195 -2.73471 
3.48308 -7.22711 -2.4251 4.5575 -6.80569 -1.90108 5.70963 -5.9964 -1.19199 
6.9298 -5.31558 -0.636544 8.07949 -5.0877 -0.448616 8.99686 -5.10382 -0.469954 
-0.665139 -7.25574 -3.2591 -1.44394 -7.03543 -2.86425 -2.39283 -6.65048 -2.37948 
-3.42947 -6.35614 -2.03943 -4.42914 -6.25155 -1.91609 -5.35512 -6.20315 -1.81852 
-6.24227 -6.08154 -1.54665 -7.08764 -5.8506 -1.10441 -7.85021 -5.49274 -0.618311 
0.159766 -6.5817 2.87025 1.12486 -6.74172 2.79663 2.28632 -6.77076 2.53978 
3.55792 -6.73342 2.01734 4.83948 -6.74323 1.58488 6.0895 -6.6155 1.50085 
7.27442 -6.14519 1.45516 8.30957 -5.55703 1.05033 9.1058 -5.18924 0.322035 
-1.27657 -6.60793 3.1198 -2.08565 -6.82658 3.11136 -3.03392 -7.07861 2.88635 
-3.9556 -7.23886 2.46682 -4.7689 -7.14538 1.95367 -5.60636 -6.81783 1.42165 
-6.52285 -6.42741 0.945097 -7.35898 -6.04424 0.563205 -8.00157 -5.59327 0.213451 
9.83577 2.85575 -0.841305 10.7703 2.25306 -0.930683 11.5454 1.41915 -0.78573 
11.8866 0.325958 -0.542807 11.7321 -0.779038 -0.385812 11.3172 -1.85636 -0.409086 
10.9032 -3.02899 -0.589254 10.5425 -4.10078 -0.76383 10.1447 -4.76086 -0.729568 
-10.2409 3.5684 -0.909559 -10.9211 2.70149 -0.959448 -11.6034 1.70239 -0.90468 
-12.1951 0.588324 -0.715699 -12.3992 -0.460302 -0.435316 -11.9821 -1.33831 -0.206635 
-11.0918 -2.2044 -0.134145 -10.0993 -3.19681 -0.16414 -9.23355 -4.19459 -0.190659 
-4.00963 0.438725 -4.05365 -3.64096 1.15755 -3.9397 -2.94645 0.50713 -4.09938 
-3.09588 1.92299 -3.66378 -2.505 1.26133 -3.75788 -1.80242 0.531632 -3.96542 
-2.34277 2.77042 -3.31146 -1.86229 2.06682 -3.35379 -1.29033 1.28867 -3.45657 
-0.66896 0.526251 -3.59082 -1.52077 3.65113 -3.04357 -1.07519 2.94089 -3.09344 
-0.604887 2.12188 -3.07199 -0.101685 1.28619 -3.12786 0.398125 0.580103 -3.1226 
-0.787634 4.44922 -2.86201 -0.30661 3.82342 -2.93401 0.152803 3.04018 -2.87163 
0.599625 2.14332 -2.8434 1.0324 1.33888 -2.8596 1.45561 0.696797 -2.78324 
-0.152159 5.16 -2.70938 0.376409 4.62302 -2.69883 0.87385 3.9568 -2.62052 
1.33601 3.09559 -2.58024 1.76669 2.18358 -2.63752 2.16983 1.42299 -2.6848 
2.55615 0.794183 -2.63911 0.438873 5.85897 -2.65658 0.997005 5.33243 -2.49566 
1.52531 4.75174 -2.31341 2.01134 4.01189 -2.23378 2.47765 3.10234 -2.33155 
2.91858 2.21014 -2.50123 3.30936 1.47436 -2.59705 3.6449 0.842533 -2.60449 
-5.69346 0.855873 -3.8645 -6.47062 1.3634 -3.67376 -5.34556 1.51092 -3.88668 
-7.27552 1.88346 -3.35711 -6.08592 2.06037 -3.61436 -4.8426 2.27661 -3.69505 
-8.032 2.3997 -3.14137 -6.8045 2.68395 -3.21642 -5.4875 2.9596 -3.2604 
-4.10879 3.22329 -3.19245 -8.67739 2.96619 -3.14466 -7.37649 3.30045 -2.97682 
-6.0356 3.67875 -2.78334 -4.63161 3.99926 -2.64361 -3.22902 4.18837 -2.64409 
-9.19142 3.63968 -3.04706 -7.79467 3.9128 -2.89171 -6.40524 4.27775 -2.55194 
-5.05211 4.66422 -2.25408 -3.68974 4.89469 -2.20242 -2.40353 4.95954 -2.40866 
-9.48834 4.33636 -2.54312 -8.13229 4.61305 -2.60261 -6.69907 4.88123 -2.40883 
-5.37628 5.21041 -2.14587 -4.10747 5.47257 -2.05557 -2.85674 5.57143 -2.22111 
-1.70153 5.59977 -2.49779 -9.44468 4.87698 -1.7693 -8.32786 5.34632 -1.97851 
-6.99282 5.66797 -2.02411 -5.70279 5.92243 -1.98476 -4.49858 6.10945 -2.0237 
-3.29678 6.18387 -2.21359 -2.12392 6.21554 -2.47698 -1.05408 6.28346 -2.67852 
-8.06775 5.96377 -0.495876 -6.95921 6.81915 0.046394 -7.23572 6.90468 -0.671468 
-5.80651 7.50668 0.615758 -6.13219 7.80962 -0.116131 -6.21536 7.57348 -0.859794 
-4.68111 7.89304 1.22092 -4.9815 8.22474 0.43662 -5.17416 8.3145 -0.330471 
-5.1286 7.827 -1.12007 -3.64363 8.11574 1.78254 -3.86099 8.12197 0.938412 
-4.04018 8.28216 0.175415 -4.10063 8.24627 -0.672172 -3.97109 7.71145 -1.51293 
-2.69255 8.2418 2.14741 -2.83828 7.95583 1.26926 -2.93119 7.83615 0.532076 
-2.95934 7.97864 -0.250952 -2.89012 7.95418 -1.17834 -2.73025 7.51209 -1.98097 
-1.78477 8.10784 2.27874 -1.88015 7.97125 1.43126 -1.92347 7.74739 0.688582 
[...]
POINT_DATA 1002
FIELD FieldData 4
_paraPhi 1 1002 double
6.2831853072 3.1415926536 6.2831853072 3.1415926536 4.7123889804 4.7123889804 1.5707963268 1.5707963268 3.6951670125 
5.7296109483 2.5880182947 0.5535743589 6.2831853072 6.2831853072 6.2831853072 6.2831853072 3.1415926536 3.1415926536 
3.1415926536 3.1415926536 3.1415926536 6.1053039672 5.898798347 5.6768734901 5.4599499503 5.2659633393 5.1032165617 
4.9713148346 4.8656852733 4.7809517865 0.17788134 0.38438696014 0.60631181711 0.82323535693 1.0172219679 1.1799687454 
1.3118704726 1.4175000338 1.5022335207 6.1892828907 6.1070320098 6.035312792 5.9728339911 5.9183214791 5.8706119594 
5.8286879411 5.7916808611 5.7588591896 0.093902416448 0.17615329733 0.2478725152 0.31035131605 0.36486382811 0.41257334776 
0.45449736604 0.4915044461 0.52432611754 3.3194739936 3.5259796137 3.7479044707 3.9648280105 4.1588146215 4.321561399 
4.4534631262 4.5590926874 4.6438261743 2.9637113136 2.7572056934 2.5352808365 2.3183572967 2.1243706857 1.9616239082 
1.829722181 1.7240926197 1.6393591329 3.23549507 3.3177459509 3.3894651688 3.4519439696 3.5064564817 3.5541660013 
3.5960900196 3.6330970997 3.6659187711 3.0476902371 2.9654393563 2.8937201384 2.8312413375 2.7767288255 2.7290193058 
2.6870952876 2.6500882075 2.617266536 6.2831853072 6.2831853072 6.2831853072 6.2831853072 3.1415926536 3.1415926536 
3.1415926536 3.1415926536 3.1415926536 6.1053039672 5.898798347 5.6768734901 5.4599499503 5.2659633393 5.1032165617 
4.9713148346 4.8656852733 4.7809517865 0.17788134 0.38438696014 0.60631181711 0.82323535693 1.0172219679 1.1799687454 
1.3118704726 1.4175000338 1.5022335207 6.1892828907 6.1070320098 6.035312792 5.9728339911 5.9183214791 5.8706119594 
5.8286879411 5.7916808611 5.7588591896 0.093902416448 0.17615329733 0.2478725152 0.31035131605 0.36486382811 0.41257334776 
0.45449736604 0.4915044461 0.52432611754 3.3194739936 3.5259796137 3.7479044707 3.9648280105 4.1588146215 4.321561399 
4.4534631262 4.5590926874 4.6438261743 2.9637113136 2.7572056934 2.5352808365 2.3183572967 2.1243706857 1.9616239082 
1.829722181 1.7240926197 1.6393591329 3.23549507 3.3177459509 3.3894651688 3.4519439696 3.5064564817 3.5541660013 
3.5960900196 3.6330970997 3.6659187711 3.0476902371 2.9654393563 2.8937201384 2.8312413375 2.7767288255 2.7290193058 
2.6870952876 2.6500882075 2.617266536 4.7123889804 4.7123889804 4.7123889804 4.7123889804 4.7123889804 4.7123889804 
4.7123889804 4.7123889804 4.7123889804 4.6087898617 4.4991390697 4.3857031936 4.2712800401 4.1588146215 4.0509635631 
3.94975894 3.8564636551 3.7716124825 4.8159880991 4.9256388911 5.0390747672 5.1534979207 5.2659633393 5.3738143976 
5.4750190208 5.5683143056 5.6531654782 4.6087898617 4.4991390697 4.3857031936 4.2712800401 4.1588146215 4.0509635631 
3.94975894 3.8564636551 3.7716124825 4.8159880991 4.9256388911 5.0390747672 5.1534979207 5.2659633393 5.3738143976 
5.4750190208 5.5683143056 5.6531654782 1.5707963268 1.5707963268 1.5707963268 1.5707963268 1.5707963268 1.5707963268 
1.5707963268 1.5707963268 1.5707963268 1.6743954455 1.7840462375 1.8974821136 2.0119052671 2.1243706857 2.232221744 
2.3334263672 2.426721652 2.5115728246 1.4671972081 1.3575464161 1.24411054 1.1296873865 1.0172219679 0.90937090954 
0.80816628637 0.71487100155 0.63001982895 1.6743954455 1.7840462375 1.8974821136 2.0119052671 2.1243706857 2.232221744 
2.3334263672 2.426721652 2.5115728246 1.4671972081 1.3575464161 1.24411054 1.1296873865 1.0172219679 0.90937090954 
0.80816628637 0.71487100155 0.63001982895 3.6007720849 3.4966939854 3.3839471039 3.2645756454 3.1415926536 3.0186096618 
2.8992382033 2.7864913217 2.6824132222 5.8240058758 5.9280839753 6.0408308569 6.1602023154 6.2831853072 0.12298299178 
0.2423544503 0.35510133185 0.45917943135 6.0560271438 5.7885595667 5.9702140275 5.5125918794 5.6029703303 5.7885595667 
5.2659633393 5.2659633393 5.2659633393 5.2659633393 5.0674903122 5.0120975802 4.9155579264 4.7123889804 4.1588146215 
4.9155579264 4.8353719722 4.7123889804 4.5092200343 4.1588146215 3.6362183941 4.8004512023 4.7123889804 4.5894059886 
4.4126803806 4.1588146215 3.8218076305 3.4545639333 4.7123889804 4.6243267584 4.5092200343 4.3572876485 4.1588146215 
3.9121860814 3.6362183941 3.368750817 6.0174235957 5.9434319871 5.8263323547 5.8809213739 5.7674481418 5.6279784266 
5.8278025282 5.718968232 5.5891129425 5.4372443565 5.7823484065 5.678536687 5.5575666702 5.4192596322 5.2659633393 
5.743164462 5.6444075337 5.5314983644 5.4046708639 5.2659633393 5.1195510325 5.7091357773 5.6152775188 5.5096229709 
5.3926039573 5.2659633393 5.1329233157 4.9978930058 5.6793730533 5.5901633916 5.4910209005 5.3824597928 5.2659633393 
5.1440684722 5.0201624502 4.8979782167 5.5683143056 5.4750190208 5.4750190208 5.3738143976 5.3738143976 5.3738143976 
5.2659633393 5.2659633393 5.2659633393 5.2659633393 5.1534979207 5.1534979207 5.1534979207 5.1534979207 5.1534979207 
5.0390747672 5.0390747672 5.0390747672 5.0390747672 5.0390747672 5.0390747672 4.9256388911 4.9256388911 4.9256388911 
4.9256388911 4.9256388911 4.9256388911 4.9256388911 4.8159880991 4.8159880991 4.8159880991 4.8159880991 4.8159880991 
4.8159880991 4.8159880991 4.8159880991 4.6087898617 4.6087898617 4.4991390697 4.6087898617 4.4991390697 4.3857031936 
4.6087898617 4.4991390697 4.3857031936 4.2712800401 4.6087898617 4.4991390697 4.3857031936 4.2712800401 4.1588146215 
4.6087898617 4.4991390697 4.3857031936 4.2712800401 4.1588146215 4.0509635631 4.6087898617 4.4991390697 4.3857031936 
4.2712800401 4.1588146215 4.0509635631 3.94975894 4.6087898617 4.4991390697 4.3857031936 4.2712800401 4.1588146215 
4.0509635631 3.94975894 3.8564636551 4.526799744 4.4046155105 4.426884955 4.2807094886 4.2918546451 4.3052269283 
4.1588146215 4.1588146215 4.1588146215 4.1588146215 4.042318168 4.0321740035 4.0201070968 4.0055183285 3.9875336042 
3.9337570603 3.9151549899 3.8932795963 3.8672112905 3.8356650183 3.7967995342 3.8346145692 3.809500442 3.7803704271 
3.7462412737 3.7058097288 3.657329819 3.5984456061 3.7454049075 3.7156421835 3.6816134988 3.6424295543 3.5969754326 
3.5438565869 3.4813459737 3.4073543651 3.5642842451 3.4524645613 3.5233842518 3.3320300872 3.403123212 3.4773852225 
3.20576226 3.2746326772 3.348015857 3.4255060145 3.0774230472 3.1415926536 3.2112816139 3.2864685043 3.3668817272 
2.95115522 3.00855263 3.0719036933 3.1415926536 3.2178377658 3.3005964304 2.8307207459 2.8800620952 2.9351694502 
2.9967168029 3.0653475414 3.1415926536 3.225752376 2.718901062 2.7598010554 2.8058000847 2.8576792927 2.91630358 
2.9825888767 3.0574329311 3.1415926536 3.5642842451 3.5233842518 3.4524645613 3.4773852225 3.403123212 3.3320300872 
3.4255060145 3.348015857 3.2746326772 3.20576226 3.3668817272 3.2864685043 3.2112816139 3.1415926536 3.0774230472 
3.3005964304 3.2178377658 3.1415926536 3.0719036933 3.00855263 2.95115522 3.225752376 3.1415926536 3.0653475414 
2.9967168029 2.9351694502 2.8800620952 2.8307207459 3.1415926536 3.0574329311 2.9825888767 2.91630358 2.8576792927 
2.8058000847 2.7598010554 2.718901062 4.526799744 4.426884955 4.4046155105 4.3052269283 4.2918546451 4.2807094886 
4.1588146215 4.1588146215 4.1588146215 4.1588146215 3.9875336042 4.0055183285 4.0201070968 4.0321740035 4.042318168 
3.7967995342 3.8356650183 3.8672112905 3.8932795963 3.9151549899 3.9337570603 3.5984456061 3.657329819 3.7058097288 
3.7462412737 3.7803704271 3.809500442 3.8346145692 3.4073543651 3.4813459737 3.5438565869 3.5969754326 3.6424295543 
3.6816134988 3.7156421835 3.7454049075 4.7123889804 4.8004512023 4.6243267584 4.9155579264 4.7123889804 4.5092200343 
5.0674903122 4.8353719722 4.5894059886 4.3572876485 5.2659633393 5.0120975802 4.7123889804 4.4126803806 4.1588146215 
5.5125918794 5.2659633393 4.9155579264 4.5092200343 4.1588146215 3.9121860814 5.7885595667 5.6029703303 5.2659633393 
4.7123889804 4.1588146215 3.8218076305 3.6362183941 6.0560271438 5.9702140275 5.7885595667 5.2659633393 4.1588146215 
3.6362183941 3.4545639333 3.368750817 0.22715816343 0.49462574053 0.3129712797 0.77059342779 0.68021497688 0.49462574053 
1.0172219679 1.0172219679 1.0172219679 1.0172219679 1.2156949949 1.271087727 1.3676273807 1.5707963268 2.1243706857 
1.3676273807 1.447813335 1.5707963268 1.7739652728 2.1243706857 2.6469669131 1.4827341049 1.5707963268 1.6937793186 
1.8705049266 2.1243706857 2.4613776767 2.8286213739 1.5707963268 1.6588585487 1.7739652728 1.9258976586 2.1243706857 
2.3709992258 2.6469669131 2.9144344902 1.7563855631 1.8785697967 1.8563003522 2.0024758186 1.9913306621 1.9779583789 
2.1243706857 2.1243706857 2.1243706857 2.1243706857 2.2408671392 2.2510113037 2.2630782103 2.2776669786 2.295651703 
2.3494282469 2.3680303173 2.3899057108 2.4159740166 2.4475202889 2.486385773 2.448570738 2.4736848652 2.5028148801 
2.5369440334 2.5773755784 2.6258554882 2.6847397011 2.5377803997 2.5675431237 2.6015718084 2.6407557529 2.6862098746 
2.7393287203 2.8018393335 2.8758309421 1.6743954455 1.6743954455 1.7840462375 1.6743954455 1.7840462375 1.8974821136 
1.6743954455 1.7840462375 1.8974821136 2.0119052671 1.6743954455 1.7840462375 1.8974821136 2.0119052671 2.1243706857 
1.6743954455 1.7840462375 1.8974821136 2.0119052671 2.1243706857 2.232221744 1.6743954455 1.7840462375 1.8974821136 
2.0119052671 2.1243706857 2.232221744 2.3334263672 1.6743954455 1.7840462375 1.8974821136 2.0119052671 2.1243706857 
2.232221744 2.3334263672 2.426721652 1.4671972081 1.3575464161 1.4671972081 1.24411054 1.3575464161 1.4671972081 
1.1296873865 1.24411054 1.3575464161 1.4671972081 1.0172219679 1.1296873865 1.24411054 1.3575464161 1.4671972081 
0.90937090954 1.0172219679 1.1296873865 1.24411054 1.3575464161 1.4671972081 0.80816628637 0.90937090954 1.0172219679 
1.1296873865 1.24411054 1.3575464161 1.4671972081 0.71487100155 0.80816628637 0.90937090954 1.0172219679 1.1296873865 
1.24411054 1.3575464161 1.4671972081 0.60381225391 0.57404952988 0.69302191562 0.54002084522 0.66790778838 0.79216440667 
0.50083690068 0.63877777351 0.77356233629 0.90072551443 0.45538277901 0.60464862014 0.75168694275 0.89058134991 1.0172219679 
0.40226393329 0.56421707518 0.72561863695 0.87851444325 1.0172219679 1.139116835 0.33975332011 0.51573716537 0.69407236469 
0.86392567495 1.0172219679 1.1502619915 1.2630228569 0.26576171152 0.45685295248 0.6552068806 0.84594095064 1.0172219679 
1.1636342747 1.2852923014 1.3852070904 0.22715816343 0.3129712797 0.49462574053 0.49462574053 0.68021497688 0.77059342779 
1.0172219679 1.0172219679 1.0172219679 1.0172219679 2.1243706857 1.5707963268 1.3676273807 1.271087727 1.2156949949 
2.6469669131 2.1243706857 1.7739652728 1.5707963268 1.447813335 1.3676273807 2.8286213739 2.4613776767 2.1243706857 
1.8705049266 1.6937793186 1.5707963268 1.4827341049 2.9144344902 2.6469669131 2.3709992258 2.1243706857 1.9258976586 
1.7739652728 1.6588585487 1.5707963268 1.7563855631 1.8563003522 1.8785697967 1.9779583789 1.9913306621 2.0024758186 
2.1243706857 2.1243706857 2.1243706857 2.1243706857 2.295651703 2.2776669786 2.2630782103 2.2510113037 2.2408671392 
2.486385773 2.4475202889 2.4159740166 2.3899057108 2.3680303173 2.3494282469 2.6847397011 2.6258554882 2.5773755784 
2.5369440334 2.5028148801 2.4736848652 2.448570738 2.8758309421 2.8018393335 2.7393287203 2.6862098746 2.6407557529 
2.6015718084 2.5675431237 2.5377803997 5.8604937156 5.901393709 5.9723133995 5.9473927383 6.0216547488 6.0927478736 
5.9992719463 6.0767621038 6.1501452836 6.2190157008 6.0578962336 6.1383094565 6.2134963469 0 0.064169606361 
6.1241815303 6.206940195 6.2831853072 0.069688960264 0.13304002361 0.19043743361 6.1990255847 0 0.07624511221 
0.14487585072 0.20642320337 0.26153055843 0.3108719077 0 0.084159722458 0.15900377685 0.22528907359 0.28391336087 
0.3357925689 0.38179159818 0.42269159155 5.8604937156 5.9723133995 5.901393709 6.0927478736 6.0216547488 5.9473927383 
6.2190157008 6.1501452836 6.0767621038 5.9992719463 0.064169606361 0 6.2134963469 6.1383094565 6.0578962336 
0.19043743361 0.13304002361 0.069688960264 6.2831853072 6.206940195 6.1241815303 0.3108719077 0.26153055843 0.20642320337 
0.14487585072 0.07624511221 6.2831853072 6.1990255847 0.42269159155 0.38179159818 0.3357925689 0.28391336087 0.22528907359 
0.15900377685 0.084159722458 0 5.6793730533 5.7091357773 5.5901633916 5.743164462 5.6152775188 5.4910209005 
5.7823484065 5.6444075337 5.5096229709 5.3824597928 5.8278025282 5.678536687 5.5314983644 5.3926039573 5.2659633393 
5.8809213739 5.718968232 5.5575666702 5.4046708639 5.2659633393 5.1440684722 5.9434319871 5.7674481418 5.5891129425 
5.4192596322 5.2659633393 5.1329233157 5.0201624502 6.0174235957 5.8263323547 5.6279784266 5.4372443565 5.2659633393 
5.1195510325 4.9978930058 4.8979782167 1.3852070904 1.2852923014 1.2630228569 1.1636342747 1.1502619915 1.139116835 
1.0172219679 1.0172219679 1.0172219679 1.0172219679 0.84594095064 0.86392567495 0.87851444325 0.89058134991 0.90072551443 
0.6552068806 0.69407236469 0.72561863695 0.75168694275 0.77356233629 0.79216440667 0.45685295248 0.51573716537 0.56421707518 
0.60464862014 0.63877777351 0.66790778838 0.69302191562 0.26576171152 0.33975332011 0.40226393329 0.45538277901 0.50083690068 
0.54002084522 0.57404952988 0.60381225391 
_paraPhiHalf 1 1002 double
0 3.1415926536 0 3.1415926536 1.5707963268 1.5707963268 1.5707963268 1.5707963268 2.5880182947 
0.5535743589 2.5880182947 0.5535743589 0 0 0 0 3.1415926536 3.1415926536 
3.1415926536 3.1415926536 3.1415926536 0.17788134 0.38438696014 0.60631181711 0.82323535693 1.0172219679 1.1799687454 
1.3118704726 1.4175000338 1.5022335207 0.17788134 0.38438696014 0.60631181711 0.82323535693 1.0172219679 1.1799687454 
1.3118704726 1.4175000338 1.5022335207 0.093902416448 0.17615329733 0.2478725152 0.31035131605 0.36486382811 0.41257334776 
0.45449736604 0.4915044461 0.52432611754 0.093902416448 0.17615329733 0.2478725152 0.31035131605 0.36486382811 0.41257334776 
0.45449736604 0.4915044461 0.52432611754 2.9637113136 2.7572056934 2.5352808365 2.3183572967 2.1243706857 1.9616239082 
1.829722181 1.7240926197 1.6393591329 2.9637113136 2.7572056934 2.5352808365 2.3183572967 2.1243706857 1.9616239082 
1.829722181 1.7240926197 1.6393591329 3.0476902371 2.9654393563 2.8937201384 2.8312413375 2.7767288255 2.7290193058 
2.6870952876 2.6500882075 2.617266536 3.0476902371 2.9654393563 2.8937201384 2.8312413375 2.7767288255 2.7290193058 
2.6870952876 2.6500882075 2.617266536 0 0 0 0 3.1415926536 3.1415926536 
3.1415926536 3.1415926536 3.1415926536 0.17788134 0.38438696014 0.60631181711 0.82323535693 1.0172219679 1.1799687454 
1.3118704726 1.4175000338 1.5022335207 0.17788134 0.38438696014 0.60631181711 0.82323535693 1.0172219679 1.1799687454 
1.3118704726 1.4175000338 1.5022335207 0.093902416448 0.17615329733 0.2478725152 0.31035131605 0.36486382811 0.41257334776 
0.45449736604 0.4915044461 0.52432611754 0.093902416448 0.17615329733 0.2478725152 0.31035131605 0.36486382811 0.41257334776 
0.45449736604 0.4915044461 0.52432611754 2.9637113136 2.7572056934 2.5352808365 2.3183572967 2.1243706857 1.9616239082 
1.829722181 1.7240926197 1.6393591329 2.9637113136 2.7572056934 2.5352808365 2.3183572967 2.1243706857 1.9616239082 
1.829722181 1.7240926197 1.6393591329 3.0476902371 2.9654393563 2.8937201384 2.8312413375 2.7767288255 2.7290193058 
2.6870952876 2.6500882075 2.617266536 3.0476902371 2.9654393563 2.8937201384 2.8312413375 2.7767288255 2.7290193058 
2.6870952876 2.6500882075 2.617266536 1.5707963268 1.5707963268 1.5707963268 1.5707963268 1.5707963268 1.5707963268 
1.5707963268 1.5707963268 1.5707963268 1.6743954455 1.7840462375 1.8974821136 2.0119052671 2.1243706857 2.232221744 
2.3334263672 2.426721652 2.5115728246 1.4671972081 1.3575464161 1.24411054 1.1296873865 1.0172219679 0.90937090954 
0.80816628637 0.71487100155 0.63001982895 1.6743954455 1.7840462375 1.8974821136 2.0119052671 2.1243706857 2.232221744 
2.3334263672 2.426721652 2.5115728246 1.4671972081 1.3575464161 1.24411054 1.1296873865 1.0172219679 0.90937090954 
0.80816628637 0.71487100155 0.63001982895 1.5707963268 1.5707963268 1.5707963268 1.5707963268 1.5707963268 1.5707963268 
1.5707963268 1.5707963268 1.5707963268 1.6743954455 1.7840462375 1.8974821136 2.0119052671 2.1243706857 2.232221744 
2.3334263672 2.426721652 2.5115728246 1.4671972081 1.3575464161 1.24411054 1.1296873865 1.0172219679 0.90937090954 
0.80816628637 0.71487100155 0.63001982895 1.6743954455 1.7840462375 1.8974821136 2.0119052671 2.1243706857 2.232221744 
2.3334263672 2.426721652 2.5115728246 1.4671972081 1.3575464161 1.24411054 1.1296873865 1.0172219679 0.90937090954 
0.80816628637 0.71487100155 0.63001982895 2.6824132222 2.7864913217 2.8992382033 3.0186096618 3.1415926536 3.0186096618 
2.8992382033 2.7864913217 2.6824132222 0.45917943135 0.35510133185 0.2423544503 0.12298299178 0 0.12298299178 
0.2423544503 0.35510133185 0.45917943135 0.22715816343 0.49462574053 0.3129712797 0.77059342779 0.68021497688 0.49462574053 
1.0172219679 1.0172219679 1.0172219679 1.0172219679 1.2156949949 1.271087727 1.3676273807 1.5707963268 2.1243706857 
1.3676273807 1.447813335 1.5707963268 1.7739652728 2.1243706857 2.6469669131 1.4827341049 1.5707963268 1.6937793186 
1.8705049266 2.1243706857 2.4613776767 2.8286213739 1.5707963268 1.6588585487 1.7739652728 1.9258976586 2.1243706857 
2.3709992258 2.6469669131 2.9144344902 0.26576171152 0.33975332011 0.45685295248 0.40226393329 0.51573716537 0.6552068806 
0.45538277901 0.56421707518 0.69407236469 0.84594095064 0.50083690068 0.60464862014 0.72561863695 0.86392567495 1.0172219679 
0.54002084522 0.63877777351 0.75168694275 0.87851444325 1.0172219679 1.1636342747 0.57404952988 0.66790778838 0.77356233629 
0.89058134991 1.0172219679 1.1502619915 1.2852923014 0.60381225391 0.69302191562 0.79216440667 0.90072551443 1.0172219679 
1.139116835 1.2630228569 1.3852070904 0.71487100155 0.80816628637 0.80816628637 0.90937090954 0.90937090954 0.90937090954 
1.0172219679 1.0172219679 1.0172219679 1.0172219679 1.1296873865 1.1296873865 1.1296873865 1.1296873865 1.1296873865 
1.24411054 1.24411054 1.24411054 1.24411054 1.24411054 1.24411054 1.3575464161 1.3575464161 1.3575464161 
1.3575464161 1.3575464161 1.3575464161 1.3575464161 1.4671972081 1.4671972081 1.4671972081 1.4671972081 1.4671972081 
1.4671972081 1.4671972081 1.4671972081 1.6743954455 1.6743954455 1.7840462375 1.6743954455 1.7840462375 1.8974821136 
1.6743954455 1.7840462375 1.8974821136 2.0119052671 1.6743954455 1.7840462375 1.8974821136 2.0119052671 2.1243706857 
1.6743954455 1.7840462375 1.8974821136 2.0119052671 2.1243706857 2.232221744 1.6743954455 1.7840462375 1.8974821136 
2.0119052671 2.1243706857 2.232221744 2.3334263672 1.6743954455 1.7840462375 1.8974821136 2.0119052671 2.1243706857 
2.232221744 2.3334263672 2.426721652 1.7563855631 1.8785697967 1.8563003522 2.0024758186 1.9913306621 1.9779583789 
2.1243706857 2.1243706857 2.1243706857 2.1243706857 2.2408671392 2.2510113037 2.2630782103 2.2776669786 2.295651703 
2.3494282469 2.3680303173 2.3899057108 2.4159740166 2.4475202889 2.486385773 2.448570738 2.4736848652 2.5028148801 
2.5369440334 2.5773755784 2.6258554882 2.6847397011 2.5377803997 2.5675431237 2.6015718084 2.6407557529 2.6862098746 
2.7393287203 2.8018393335 2.8758309421 2.718901062 2.8307207459 2.7598010554 2.95115522 2.8800620952 2.8058000847 
3.0774230472 3.00855263 2.9351694502 2.8576792927 3.0774230472 3.1415926536 3.0719036933 2.9967168029 2.91630358 
2.95115522 3.00855263 3.0719036933 3.1415926536 3.0653475414 2.9825888767 2.8307207459 2.8800620952 2.9351694502 
2.9967168029 3.0653475414 3.1415926536 3.0574329311 2.718901062 2.7598010554 2.8058000847 2.8576792927 2.91630358 
2.9825888767 3.0574329311 3.1415926536 2.718901062 2.7598010554 2.8307207459 2.8058000847 2.8800620952 2.95115522 
2.8576792927 2.9351694502 3.00855263 3.0774230472 2.91630358 2.9967168029 3.0719036933 3.1415926536 3.0774230472 
2.9825888767 3.0653475414 3.1415926536 3.0719036933 3.00855263 2.95115522 3.0574329311 3.1415926536 3.0653475414 