# vtk DataFile Version 5.1
vtk output
ASCII
DATASET POLYDATA
POINTS 1002 float
-5.58722 -0.119196 -4.34519 5.27226 0.598737 -2.39525 -5.73607 0.270993 4.39694 
4.95306 0.154776 3.87651 1.01298 7.10212 -2.75659 1.39199 8.45934 4.4171 
-0.27632 -7.22936 -2.3719 1.02942 -7.50326 3.18598 10.2228 5.77461 -0.864302 
-12.4276 5.14042 -1.50394 9.27558 -5.68686 -1.33729 -8.9633 -5.41722 -0.390397 
-4.52729 -0.105186 -4.38503 -3.31329 -0.0561939 -4.33506 -2.06986 -0.0108954 -4.06736 
-0.956196 -0.0049958 -3.59064 0.0134292 0.0108566 -3.06679 1.00264 0.109765 -2.64412 
2.12499 0.267127 -2.38535 3.29699 0.410033 -2.30426 4.36803 0.516631 -2.34413 
-5.20862 0.526173 -4.29929 -4.63138 1.27472 -4.13599 -3.98468 2.09407 -3.8661 
-3.42752 2.91312 -3.42445 -2.87421 3.68779 -2.71128 -2.06603 4.43652 -1.92789 
-1.02367 5.18742 -1.56314 -0.0779091 5.91766 -1.80627 0.571367 6.56887 -2.33674 
-5.21987 -0.76299 -4.35681 -4.73033 -1.52755 -4.41086 -4.10743 -2.40228 -4.54681 
-3.43629 -3.30469 -4.71636 -2.82208 -4.17358 -4.80837 -2.26619 -4.99411 -4.69261 
-1.72269 -5.71954 -4.27608 -1.20446 -6.30529 -3.61634 -0.732185 -6.78762 -2.91985 
-6.44985 0.283426 -4.32497 -7.45871 0.784969 -4.29552 -8.54361 1.40954 -4.17181 
-9.53662 2.11189 -3.91165 -10.3973 2.85928 -3.6074 -11.2855 3.67909 -3.38743 
-12.2056 4.49483 -3.20096 -12.8307 5.0704 -2.8547 -12.8816 5.25598 -2.25921 
-6.30075 -0.490873 -4.2882 -6.93996 -0.921714 -4.22115 -7.62466 -1.49031 -4.18137 
-8.33644 -2.16966 -4.09804 -8.81969 -2.82423 -3.84505 -8.96884 -3.41815 -3.38575 
-9.01896 -4.04239 -2.74864 -9.12318 -4.67789 -1.96445 -9.14865 -5.1672 -1.12921 
5.21357 1.38056 -2.28914 5.02655 2.27702 -1.96034 4.66833 3.22873 -1.70973 
4.19211 4.06608 -2.06676 3.69281 4.63385 -3.05194 3.1873 5.0239 -3.90952 
2.63206 5.5003 -4.03365 2.04145 6.13122 -3.62385 1.48822 6.72224 -3.14523 
4.76694 -0.176997 -2.27302 4.25428 -0.954171 -1.97869 3.72236 -1.74862 -1.66931 
3.11797 -2.59416 -1.54131 2.45226 -3.49551 -1.6564 1.81176 -4.40152 -1.86772 
1.24468 -5.22957 -1.99013 0.724106 -5.94614 -2.03658 0.21684 -6.59728 -2.15227 
6.11041 1.16176 -2.35906 6.93802 1.77548 -2.25281 7.6501 2.35422 -2.2989 
8.29381 2.8771 -2.70136 9.08839 3.47301 -3.27859 10.0525 4.23858 -3.50758 
10.813 5.01902 -3.10539 11.0279 5.5577 -2.30899 10.7427 5.77426 -1.50508 
5.79214 0.154381 -2.37852 6.34833 -0.406885 -2.39675 6.97337 -1.10013 -2.61799 
7.58468 -1.84249 -3.00945 8.10502 -2.53493 -3.25509 8.62878 -3.2081 -3.13994 
9.19576 -3.93923 -2.79543 9.58222 -4.67101 -2.38919 9.5852 -5.27078 -1.91154 
-4.72757 0.355925 4.78582 -3.57695 0.490325 5.13711 -2.38338 0.577604 5.26797 
-1.22555 0.529487 5.08755 -0.0966101 0.393171 4.73604 1.03764 0.290535 4.43771 
2.15138 0.255026 4.26967 3.18693 0.23919 4.16521 4.11963 0.208577 4.04515 
-5.43504 0.965227 4.47173 -4.9702 1.73059 4.43673 -4.35517 2.57685 4.45978 
-3.63013 3.50376 4.64709 -2.85552 4.42391 4.79635 -2.07363 5.23123 4.69632 
-1.25455 5.98671 4.5265 -0.353106 6.82949 4.52516 0.574209 7.71865 4.57441 
-5.36092 -0.384929 4.43454 -4.9249 -1.09357 4.41041 -4.42862 -1.85049 4.43244 
-3.86784 -2.66263 4.57032 -3.21494 -3.53903 4.69004 -2.42765 -4.45027 4.58092 
-1.51736 -5.32275 4.22339 -0.578287 -6.10932 3.78773 0.285822 -6.82652 3.43004 
-6.55074 0.671519 4.13027 -7.39765 1.14368 3.88779 -8.25636 1.64597 3.64518 
-9.19128 2.15382 3.3886 -10.1933 2.66114 3.11594 -11.0407 3.13381 2.67052 
-11.5806 3.56633 1.81411 -11.943 4.03814 0.604527 -12.2548 4.59228 -0.595762 
-6.38882 -0.168116 4.03105 -6.93638 -0.62976 3.60172 -7.43414 -1.16255 3.15367 
-7.91027 -1.77358 2.66878 -8.29129 -2.38836 2.11035 -8.54662 -2.97482 1.54044 
-8.76182 -3.60612 1.06659 -8.95946 -4.3021 0.665621 -9.04598 -4.9478 0.20327 
4.76958 0.902082 3.96973 4.52303 1.75213 4.13659 4.22844 2.72432 4.41383 
3.87025 3.74698 4.64514 3.42022 4.68199 4.6094 2.92705 5.49674 4.40186 
2.48989 6.30666 4.36264 2.12752 7.15801 4.54303 1.77682 7.92309 4.63838 
4.57941 -0.55762 3.91585 4.17854 -1.38947 3.98874 3.81624 -2.35481 4.04628 
3.50551 -3.36433 3.99616 3.21098 -4.3018 3.89101 2.87997 -5.17293 3.88834 
2.45998 -6.01997 3.96185 1.95853 -6.75161 3.90794 1.45951 -7.24198 3.6241 
5.65866 0.549348 3.69506 6.3408 1.00055 3.37473 6.95619 1.5139 2.91108 
7.55536 2.07144 2.41939 8.20002 2.66321 1.95804 8.80068 3.31411 1.43215 
9.23163 4.03902 0.817307 9.55242 4.77187 0.228204 9.88962 5.38251 -0.30403 
5.54357 -0.377445 3.64837 6.1322 -1.02269 3.27145 6.69378 -1.74393 2.75743 
7.2416 -2.46894 2.20257 7.7582 -3.17427 1.67213 8.15311 -3.8831 1.14229 
8.41096 -4.56363 0.578805 8.6624 -5.1193 -0.0273505 8.9843 -5.48774 -0.677511 
1.04394 7.5557 -2.56617 1.1855 8.01948 -2.10796 1.34515 8.52518 -1.46436 
1.39874 9.0308 -0.709564 1.37139 9.38948 0.0790801 1.40752 9.51965 0.86372 
1.53072 9.49037 1.74877 1.61174 9.34043 2.79076 1.55792 9.00437 3.77544 
1.69132 7.31567 -3.30365 2.53248 7.33257 -3.74936 3.60896 7.23897 -3.82439 
4.6998 7.10696 -3.4703 5.64972 6.85375 -2.9845 6.6954 6.45554 -2.64225 
7.99408 6.13584 -2.34093 9.21366 6.04712 -1.88804 9.96268 6.01404 -1.33911 
0.189758 6.95207 -2.26548 -1.04656 6.68427 -1.8254 -2.73865 6.60964 -1.46046 
-4.56005 6.86716 -1.4056 -6.1214 7.17032 -1.72549 -7.49546 7.15704 -2.03819 
-8.97838 6.80995 -2.05703 -10.4884 6.30549 -1.93104 -11.6861 5.73988 -1.78835 
2.30937 8.67505 4.20979 3.09827 8.54214 3.66954 3.86063 8.14838 2.86179 
4.74498 7.73206 2.00998 5.7224 7.37353 1.29864 6.66319 6.94678 0.740659 
7.58396 6.45802 0.268369 8.55271 6.09435 -0.154248 9.48432 5.91464 -0.531456 
0.416937 8.34965 4.09852 -0.781793 7.98817 3.59373 -2.15129 7.49259 3.06303 
-3.69669 6.97432 2.58031 -5.40164 6.44449 2.02387 -7.08266 5.9349 1.30088 
-8.58382 5.56481 0.510012 -9.97284 5.37824 -0.234648 -11.3037 5.27622 -0.911997 
-0.257037 -7.93294 -2.265 -0.171015 -8.68494 -2.07066 -0.0356593 -9.32581 -1.56199 
0.150837 -9.69704 -0.735315 0.443844 -9.7632 0.122987 0.829255 -9.56974 0.835665 
1.14751 -9.15924 1.49515 1.26141 -8.61148 2.15248 1.19003 -8.04014 2.7272 
0.552024 -7.27937 -1.8394 1.58855 -7.31626 -1.52691 2.85354 -7.291 -1.45892 
4.17159 -7.23397 -1.55002 5.3658 -7.25153 -1.76201 6.51214 -7.30202 -2.0541 
7.6775 -7.17476 -2.23686 8.62877 -6.78276 -2.13114 9.1353 -6.24419 -1.7754 
-1.10695 -7.59552 -2.89108 -2.05311 -7.87886 -3.20683 -3.01913 -7.87234 -3.04838 
-3.92463 -7.53046 -2.51375 -4.83254 -7.14749 -2.05599 -5.81677 -7.0103 -1.8919 
-6.79345 -6.97376 -1.75014 -7.6462 -6.7048 -1.37476 -8.3616 -6.13096 -0.853864 
2.00878 -8.0727 3.29891 3.06851 -8.61904 3.42478 4.12945 -9.03248 3.3954 
5.12505 -9.25267 2.9534 6.04117 -9.21308 2.08956 6.86536 -8.80106 1.14249 
7.58668 -8.03985 0.356846 8.22862 -7.16562 -0.312085 8.80041 -6.37934 -0.901635 
0.182511 -7.26625 2.81443 -0.813699 -7.11099 2.48843 -2.15608 -7.18379 2.3469 
-3.83671 -7.45509 2.35374 -5.38736 -7.67596 2.22462 -6.34734 -7.5948 1.74988 
-6.89015 -7.18664 1.08063 -7.48825 -6.60957 0.483128 -8.2493 -6.00614 0.0201665 
10.5305 5.21444 -0.809001 10.6964 4.13383 -0.738858 10.9967 2.60556 -0.62911 
11.5305 0.995598 -0.50508 11.9062 -0.381812 -0.458754 11.6472 -1.57149 -0.562665 
10.8622 -2.74494 -0.785692 10.0782 -3.88108 -1.0335 9.5825 -4.86704 -1.23011 
-13.2031 4.58656 -1.45948 -13.5463 3.86481 -1.13161 -13.3668 2.91779 -0.656844 
-12.8171 1.67198 -0.378841 -12.1678 0.16161 -0.473359 -11.5693 -1.37021 -0.693445 
-10.9974 -2.66257 -0.7226 -10.3786 -3.68821 -0.572178 -9.68871 -4.57987 -0.434188 
-3.96937 0.613863 -4.26563 -3.30903 1.39345 -4.06995 -2.70108 0.722868 -4.06833 
-2.72709 2.19238 -3.76649 -2.10156 1.50343 -3.7864 -1.52808 0.781643 -3.61803 
-2.20418 3.00987 -3.13149 -1.55242 2.30588 -3.35967 -0.964828 1.58025 -3.21695 
-0.459159 0.800511 -3.03303 -1.44998 3.87164 -2.14154 -0.828422 3.21317 -2.50913 
-0.230601 2.49318 -2.66498 0.239894 1.70647 -2.5619 0.615178 0.887052 -2.54032 
-0.399629 4.74549 -1.41849 0.200931 4.1841 -1.59012 0.780153 3.5397 -1.90923 
1.22548 2.79021 -2.04373 1.50952 1.93412 -2.08579 1.78306 1.06136 -2.25091 
0.568276 5.5427 -1.57368 1.19653 5.03311 -1.52734 1.78726 4.4798 -1.69311 
2.25265 3.86884 -1.77728 2.53876 3.08836 -1.73742 2.75301 2.15495 -1.86579 
3.01305 1.2237 -2.15748 1.16062 6.20213 -2.37695 1.78472 5.66139 -2.48166 
2.39855 5.10517 -2.608 2.92419 4.6227 -2.44493 3.32236 4.05563 -1.96056 
3.64197 3.23972 -1.66322 3.93735 2.2626 -1.85149 4.19057 1.32175 -2.20382 
-6.13842 1.00879 -4.20539 -7.22959 1.63132 -4.06595 -5.57766 1.86102 -3.93661 
-8.32404 2.33307 -3.91273 -6.66495 2.56633 -3.73056 -4.8943 2.76647 -3.55971 
-9.22978 3.00703 -3.78349 -7.67552 3.24143 -3.6779 -5.9066 3.47184 -3.35502 
-4.26862 3.59923 -3.05625 -10.0103 3.70864 -3.6594 -8.45741 3.84326 -3.73777 
-6.81543 4.07862 -3.40371 -5.19389 4.23838 -2.8915 -3.614 4.30613 -2.43008 
-10.8484 4.54512 -3.45309 -9.1431 4.57499 -3.65071 -7.51462 4.70873 -3.47144 
-6.03935 4.83389 -2.90504 -4.45085 4.86509 -2.35182 -2.69569 4.9556 -1.92472 
-11.6024 5.33645 -3.07078 -9.8504 5.46164 -3.25905 -8.10607 5.55453 -3.24296 
-6.68077 5.58711 -2.80667 -5.22701 5.49177 -2.25418 -3.43272 5.4433 -1.94792 
-1.58095 5.62895 -1.81112 -11.9159 5.75697 -2.49279 -10.3788 6.133 -2.63893 
-8.64074 6.39488 -2.71561 -7.14954 6.48814 -2.48836 -5.78053 6.32266 -2.01116 
-4.10064 6.06358 -1.73789 -2.20241 6.05096 -1.80999 -0.571427 6.31731 -2.01824 
-10.4257 5.91188 -1.12968 -9.00994 6.0318 -0.407264 -9.20455 6.59389 -1.28609 
-7.50116 6.2677 0.368583 -7.79445 6.83009 -0.604112 -7.78882 7.26672 -1.4424 
-5.80131 6.72362 1.15843 -6.17983 7.18519 0.148787 -6.3814 7.65295 -0.780261 
-6.3334 7.69596 -1.38193 -3.96104 7.3051 1.81254 -4.30813 7.71021 0.902401 
-4.62451 8.09368 -0.0346475 -4.76146 8.13515 -0.710857 -4.72235 7.65171 -1.09255 
-2.2229 7.8867 2.29442 -2.41151 8.27802 1.47066 -2.68338 8.59 0.644304 
-2.87333 8.58135 -0.0583916 -2.91637 8.10019 -0.571308 -2.86905 7.33576 -1.0186 
-0.718945 8.43185 2.77607 -0.763539 8.78932 1.88067 -0.931413 9.03774 1.08206 
-1.08539 9.02446 0.408571 -1.12436 8.60235 -0.198278 -1.11477 7.90127 -0.802735 
[...]
POINT_DATA 1002
FIELD FieldData 4
_paraPhi 1 1002 double
6.2831853072 3.1415926536 6.2831853072 3.1415926536 4.7123889804 4.7123889804 1.5707963268 1.5707963268 3.6951670125 
5.7296109483 2.5880182947 0.5535743589 6.2831853072 6.2831853072 6.2831853072 6.2831853072 3.1415926536 3.1415926536 
3.1415926536 3.1415926536 3.1415926536 6.1053039672 5.898798347 5.6768734901 5.4599499503 5.2659633393 5.1032165617 
4.9713148346 4.8656852733 4.7809517865 0.17788134 0.38438696014 0.60631181711 0.82323535693 1.0172219679 1.1799687454 
1.3118704726 1.4175000338 1.5022335207 6.1892828907 6.1070320098 6.035312792 5.9728339911 5.9183214791 5.8706119594 
5.8286879411 5.7916808611 5.7588591896 0.093902416448 0.17615329733 0.2478725152 0.31035131605 0.36486382811 0.41257334776 
0.45449736604 0.4915044461 0.52432611754 3.3194739936 3.5259796137 3.7479044707 3.9648280105 4.1588146215 4.321561399 
4.4534631262 4.5590926874 4.6438261743 2.9637113136 2.7572056934 2.5352808365 2.3183572967 2.1243706857 1.9616239082 
1.829722181 1.7240926197 1.6393591329 3.23549507 3.3177459509 3.3894651688 3.4519439696 3.5064564817 3.5541660013 
3.5960900196 3.6330970997 3.6659187711 3.0476902371 2.9654393563 2.8937201384 2.8312413375 2.7767288255 2.7290193058 
2.6870952876 2.6500882075 2.617266536 6.2831853072 6.2831853072 6.2831853072 6.2831853072 3.1415926536 3.1415926536 
3.1415926536 3.1415926536 3.1415926536 6.1053039672 5.898798347 5.6768734901 5.4599499503 5.2659633393 5.1032165617 
4.9713148346 4.8656852733 4.7809517865 0.17788134 0.38438696014 0.60631181711 0.82323535693 1.0172219679 1.1799687454 
1.3118704726 1.4175000338 1.5022335207 6.1892828907 6.1070320098 6.035312792 5.9728339911 5.9183214791 5.8706119594 
5.8286879411 5.7916808611 5.7588591896 0.093902416448 0.17615329733 0.2478725152 0.31035131605 0.36486382811 0.41257334776 
0.45449736604 0.4915044461 0.52432611754 3.3194739936 3.5259796137 3.7479044707 3.9648280105 4.1588146215 4.321561399 
4.4534631262 4.5590926874 4.6438261743 2.9637113136 2.7572056934 2.5352808365 2.3183572967 2.1243706857 1.9616239082 
1.829722181 1.7240926197 1.6393591329 3.23549507 3.3177459509 3.3894651688 3.4519439696 3.5064564817 3.5541660013 
3.5960900196 3.6330970997 3.6659187711 3.0476902371 2.9654393563 2.8937201384 2.8312413375 2.7767288255 2.7290193058 
2.6870952876 2.6500882075 2.617266536 4.7123889804 4.7123889804 4.7123889804 4.7123889804 4.7123889804 4.7123889804 
4.7123889804 4.7123889804 4.7123889804 4.6087898617 4.4991390697 4.3857031936 4.2712800401 4.1588146215 4.0509635631 
3.94975894 3.8564636551 3.7716124825 4.8159880991 4.9256388911 5.0390747672 5.1534979207 5.2659633393 5.3738143976 
5.4750190208 5.5683143056 5.6531654782 4.6087898617 4.4991390697 4.3857031936 4.2712800401 4.1588146215 4.0509635631 
3.94975894 3.8564636551 3.7716124825 4.8159880991 4.9256388911 5.0390747672 5.1534979207 5.2659633393 5.3738143976 
5.4750190208 5.5683143056 5.6531654782 1.5707963268 1.5707963268 1.5707963268 1.5707963268 1.5707963268 1.5707963268 
1.5707963268 1.5707963268 1.5707963268 1.6743954455 1.7840462375 1.8974821136 2.0119052671 2.1243706857 2.232221744 
2.3334263672 2.426721652 2.5115728246 1.4671972081 1.3575464161 1.24411054 1.1296873865 1.0172219679 0.90937090954 
0.80816628637 0.71487100155 0.63001982895 1.6743954455 1.7840462375 1.8974821136 2.0119052671 2.1243706857 2.232221744 
2.3334263672 2.426721652 2.5115728246 1.4671972081 1.3575464161 1.24411054 1.1296873865 1.0172219679 0.90937090954 
0.80816628637 0.71487100155 0.63001982895 3.6007720849 3.4966939854 3.3839471039 3.2645756454 3.1415926536 3.0186096618 
2.8992382033 2.7864913217 2.6824132222 5.8240058758 5.9280839753 6.0408308569 6.1602023154 6.2831853072 0.12298299178 
0.2423544503 0.35510133185 0.45917943135 6.0560271438 5.7885595667 5.9702140275 5.5125918794 5.6029703303 5.7885595667 
5.2659633393 5.2659633393 5.2659633393 5.2659633393 5.0674903122 5.0120975802 4.9155579264 4.7123889804 4.1588146215 
4.9155579264 4.8353719722 4.7123889804 4.5092200343 4.1588146215 3.6362183941 4.8004512023 4.7123889804 4.5894059886 
4.4126803806 4.1588146215 3.8218076305 3.4545639333 4.7123889804 4.6243267584 4.5092200343 4.3572876485 4.1588146215 
3.9121860814 3.6362183941 3.368750817 6.0174235957 5.9434319871 5.8263323547 5.8809213739 5.7674481418 5.6279784266 
5.8278025282 5.718968232 5.5891129425 5.4372443565 5.7823484065 5.678536687 5.5575666702 5.4192596322 5.2659633393 
5.743164462 5.6444075337 5.5314983644 5.4046708639 5.2659633393 5.1195510325 5.7091357773 5.6152775188 5.5096229709 
5.3926039573 5.2659633393 5.1329233157 4.9978930058 5.6793730533 5.5901633916 5.4910209005 5.3824597928 5.2659633393 
5.1440684722 5.0201624502 4.8979782167 5.5683143056 5.4750190208 5.4750190208 5.3738143976 5.3738143976 5.3738143976 
5.2659633393 5.2659633393 5.2659633393 5.2659633393 5.1534979207 5.1534979207 5.1534979207 5.1534979207 5.1534979207 
5.0390747672 5.0390747672 5.0390747672 5.0390747672 5.0390747672 5.0390747672 4.9256388911 4.9256388911 4.9256388911 
4.9256388911 4.9256388911 4.9256388911 4.9256388911 4.8159880991 4.8159880991 4.8159880991 4.8159880991 4.8159880991 
4.8159880991 4.8159880991 4.8159880991 4.6087898617 4.6087898617 4.4991390697 4.6087898617 4.4991390697 4.3857031936 
4.6087898617 4.4991390697 4.3857031936 4.2712800401 4.6087898617 4.4991390697 4.3857031936 4.2712800401 4.1588146215 
4.6087898617 4.4991390697 4.3857031936 4.2712800401 4.1588146215 4.0509635631 4.6087898617 4.4991390697 4.3857031936 
4.2712800401 4.1588146215 4.0509635631 3.94975894 4.6087898617 4.4991390697 4.3857031936 4.2712800401 4.1588146215 
4.0509635631 3.94975894 3.8564636551 4.526799744 4.4046155105 4.426884955 4.2807094886 4.2918546451 4.3052269283 
4.1588146215 4.1588146215 4.1588146215 4.1588146215 4.042318168 4.0321740035 4.0201070968 4.0055183285 3.9875336042 
3.9337570603 3.9151549899 3.8932795963 3.8672112905 3.8356650183 3.7967995342 3.8346145692 3.809500442 3.7803704271 
3.7462412737 3.7058097288 3.657329819 3.5984456061 3.7454049075 3.7156421835 3.6816134988 3.6424295543 3.5969754326 
3.5438565869 3.4813459737 3.4073543651 3.5642842451 3.4524645613 3.5233842518 3.3320300872 3.403123212 3.4773852225 
3.20576226 3.2746326772 3.348015857 3.4255060145 3.0774230472 3.1415926536 3.2112816139 3.2864685043 3.3668817272 
2.95115522 3.00855263 3.0719036933 3.1415926536 3.2178377658 3.3005964304 2.8307207459 2.8800620952 2.9351694502 
2.9967168029 3.0653475414 3.1415926536 3.225752376 2.718901062 2.7598010554 2.8058000847 2.8576792927 2.91630358 
2.9825888767 3.0574329311 3.1415926536 3.5642842451 3.5233842518 3.4524645613 3.4773852225 3.403123212 3.3320300872 
3.4255060145 3.348015857 3.2746326772 3.20576226 3.3668817272 3.2864685043 3.2112816139 3.1415926536 3.0774230472 
3.3005964304 3.2178377658 3.1415926536 3.0719036933 3.00855263 2.95115522 3.225752376 3.1415926536 3.0653475414 
2.9967168029 2.9351694502 2.8800620952 2.8307207459 3.1415926536 3.0574329311 2.9825888767 2.91630358 2.8576792927 
2.8058000847 2.7598010554 2.718901062 4.526799744 4.426884955 4.4046155105 4.3052269283 4.2918546451 4.2807094886 
4.1588146215 4.1588146215 4.1588146215 4.1588146215 3.9875336042 4.0055183285 4.0201070968 4.0321740035 4.042318168 
3.7967995342 3.8356650183 3.8672112905 3.8932795963 3.9151549899 3.9337570603 3.5984456061 3.657329819 3.7058097288 
3.7462412737 3.7803704271 3.809500442 3.8346145692 3.4073543651 3.4813459737 3.5438565869 3.5969754326 3.6424295543 
3.6816134988 3.7156421835 3.7454049075 4.7123889804 4.8004512023 4.6243267584 4.9155579264 4.7123889804 4.5092200343 
5.0674903122 4.8353719722 4.5894059886 4.3572876485 5.2659633393 5.0120975802 4.7123889804 4.4126803806 4.1588146215 
5.5125918794 5.2659633393 4.9155579264 4.5092200343 4.1588146215 3.9121860814 5.7885595667 5.6029703303 5.2659633393 
4.7123889804 4.1588146215 3.8218076305 3.6362183941 6.0560271438 5.9702140275 5.7885595667 5.2659633393 4.1588146215 
3.6362183941 3.4545639333 3.368750817 0.22715816343 0.49462574053 0.3129712797 0.77059342779 0.68021497688 0.49462574053 
1.0172219679 1.0172219679 1.0172219679 1.0172219679 1.2156949949 1.271087727 1.3676273807 1.5707963268 2.1243706857 
1.3676273807 1.447813335 1.5707963268 1.7739652728 2.1243706857 2.6469669131 1.4827341049 1.5707963268 1.6937793186 
1.8705049266 2.1243706857 2.4613776767 2.8286213739 1.5707963268 1.6588585487 1.7739652728 1.9258976586 2.1243706857 
2.3709992258 2.6469669131 2.9144344902 1.7563855631 1.8785697967 1.8563003522 2.0024758186 1.9913306621 1.9779583789 
2.1243706857 2.1243706857 2.1243706857 2.1243706857 2.2408671392 2.2510113037 2.2630782103 2.2776669786 2.295651703 
2.3494282469 2.3680303173 2.3899057108 2.4159740166 2.4475202889 2.486385773 2.448570738 2.4736848652 2.5028148801 
2.5369440334 2.5773755784 2.6258554882 2.6847397011 2.5377803997 2.5675431237 2.6015718084 2.6407557529 2.6862098746 
2.7393287203 2.8018393335 2.8758309421 1.6743954455 1.6743954455 1.7840462375 1.6743954455 1.7840462375 1.8974821136 
1.6743954455 1.7840462375 1.8974821136 2.0119052671 1.6743954455 1.7840462375 1.8974821136 2.0119052671 2.1243706857 
1.6743954455 1.7840462375 1.8974821136 2.0119052671 2.1243706857 2.232221744 1.6743954455 1.7840462375 1.8974821136 
2.0119052671 2.1243706857 2.232221744 2.3334263672 1.6743954455 1.7840462375 1.8974821136 2.0119052671 2.1243706857 
2.232221744 2.3334263672 2.426721652 1.4671972081 1.3575464161 1.4671972081 1.24411054 1.3575464161 1.4671972081 
1.1296873865 1.24411054 1.3575464161 1.4671972081 1.0172219679 1.1296873865 1.24411054 1.3575464161 1.4671972081 
0.90937090954 1.0172219679 1.1296873865 1.24411054 1.3575464161 1.4671972081 0.80816628637 0.90937090954 1.0172219679 
1.1296873865 1.24411054 1.3575464161 1.4671972081 0.71487100155 0.80816628637 0.90937090954 1.0172219679 1.1296873865 
1.24411054 1.3575464161 1.4671972081 0.60381225391 0.57404952988 0.69302191562 0.54002084522 0.66790778838 0.79216440667 
0.50083690068 0.63877777351 0.77356233629 0.90072551443 0.45538277901 0.60464862014 0.75168694275 0.89058134991 1.0172219679 
0.40226393329 0.56421707518 0.72561863695 0.87851444325 1.0172219679 1.139116835 0.33975332011 0.51573716537 0.69407236469 
0.86392567495 1.0172219679 1.1502619915 1.2630228569 0.26576171152 0.45685295248 0.6552068806 0.84594095064 1.0172219679 
1.1636342747 1.2852923014 1.3852070904 0.22715816343 0.3129712797 0.49462574053 0.49462574053 0.68021497688 0.77059342779 
1.0172219679 1.0172219679 1.0172219679 1.0172219679 2.1243706857 1.5707963268 1.3676273807 1.271087727 1.2156949949 
2.6469669131 2.1243706857 1.7739652728 1.5707963268 1.447813335 1.3676273807 2.8286213739 2.4613776767 2.1243706857 
1.8705049266 1.6937793186 1.5707963268 1.4827341049 2.9144344902 2.6469669131 2.3709992258 2.1243706857 1.9258976586 
1.7739652728 1.6588585487 1.5707963268 1.7563855631 1.8563003522 1.8785697967 1.9779583789 1.9913306621 2.0024758186 
2.1243706857 2.1243706857 2.1243706857 2.1243706857 2.295651703 2.2776669786 2.2630782103 2.2510113037 2.2408671392 
2.486385773 2.4475202889 2.4159740166 2.3899057108 2.3680303173 2.3494282469 2.6847397011 2.6258554882 2.5773755784 
2.5369440334 2.5028148801 2.4736848652 2.448570738 2.8758309421 2.8018393335 2.7393287203 2.6862098746 2.6407557529 
2.6015718084 2.5675431237 2.5377803997 5.8604937156 5.901393709 5.9723133995 5.9473927383 6.0216547488 6.0927478736 
5.9992719463 6.0767621038 6.1501452836 6.2190157008 6.0578962336 6.1383094565 6.2134963469 0 0.064169606361 
6.1241815303 6.206940195 6.2831853072 0.069688960264 0.13304002361 0.19043743361 6.1990255847 0 0.07624511221 
0.14487585072 0.20642320337 0.26153055843 0.3108719077 0 0.084159722458 0.15900377685 0.22528907359 0.28391336087 
0.3357925689 0.38179159818 0.42269159155 5.8604937156 5.9723133995 5.901393709 6.0927478736 6.0216547488 5.9473927383 
6.2190157008 6.1501452836 6.0767621038 5.9992719463 0.064169606361 0 6.2134963469 6.1383094565 6.0578962336 
0.19043743361 0.13304002361 0.069688960264 6.2831853072 6.206940195 6.1241815303 0.3108719077 0.26153055843 0.20642320337 
0.14487585072 0.07624511221 6.2831853072 6.1990255847 0.42269159155 0.38179159818 0.3357925689 0.28391336087 0.22528907359 
0.15900377685 0.084159722458 0 5.6793730533 5.7091357773 5.5901633916 5.743164462 5.6152775188 5.4910209005 
5.7823484065 5.6444075337 5.5096229709 5.3824597928 5.8278025282 5.678536687 5.5314983644 5.3926039573 5.2659633393 
5.8809213739 5.718968232 5.5575666702 5.4046708639 5.2659633393 5.1440684722 5.9434319871 5.7674481418 5.5891129425 
5.4192596322 5.2659633393 5.1329233157 5.0201624502 6.0174235957 5.8263323547 5.6279784266 5.4372443565 5.2659633393 
5.1195510325 4.9978930058 4.8979782167 1.3852070904 1.2852923014 1.2630228569 1.1636342747 1.1502619915 1.139116835 
1.0172219679 1.0172219679 1.0172219679 1.0172219679 0.84594095064 0.86392567495 0.87851444325 0.89058134991 0.90072551443 
0.6552068806 0.69407236469 0.72561863695 0.75168694275 0.77356233629 0.79216440667 0.45685295248 0.51573716537 0.56421707518 
0.60464862014 0.63877777351 0.66790778838 0.69302191562 0.26576171152 0.33975332011 0.40226393329 0.45538277901 0.50083690068 
0.54002084522 0.57404952988 0.60381225391 
_paraPhiHalf 1 1002 double
0 3.1415926536 0 3.1415926536 1.5707963268 1.5707963268 1.5707963268 1.5707963268 2.5880182947 
0.5535743589 2.5880182947 0.5535743589 0 0 0 0 3.1415926536 3.1415926536 
3.1415926536 3.1415926536 3.1415926536 0.17788134 0.38438696014 0.60631181711 0.82323535693 1.0172219679 1.1799687454 
1.3118704726 1.4175000338 1.5022335207 0.17788134 0.38438696014 0.60631181711 0.82323535693 1.0172219679 1.1799687454 
1.3118704726 1.4175000338 1.5022335207 0.093902416448 0.17615329733 0.2478725152 0.31035131605 0.36486382811 0.41257334776 
0.45449736604 0.4915044461 0.52432611754 0.093902416448 0.17615329733 0.2478725152 0.31035131605 0.36486382811 0.41257334776 
0.45449736604 0.4915044461 0.52432611754 2.9637113136 2.7572056934 2.5352808365 2.3183572967 2.1243706857 1.9616239082 
1.829722181 1.7240926197 1.6393591329 2.9637113136 2.7572056934 2.5352808365 2.3183572967 2.1243706857 1.9616239082 
1.829722181 1.7240926197 1.6393591329 3.0476902371 2.9654393563 2.8937201384 2.8312413375 2.7767288255 2.7290193058 
2.6870952876 2.6500882075 2.617266536 3.0476902371 2.9654393563 2.8937201384 2.8312413375 2.7767288255 2.7290193058 
2.6870952876 2.6500882075 2.617266536 0 0 0 0 3.1415926536 3.1415926536 
3.1415926536 3.1415926536 3.1415926536 0.17788134 0.38438696014 0.60631181711 0.82323535693 1.0172219679 1.1799687454 
1.3118704726 1.4175000338 1.5022335207 0.17788134 0.38438696014 0.60631181711 0.82323535693 1.0172219679 1.1799687454 
1.3118704726 1.4175000338 1.5022335207 0.093902416448 0.17615329733 0.2478725152 0.31035131605 0.36486382811 0.41257334776 
0.45449736604 0.4915044461 0.52432611754 0.093902416448 0.17615329733 0.2478725152 0.31035131605 0.36486382811 0.41257334776 
0.45449736604 0.4915044461 0.52432611754 2.9637113136 2.7572056934 2.5352808365 2.3183572967 2.1243706857 1.9616239082 
1.829722181 1.7240926197 1.6393591329 2.9637113136 2.7572056934 2.5352808365 2.3183572967 2.1243706857 1.9616239082 
1.829722181 1.7240926197 1.6393591329 3.0476902371 2.9654393563 2.8937201384 2.8312413375 2.7767288255 2.7290193058 
2.6870952876 2.6500882075 2.617266536 3.0476902371 2.9654393563 2.8937201384 2.8312413375 2.7767288255 2.7290193058 
2.6870952876 2.6500882075 2.617266536 1.5707963268 1.5707963268 1.5707963268 1.5707963268 1.5707963268 1.5707963268 
1.5707963268 1.5707963268 1.5707963268 1.6743954455 1.7840462375 1.8974821136 2.0119052671 2.1243706857 2.232221744 
2.3334263672 2.426721652 2.5115728246 1.4671972081 1.3575464161 1.24411054 1.1296873865 1.0172219679 0.90937090954 
0.80816628637 0.71487100155 0.63001982895 1.6743954455 1.7840462375 1.8974821136 2.0119052671 2.1243706857 2.232221744 
2.3334263672 2.426721652 2.5115728246 1.4671972081 1.3575464161 1.24411054 1.1296873865 1.0172219679 0.90937090954 
0.80816628637 0.71487100155 0.63001982895 1.5707963268 1.5707963268 1.5707963268 1.5707963268 1.5707963268 1.5707963268 
1.5707963268 1.5707963268 1.5707963268 1.6743954455 1.7840462375 1.8974821136 2.0119052671 2.1243706857 2.232221744 
2.3334263672 2.426721652 2.5115728246 1.4671972081 1.3575464161 1.24411054 1.1296873865 1.0172219679 0.90937090954 
0.80816628637 0.71487100155 0.63001982895 1.6743954455 1.7840462375 1.8974821136 2.0119052671 2.1243706857 2.232221744 
2.3334263672 2.426721652 2.5115728246 1.4671972081 1.3575464161 1.24411054 1.1296873865 1.0172219679 0.90937090954 
0.80816628637 0.71487100155 0.63001982895 2.6824132222 2.7864913217 2.8992382033 3.0186096618 3.1415926536 3.0186096618 
2.8992382033 2.7864913217 2.6824132222 0.45917943135 0.35510133185 0.2423544503 0.12298299178 0 0.12298299178 
0.2423544503 0.35510133185 0.45917943135 0.22715816343 0.49462574053 0.3129712797 0.77059342779 0.68021497688 0.49462574053 
1.0172219679 1.0172219679 1.0172219679 1.0172219679 1.2156949949 1.271087727 1.3676273807 1.5707963268 2.1243706857 
1.3676273807 1.447813335 1.5707963268 1.7739652728 2.1243706857 2.6469669131 1.4827341049 1.5707963268 1.6937793186 
1.8705049266 2.1243706857 2.4613776767 2.8286213739 1.5707963268 1.6588585487 1.7739652728 1.9258976586 2.1243706857 
2.3709992258 2.6469669131 2.9144344902 0.26576171152 0.33975332011 0.45685295248 0.40226393329 0.51573716537 0.6552068806 
0.45538277901 0.56421707518 0.69407236469 0.84594095064 0.50083690068 0.60464862014 0.72561863695 0.86392567495 1.0172219679 
0.54002084522 0.63877777351 0.75168694275 0.87851444325 1.0172219679 1.1636342747 0.57404952988 0.66790778838 0.77356233629 
0.89058134991 1.0172219679 1.1502619915 1.2852923014 0.60381225391 0.69302191562 0.79216440667 0.90072551443 1.0172219679 
1.139116835 1.2630228569 1.3852070904 0.71487100155 0.80816628637 0.80816628637 0.90937090954 0.90937090954 0.90937090954 
1.0172219679 1.0172219679 1.0172219679 1.0172219679 1.1296873865 1.1296873865 1.1296873865 1.1296873865 1.1296873865 
1.24411054 1.24411054 1.24411054 1.24411054 1.24411054 1.24411054 1.3575464161 1.3575464161 1.3575464161 
1.3575464161 1.3575464161 1.3575464161 1.3575464161 1.4671972081 1.4671972081 1.4671972081 1.4671972081 1.4671972081 
1.4671972081 1.4671972081 1.4671972081 1.6743954455 1.6743954455 1.7840462375 1.6743954455 1.7840462375 1.8974821136 
1.6743954455 1.7840462375 1.8974821136 2.0119052671 1.6743954455 1.7840462375 1.8974821136 2.0119052671 2.1243706857 
1.6743954455 1.7840462375 1.8974821136 2.0119052671 2.1243706857 2.232221744 1.6743954455 1.7840462375 1.8974821136 
2.0119052671 2.1243706857 2.232221744 2.3334263672 1.6743954455 1.7840462375 1.8974821136 2.0119052671 2.1243706857 
2.232221744 2.3334263672 2.426721652 1.7563855631 1.8785697967 1.8563003522 2.0024758186 1.9913306621 1.9779583789 
2.1243706857 2.1243706857 2.1243706857 2.1243706857 2.2408671392 2.2510113037 2.2630782103 2.2776669786 2.295651703 
2.3494282469 2.3680303173 2.3899057108 2.4159740166 2.4475202889 2.486385773 2.448570738 2.4736848652 2.5028148801 
2.5369440334 2.5773755784 2.6258554882 2.6847397011 2.5377803997 2.5675431237 2.6015718084 2.6407557529 2.6862098746 
2.7393287203 2.8018393335 2.8758309421 2.718901062 2.8307207459 2.7598010554 2.95115522 2.8800620952 2.8058000847 
3.0774230472 3.00855263 2.9351694502 2.8576792927 3.0774230472 3.1415926536 3.0719036933 2.9967168029 2.91630358 
2.95115522 3.00855263 3.0719036933 3.1415926536 3.0653475414 2.9825888767 2.8307207459 2.8800620952 2.9351694502 
2.9967168029 3.0653475414 3.1415926536 3.0574329311 2.718901062 2.7598010554 2.8058000847 2.8576792927 2.91630358 
2.9825888767 3.0574329311 3.1415926536 2.718901062 2.7598010554 2.8307207459 2.8058000847 2.8800620952 2.95115522 
2.8576792927 2.9351694502 3.00855263 3.0774230472 2.91630358 2.9967168029 3.0719036933 3.1415926536 3.0774230472 
2.9825888767 3.0653475414 3.1415926536 3.0719036933 3.00855263 2.95115522 3.0574329311 3.1415926536 3.0653475414 