# vtk DataFile Version 5.1
vtk output
ASCII
DATASET POLYDATA
POINTS 1002 float
10.6832 36.3263 17.4835 20.1462 40.7678 14.2015 13.5904 30.0502 10.3459 
21.3366 36.2619 9.13625 19.6279 34.4598 18.7916 21.1875 30.411 15.655 
12.2797 41.4918 10.5685 14.1805 36.7901 6.0502 26.9955 38.9877 14.1943 
10.2652 29.0525 19.4254 21.8113 44.6676 8.42235 6.95938 34.0015 11.4444 
11.5604 36.6986 17.1991 12.6239 37.1155 16.8507 13.7171 37.586 16.4696 
14.706 38.0232 16.0768 15.663 38.3417 15.6307 16.7249 38.6149 15.0884 
17.8183 39.0041 14.5626 18.76 39.5538 14.2492 19.5083 40.1754 14.1787 
11.2873 36.0813 17.701 12.0589 35.693 17.7471 12.8923 35.1903 17.6915 
13.7119 34.7104 17.6722 14.6476 34.4016 17.777 15.832 34.2743 17.9606 
17.0937 34.2338 18.1259 18.1537 34.2406 18.2719 18.9601 34.3193 18.4837 
10.6715 36.7328 16.9612 10.714 37.1302 16.3463 10.7994 37.5432 15.7031 
10.9331 38.0005 14.9766 11.1347 38.5095 14.0901 11.3966 39.0874 13.195 
11.6627 39.7575 12.5053 11.8806 40.4648 11.9472 12.0646 41.0753 11.3098 
10.2636 35.7933 17.9196 9.91056 35.1204 18.3334 9.64924 34.2556 18.6751 
9.52318 33.225 18.9403 9.51244 32.1752 19.216 9.47878 31.2505 19.5961 
9.37667 30.4691 19.9975 9.39188 29.8117 20.1713 9.70129 29.3241 19.9568 
9.93279 36.1726 17.366 9.21881 35.9636 17.0865 8.42487 35.7887 16.7608 
7.58534 35.6862 16.4834 7.00967 35.5431 16.0623 6.87833 35.2444 15.195 
6.94302 34.8561 13.9711 6.93057 34.5125 12.8199 6.88518 34.2426 11.9991 
20.1729 40.3618 14.6523 20.2019 39.7689 15.0564 20.2988 38.9764 15.3651 
20.4029 38.1351 15.6301 20.4048 37.3589 15.9554 20.3194 36.5851 16.3829 
20.2137 35.8181 16.9059 20.0694 35.2149 17.5189 19.8596 34.8114 18.1781 
19.6627 40.7626 13.7179 19.0082 40.8167 13.2587 18.1811 41.0128 12.8975 
17.3283 41.2865 12.6023 16.5163 41.4827 12.3487 15.6005 41.5776 12.1823 
14.5205 41.6752 12.0326 13.4857 41.7735 11.7059 12.7263 41.7389 11.1617 
20.8681 41.0926 14.4554 21.7579 41.34 14.5843 22.7609 41.4916 14.6214 
23.8084 41.5641 14.7041 24.9454 41.4974 14.8555 26.1529 41.1823 14.9292 
27.1112 40.6481 14.8452 27.4926 40.0529 14.6658 27.3523 39.4985 14.4468 
20.4819 41.3511 13.8936 20.8031 41.9995 13.4821 21.0679 42.7049 13.0139 
21.2165 43.4125 12.6205 21.2948 44.0878 12.3204 21.4348 44.6981 11.8962 
21.6536 45.1051 11.1401 21.8292 45.1768 10.1375 21.8759 44.9742 9.16605 
14.5308 30.3836 10.1059 15.5389 30.7518 9.84607 16.4618 31.2231 9.68541 
17.2273 31.8321 9.63158 17.9555 32.5306 9.55942 18.7645 33.267 9.40467 
19.5758 34.0436 9.23764 20.2671 34.8414 9.13223 20.8377 35.5945 9.10216 
14.3484 29.818 10.6391 15.0995 29.6503 11.0485 15.8841 29.5656 11.5723 
16.9145 29.4494 12.0671 18.2329 29.1701 12.4401 19.4757 28.8661 12.8758 
20.2777 28.8687 13.5828 20.6796 29.2753 14.4405 20.9337 29.8667 15.169 
13.4273 30.5265 9.92763 13.3502 31.022 9.39914 13.3579 31.5643 8.80038 
13.3931 32.2691 8.27102 13.4284 33.1177 7.84923 13.4977 33.9028 7.38135 
13.6134 34.5511 6.79864 13.7591 35.2154 6.28617 13.9447 35.9859 6.03935 
13.1902 29.558 10.6958 12.8212 29.1441 11.1369 12.4192 28.9471 11.9096 
11.9511 28.9614 13.1087 11.4941 29.048 14.4446 11.1065 29.0987 15.5665 
10.74 29.0809 16.5215 10.4036 29.0107 17.5388 10.2212 28.9695 18.5862 
12.5706 29.9864 10.284 11.5629 29.899 10.1626 10.6143 29.8679 10.0701 
9.71542 30.0557 10.1614 8.94158 30.538 10.4364 8.39684 31.2121 10.7354 
7.99343 31.9412 10.9798 7.57817 32.6641 11.1905 7.1889 33.3553 11.3515 
21.4927 35.6712 9.49394 21.6779 34.9885 9.87304 21.7663 34.3033 10.3781 
21.6992 33.6764 11.0642 21.5814 33.0489 11.8497 21.5206 32.3637 12.6211 
21.4747 31.7062 13.3572 21.3791 31.18 14.0975 21.2666 30.7689 14.8688 
20.9412 36.3813 8.688 20.5173 36.4544 8.18539 19.9143 36.5297 7.74244 
19.0759 36.6503 7.4279 18.1991 36.7581 7.11342 17.4541 36.7395 6.63874 
16.712 36.6072 6.10552 15.8318 36.5183 5.78528 14.9281 36.5882 5.79976 
21.9158 36.5677 9.46799 22.5258 36.9248 9.93357 23.0803 37.3656 10.5665 
23.6199 37.8236 11.2438 24.3413 38.1698 11.7297 25.2588 38.3872 11.9884 
26.0723 38.5756 12.2867 26.5713 38.7692 12.831 26.8369 38.9136 13.5324 
21.58 37.0037 8.92725 21.8674 37.8028 8.66154 22.1761 38.6764 8.35657 
22.4603 39.6688 8.09116 22.6349 40.8289 7.923 22.6278 42.0937 7.82349 
22.4879 43.2279 7.76579 22.3194 44.0122 7.81184 22.1195 44.4434 8.03594 
19.924 34.2581 19.3827 20.3245 33.859 19.9072 20.8118 33.2216 20.0993 
21.2792 32.4397 19.84 21.5944 31.6688 19.294 21.7107 31.0337 18.6602 
21.6693 30.6315 17.9592 21.5273 30.4802 17.1817 21.3442 30.4587 16.3953 
20.432 34.8752 18.7372 21.3072 35.3598 18.5316 22.2454 35.9556 18.1673 
23.206 36.668 17.7853 24.1136 37.3408 17.4643 24.9226 37.7615 17.0409 
25.6441 37.963 16.3859 26.2644 38.188 15.6228 26.7235 38.5578 14.8944 
18.9777 33.9082 19.0906 18.258 33.1925 19.2867 17.4259 32.4213 19.4199 
16.3973 31.7379 19.5249 15.235 31.1064 19.6365 14.1684 30.4205 19.805 
13.2557 29.7774 19.9853 12.3068 29.3565 20.0205 11.2502 29.157 19.8183 
21.5175 31.1665 15.4993 21.9623 32.0088 15.3006 22.585 32.9181 15.1845 
23.4017 33.8554 15.1588 24.3347 34.718 15.0698 25.1628 35.4884 14.8431 
25.7079 36.3071 14.604 26.079 37.24 14.4532 26.4991 38.1712 14.3406 
20.9127 29.8089 16.2079 20.4127 29.3708 16.7041 19.5151 29.1733 17.0527 
18.2486 29.1383 17.3117 16.8852 29.0862 17.6549 15.6215 28.9491 18.1146 
14.3651 28.834 18.5303 12.9861 28.8392 18.8251 11.5587 28.9367 19.0982 
12.2954 41.3837 9.74211 12.4359 41.125 9.02286 12.7232 40.786 8.56312 
13.1636 40.3788 8.26839 13.6549 39.8554 7.92491 13.9903 39.2533 7.50131 
14.0658 38.6664 7.09787 14.0065 38.0831 6.72616 14.0141 37.4459 6.35978 
12.863 41.9494 10.1735 13.7386 42.2967 9.86898 14.7747 42.6807 9.66637 
15.7496 43.2296 9.43633 16.6384 43.8272 9.10572 17.6132 44.2222 8.82523 
18.7465 44.3722 8.72026 19.9204 44.4537 8.67571 20.9759 44.5732 8.55909 
11.876 40.8194 10.5403 11.4598 39.9682 10.6312 10.6551 39.2526 10.7407 
9.32224 38.9367 10.7089 7.98015 38.7709 10.5201 7.26547 38.1961 10.3679 
7.11537 37.0973 10.4327 7.07001 35.8713 10.7042 6.97705 34.8372 11.0695 
14.8562 37.5226 6.00609 15.6327 38.4974 6.02324 16.5827 39.7426 5.97065 
17.6246 41.0913 5.81875 18.5399 42.2139 5.83415 19.2571 42.931 6.2762 
19.9116 43.3913 6.96001 20.5872 43.8215 7.52844 21.2356 44.272 7.94919 
13.3216 36.5705 6.34992 12.2997 36.3733 6.65888 11.1716 36.1568 6.90533 
10.1822 35.9129 7.22345 9.47922 35.6031 7.81701 8.89399 35.1854 8.63057 
8.24186 34.7483 9.42377 7.60985 34.4277 10.108 7.17138 34.2149 10.7605 
27.3561 39.7311 13.5725 27.4673 40.5395 12.7701 27.1839 41.4734 11.9185 
26.5482 42.4977 11.3424 25.7445 43.4007 11.1717 24.9199 44.0305 11.0151 
24.1225 44.4582 10.4377 23.351 44.7452 9.56681 22.5844 44.8215 8.83381 
9.03497 29.0066 19.371 7.99475 28.9009 19.2047 7.27143 28.9324 18.6088 
6.90344 29.2555 17.4263 6.85009 29.8064 15.9747 6.97578 30.499 14.7417 
7.07894 31.374 13.8208 7.05399 32.3729 12.9963 6.97315 33.2869 12.1769 
12.3152 36.4347 17.3666 13.1533 36.0357 17.4123 13.4709 36.9028 17.0388 
13.9555 35.5643 17.3859 14.293 36.5823 17.1548 14.5671 37.4715 16.737 
14.7946 35.1565 17.3784 15.0827 36.178 17.1448 15.3528 37.2311 16.9098 
15.5249 37.9598 16.3977 15.8861 34.8973 17.4619 16.0509 35.7761 17.0645 
16.2064 36.8265 16.8482 16.3103 37.7189 16.5509 16.4665 38.2685 15.9235 
17.1741 34.7487 17.6111 17.2752 35.4543 17.0616 17.2982 36.367 16.675 
17.2336 37.2895 16.4333 17.2541 38.032 16.0424 17.4889 38.5715 15.3536 
18.3277 34.668 17.7597 18.4696 35.2365 17.168 18.4838 36.0096 16.6242 
18.3486 36.8662 16.2533 18.2064 37.688 15.9654 18.2552 38.4382 15.5309 
18.5059 39.0634 14.9008 19.1881 34.6853 17.9281 19.3817 35.1497 17.3198 
19.4702 35.8253 16.7259 19.4399 36.6247 16.2329 19.3342 37.4282 15.8813 
19.2442 38.2534 15.5851 19.2715 39.0606 15.2005 19.4043 39.7101 14.6985 
10.8855 35.496 18.1158 10.5758 34.7872 18.5481 11.7111 35.0461 18.1287 
10.3905 33.8848 18.9634 11.4686 34.3039 18.602 12.6223 34.4962 18.0752 
10.3479 32.8357 19.2784 11.3353 33.3739 19.0486 12.4673 33.7286 18.554 
13.571 34.0232 18.0971 10.3823 31.8322 19.4925 11.2903 32.3418 19.2776 
12.3858 32.7944 18.886 13.5724 33.2639 18.5005 14.698 33.7731 18.2275 
10.4011 30.9872 19.7244 11.3123 31.4228 19.3686 12.3464 31.8414 18.9813 
13.6152 32.3831 18.6905 14.8759 33.0547 18.5431 16.0085 33.7096 18.3936 
10.4729 30.2506 19.9765 11.45 30.6562 19.5853 12.4251 31.0603 19.1458 
13.6576 31.5757 18.8483 15.0257 32.2644 18.7546 16.223 33.037 18.7107 
17.2334 33.724 18.556 10.7528 29.6114 20.0547 11.7899 29.9547 19.8991 
12.7371 30.4008 19.5713 13.8135 30.9586 19.266 15.108 31.5986 19.12 
16.3516 32.322 19.0654 17.3551 33.0944 18.9672 18.1984 33.7886 18.7728 
12.6539 28.9271 19.6643 14.0988 28.827 19.4576 13.7123 29.1595 20.0191 
15.3736 28.9523 19.0276 15.0536 29.2252 19.8033 14.605 29.7909 20.0909 
16.5423 29.1983 18.423 16.2146 29.5153 19.2291 15.8564 30.0514 19.8674 
15.4932 30.6256 19.9986 17.8618 29.3404 17.966 17.4413 29.7493 18.6097 
17.0652 30.3247 19.3185 16.762 30.8804 19.8473 16.5414 31.3212 19.8876 
19.2776 29.3552 17.7649 18.906 29.7536 18.3335 18.4925 30.3596 18.9024 
18.1374 30.9693 19.5025 17.8531 31.4601 19.8742 17.6217 31.9164 19.7989 
20.4009 29.4685 17.5355 20.2672 29.7203 18.2226 20.0007 30.2297 18.7822 
19.6671 30.8785 19.3128 19.2956 31.4982 19.7832 18.8994 32.0824 19.9582 
18.5397 32.6638 19.7303 21.0368 29.8524 17.0519 21.1275 29.9433 17.8553 
21.1097 30.2551 18.5532 20.9611 30.8223 19.1456 20.6643 31.5231 19.6774 
20.2165 32.256 20.0407 19.7116 32.9534 20.022 19.2833 33.5207 19.6264 
20.7958 34.6978 19.3635 21.2083 34.2684 19.7759 21.6936 35.1373 19.0155 
21.6234 33.5753 19.6997 22.0199 34.6585 19.1197 22.604 35.6352 18.3331 
21.9526 32.7839 19.1766 22.2827 34.0064 18.7292 22.8362 35.1338 18.0817 
23.5403 36.2276 17.6074 22.108 32.084 18.4949 22.4656 33.3702 18.1074 
23.0105 34.6118 17.5794 23.7569 35.7051 17.1652 24.4424 36.7588 17.0489 
22.0766 31.5796 17.781 22.5035 32.8397 17.4905 23.1123 34.1539 17.1223 
23.9101 35.2474 16.7592 24.6578 36.164 16.5604 25.1982 37.0764 16.5101 
[...]
POINT_DATA 1002
FIELD FieldData 4
_paraPhi 1 1002 double
6.2831853072 3.1415926536 6.2831853072 3.1415926536 4.7123889804 4.7123889804 1.5707963268 1.5707963268 3.6951670125 
5.7296109483 2.5880182947 0.5535743589 6.2831853072 6.2831853072 6.2831853072 6.2831853072 3.1415926536 3.1415926536 
3.1415926536 3.1415926536 3.1415926536 6.1053039672 5.898798347 5.6768734901 5.4599499503 5.2659633393 5.1032165617 
4.9713148346 4.8656852733 4.7809517865 0.17788134 0.38438696014 0.60631181711 0.82323535693 1.0172219679 1.1799687454 
1.3118704726 1.4175000338 1.5022335207 6.1892828907 6.1070320098 6.035312792 5.9728339911 5.9183214791 5.8706119594 
5.8286879411 5.7916808611 5.7588591896 0.093902416448 0.17615329733 0.2478725152 0.31035131605 0.36486382811 0.41257334776 
0.45449736604 0.4915044461 0.52432611754 3.3194739936 3.5259796137 3.7479044707 3.9648280105 4.1588146215 4.321561399 
4.4534631262 4.5590926874 4.6438261743 2.9637113136 2.7572056934 2.5352808365 2.3183572967 2.1243706857 1.9616239082 
1.829722181 1.7240926197 1.6393591329 3.23549507 3.3177459509 3.3894651688 3.4519439696 3.5064564817 3.5541660013 
3.5960900196 3.6330970997 3.6659187711 3.0476902371 2.9654393563 2.8937201384 2.8312413375 2.7767288255 2.7290193058 
2.6870952876 2.6500882075 2.617266536 6.2831853072 6.2831853072 6.2831853072 6.2831853072 3.1415926536 3.1415926536 
3.1415926536 3.1415926536 3.1415926536 6.1053039672 5.898798347 5.6768734901 5.4599499503 5.2659633393 5.1032165617 
4.9713148346 4.8656852733 4.7809517865 0.17788134 0.38438696014 0.60631181711 0.82323535693 1.0172219679 1.1799687454 
1.3118704726 1.4175000338 1.5022335207 6.1892828907 6.1070320098 6.035312792 5.9728339911 5.9183214791 5.8706119594 
5.8286879411 5.7916808611 5.7588591896 0.093902416448 0.17615329733 0.2478725152 0.31035131605 0.36486382811 0.41257334776 
0.45449736604 0.4915044461 0.52432611754 3.3194739936 3.5259796137 3.7479044707 3.9648280105 4.1588146215 4.321561399 
4.4534631262 4.5590926874 4.6438261743 2.9637113136 2.7572056934 2.5352808365 2.3183572967 2.1243706857 1.9616239082 
1.829722181 1.7240926197 1.6393591329 3.23549507 3.3177459509 3.3894651688 3.4519439696 3.5064564817 3.5541660013 
3.5960900196 3.6330970997 3.6659187711 3.0476902371 2.9654393563 2.8937201384 2.8312413375 2.7767288255 2.7290193058 
2.6870952876 2.6500882075 2.617266536 4.7123889804 4.7123889804 4.7123889804 4.7123889804 4.7123889804 4.7123889804 
4.7123889804 4.7123889804 4.7123889804 4.6087898617 4.4991390697 4.3857031936 4.2712800401 4.1588146215 4.0509635631 
3.94975894 3.8564636551 3.7716124825 4.8159880991 4.9256388911 5.0390747672 5.1534979207 5.2659633393 5.3738143976 
5.4750190208 5.5683143056 5.6531654782 4.6087898617 4.4991390697 4.3857031936 4.2712800401 4.1588146215 4.0509635631 
3.94975894 3.8564636551 3.7716124825 4.8159880991 4.9256388911 5.0390747672 5.1534979207 5.2659633393 5.3738143976 
5.4750190208 5.5683143056 5.6531654782 1.5707963268 1.5707963268 1.5707963268 1.5707963268 1.5707963268 1.5707963268 
1.5707963268 1.5707963268 1.5707963268 1.6743954455 1.7840462375 1.8974821136 2.0119052671 2.1243706857 2.232221744 
2.3334263672 2.426721652 2.5115728246 1.4671972081 1.3575464161 1.24411054 1.1296873865 1.0172219679 0.90937090954 
0.80816628637 0.71487100155 0.63001982895 1.6743954455 1.7840462375 1.8974821136 2.0119052671 2.1243706857 2.232221744 
2.3334263672 2.426721652 2.5115728246 1.4671972081 1.3575464161 1.24411054 1.1296873865 1.0172219679 0.90937090954 
0.80816628637 0.71487100155 0.63001982895 3.6007720849 3.4966939854 3.3839471039 3.2645756454 3.1415926536 3.0186096618 
2.8992382033 2.7864913217 2.6824132222 5.8240058758 5.9280839753 6.0408308569 6.1602023154 6.2831853072 0.12298299178 
0.2423544503 0.35510133185 0.45917943135 6.0560271438 5.7885595667 5.9702140275 5.5125918794 5.6029703303 5.7885595667 
5.2659633393 5.2659633393 5.2659633393 5.2659633393 5.0674903122 5.0120975802 4.9155579264 4.7123889804 4.1588146215 
4.9155579264 4.8353719722 4.7123889804 4.5092200343 4.1588146215 3.6362183941 4.8004512023 4.7123889804 4.5894059886 
4.4126803806 4.1588146215 3.8218076305 3.4545639333 4.7123889804 4.6243267584 4.5092200343 4.3572876485 4.1588146215 
3.9121860814 3.6362183941 3.368750817 6.0174235957 5.9434319871 5.8263323547 5.8809213739 5.7674481418 5.6279784266 
5.8278025282 5.718968232 5.5891129425 5.4372443565 5.7823484065 5.678536687 5.5575666702 5.4192596322 5.2659633393 
5.743164462 5.6444075337 5.5314983644 5.4046708639 5.2659633393 5.1195510325 5.7091357773 5.6152775188 5.5096229709 
5.3926039573 5.2659633393 5.1329233157 4.9978930058 5.6793730533 5.5901633916 5.4910209005 5.3824597928 5.2659633393 
5.1440684722 5.0201624502 4.8979782167 5.5683143056 5.4750190208 5.4750190208 5.3738143976 5.3738143976 5.3738143976 
5.2659633393 5.2659633393 5.2659633393 5.2659633393 5.1534979207 5.1534979207 5.1534979207 5.1534979207 5.1534979207 
5.0390747672 5.0390747672 5.0390747672 5.0390747672 5.0390747672 5.0390747672 4.9256388911 4.9256388911 4.9256388911 
4.9256388911 4.9256388911 4.9256388911 4.9256388911 4.8159880991 4.8159880991 4.8159880991 4.8159880991 4.8159880991 
4.8159880991 4.8159880991 4.8159880991 4.6087898617 4.6087898617 4.4991390697 4.6087898617 4.4991390697 4.3857031936 
4.6087898617 4.4991390697 4.3857031936 4.2712800401 4.6087898617 4.4991390697 4.3857031936 4.2712800401 4.1588146215 
4.6087898617 4.4991390697 4.3857031936 4.2712800401 4.1588146215 4.0509635631 4.6087898617 4.4991390697 4.3857031936 
4.2712800401 4.1588146215 4.0509635631 3.94975894 4.6087898617 4.4991390697 4.3857031936 4.2712800401 4.1588146215 
4.0509635631 3.94975894 3.8564636551 4.526799744 4.4046155105 4.426884955 4.2807094886 4.2918546451 4.3052269283 
4.1588146215 4.1588146215 4.1588146215 4.1588146215 4.042318168 4.0321740035 4.0201070968 4.0055183285 3.9875336042 
3.9337570603 3.9151549899 3.8932795963 3.8672112905 3.8356650183 3.7967995342 3.8346145692 3.809500442 3.7803704271 
3.7462412737 3.7058097288 3.657329819 3.5984456061 3.7454049075 3.7156421835 3.6816134988 3.6424295543 3.5969754326 
3.5438565869 3.4813459737 3.4073543651 3.5642842451 3.4524645613 3.5233842518 3.3320300872 3.403123212 3.4773852225 
3.20576226 3.2746326772 3.348015857 3.4255060145 3.0774230472 3.1415926536 3.2112816139 3.2864685043 3.3668817272 
2.95115522 3.00855263 3.0719036933 3.1415926536 3.2178377658 3.3005964304 2.8307207459 2.8800620952 2.9351694502 
2.9967168029 3.0653475414 3.1415926536 3.225752376 2.718901062 2.7598010554 2.8058000847 2.8576792927 2.91630358 
2.9825888767 3.0574329311 3.1415926536 3.5642842451 3.5233842518 3.4524645613 3.4773852225 3.403123212 3.3320300872 
3.4255060145 3.348015857 3.2746326772 3.20576226 3.3668817272 3.2864685043 3.2112816139 3.1415926536 3.0774230472 
3.3005964304 3.2178377658 3.1415926536 3.0719036933 3.00855263 2.95115522 3.225752376 3.1415926536 3.0653475414 
2.9967168029 2.9351694502 2.8800620952 2.8307207459 3.1415926536 3.0574329311 2.9825888767 2.91630358 2.8576792927 
2.8058000847 2.7598010554 2.718901062 4.526799744 4.426884955 4.4046155105 4.3052269283 4.2918546451 4.2807094886 
4.1588146215 4.1588146215 4.1588146215 4.1588146215 3.9875336042 4.0055183285 4.0201070968 4.0321740035 4.042318168 
3.7967995342 3.8356650183 3.8672112905 3.8932795963 3.9151549899 3.9337570603 3.5984456061 3.657329819 3.7058097288 
3.7462412737 3.7803704271 3.809500442 3.8346145692 3.4073543651 3.4813459737 3.5438565869 3.5969754326 3.6424295543 
3.6816134988 3.7156421835 3.7454049075 4.7123889804 4.8004512023 4.6243267584 4.9155579264 4.7123889804 4.5092200343 
5.0674903122 4.8353719722 4.5894059886 4.3572876485 5.2659633393 5.0120975802 4.7123889804 4.4126803806 4.1588146215 
5.5125918794 5.2659633393 4.9155579264 4.5092200343 4.1588146215 3.9121860814 5.7885595667 5.6029703303 5.2659633393 
4.7123889804 4.1588146215 3.8218076305 3.6362183941 6.0560271438 5.9702140275 5.7885595667 5.2659633393 4.1588146215 
3.6362183941 3.4545639333 3.368750817 0.22715816343 0.49462574053 0.3129712797 0.77059342779 0.68021497688 0.49462574053 
1.0172219679 1.0172219679 1.0172219679 1.0172219679 1.2156949949 1.271087727 1.3676273807 1.5707963268 2.1243706857 
1.3676273807 1.447813335 1.5707963268 1.7739652728 2.1243706857 2.6469669131 1.4827341049 1.5707963268 1.6937793186 
1.8705049266 2.1243706857 2.4613776767 2.8286213739 1.5707963268 1.6588585487 1.7739652728 1.9258976586 2.1243706857 
2.3709992258 2.6469669131 2.9144344902 1.7563855631 1.8785697967 1.8563003522 2.0024758186 1.9913306621 1.9779583789 
2.1243706857 2.1243706857 2.1243706857 2.1243706857 2.2408671392 2.2510113037 2.2630782103 2.2776669786 2.295651703 
2.3494282469 2.3680303173 2.3899057108 2.4159740166 2.4475202889 2.486385773 2.448570738 2.4736848652 2.5028148801 
2.5369440334 2.5773755784 2.6258554882 2.6847397011 2.5377803997 2.5675431237 2.6015718084 2.6407557529 2.6862098746 
2.7393287203 2.8018393335 2.8758309421 1.6743954455 1.6743954455 1.7840462375 1.6743954455 1.7840462375 1.8974821136 
1.6743954455 1.7840462375 1.8974821136 2.0119052671 1.6743954455 1.7840462375 1.8974821136 2.0119052671 2.1243706857 
1.6743954455 1.7840462375 1.8974821136 2.0119052671 2.1243706857 2.232221744 1.6743954455 1.7840462375 1.8974821136 
2.0119052671 2.1243706857 2.232221744 2.3334263672 1.6743954455 1.7840462375 1.8974821136 2.0119052671 2.1243706857 
2.232221744 2.3334263672 2.426721652 1.4671972081 1.3575464161 1.4671972081 1.24411054 1.3575464161 1.4671972081 
1.1296873865 1.24411054 1.3575464161 1.4671972081 1.0172219679 1.1296873865 1.24411054 1.3575464161 1.4671972081 
0.90937090954 1.0172219679 1.1296873865 1.24411054 1.3575464161 1.4671972081 0.80816628637 0.90937090954 1.0172219679 
1.1296873865 1.24411054 1.3575464161 1.4671972081 0.71487100155 0.80816628637 0.90937090954 1.0172219679 1.1296873865 
1.24411054 1.3575464161 1.4671972081 0.60381225391 0.57404952988 0.69302191562 0.54002084522 0.66790778838 0.79216440667 
0.50083690068 0.63877777351 0.77356233629 0.90072551443 0.45538277901 0.60464862014 0.75168694275 0.89058134991 1.0172219679 
0.40226393329 0.56421707518 0.72561863695 0.87851444325 1.0172219679 1.139116835 0.33975332011 0.51573716537 0.69407236469 
0.86392567495 1.0172219679 1.1502619915 1.2630228569 0.26576171152 0.45685295248 0.6552068806 0.84594095064 1.0172219679 
1.1636342747 1.2852923014 1.3852070904 0.22715816343 0.3129712797 0.49462574053 0.49462574053 0.68021497688 0.77059342779 
1.0172219679 1.0172219679 1.0172219679 1.0172219679 2.1243706857 1.5707963268 1.3676273807 1.271087727 1.2156949949 
2.6469669131 2.1243706857 1.7739652728 1.5707963268 1.447813335 1.3676273807 2.8286213739 2.4613776767 2.1243706857 
1.8705049266 1.6937793186 1.5707963268 1.4827341049 2.9144344902 2.6469669131 2.3709992258 2.1243706857 1.9258976586 
1.7739652728 1.6588585487 1.5707963268 1.7563855631 1.8563003522 1.8785697967 1.9779583789 1.9913306621 2.0024758186 
2.1243706857 2.1243706857 2.1243706857 2.1243706857 2.295651703 2.2776669786 2.2630782103 2.2510113037 2.2408671392 
2.486385773 2.4475202889 2.4159740166 2.3899057108 2.3680303173 2.3494282469 2.6847397011 2.6258554882 2.5773755784 
2.5369440334 2.5028148801 2.4736848652 2.448570738 2.8758309421 2.8018393335 2.7393287203 2.6862098746 2.6407557529 
2.6015718084 2.5675431237 2.5377803997 5.8604937156 5.901393709 5.9723133995 5.9473927383 6.0216547488 6.0927478736 
5.9992719463 6.0767621038 6.1501452836 6.2190157008 6.0578962336 6.1383094565 6.2134963469 0 0.064169606361 
6.1241815303 6.206940195 6.2831853072 0.069688960264 0.13304002361 0.19043743361 6.1990255847 0 0.07624511221 
0.14487585072 0.20642320337 0.26153055843 0.3108719077 0 0.084159722458 0.15900377685 0.22528907359 0.28391336087 
0.3357925689 0.38179159818 0.42269159155 5.8604937156 5.9723133995 5.901393709 6.0927478736 6.0216547488 5.9473927383 
6.2190157008 6.1501452836 6.0767621038 5.9992719463 0.064169606361 0 6.2134963469 6.1383094565 6.0578962336 
0.19043743361 0.13304002361 0.069688960264 6.2831853072 6.206940195 6.1241815303 0.3108719077 0.26153055843 0.20642320337 
0.14487585072 0.07624511221 6.2831853072 6.1990255847 0.42269159155 0.38179159818 0.3357925689 0.28391336087 0.22528907359 
0.15900377685 0.084159722458 0 5.6793730533 5.7091357773 5.5901633916 5.743164462 5.6152775188 5.4910209005 
5.7823484065 5.6444075337 5.5096229709 5.3824597928 5.8278025282 5.678536687 5.5314983644 5.3926039573 5.2659633393 
5.8809213739 5.718968232 5.5575666702 5.4046708639 5.2659633393 5.1440684722 5.9434319871 5.7674481418 5.5891129425 
5.4192596322 5.2659633393 5.1329233157 5.0201624502 6.0174235957 5.8263323547 5.6279784266 5.4372443565 5.2659633393 
5.1195510325 4.9978930058 4.8979782167 1.3852070904 1.2852923014 1.2630228569 1.1636342747 1.1502619915 1.139116835 
1.0172219679 1.0172219679 1.0172219679 1.0172219679 0.84594095064 0.86392567495 0.87851444325 0.89058134991 0.90072551443 
0.6552068806 0.69407236469 0.72561863695 0.75168694275 0.77356233629 0.79216440667 0.45685295248 0.51573716537 0.56421707518 
0.60464862014 0.63877777351 0.66790778838 0.69302191562 0.26576171152 0.33975332011 0.40226393329 0.45538277901 0.50083690068 
0.54002084522 0.57404952988 0.60381225391 
_paraPhiHalf 1 1002 double
0 3.1415926536 0 3.1415926536 1.5707963268 1.5707963268 1.5707963268 1.5707963268 2.5880182947 
0.5535743589 2.5880182947 0.5535743589 0 0 0 0 3.1415926536 3.1415926536 
3.1415926536 3.1415926536 3.1415926536 0.17788134 0.38438696014 0.60631181711 0.82323535693 1.0172219679 1.1799687454 
1.3118704726 1.4175000338 1.5022335207 0.17788134 0.38438696014 0.60631181711 0.82323535693 1.0172219679 1.1799687454 
1.3118704726 1.4175000338 1.5022335207 0.093902416448 0.17615329733 0.2478725152 0.31035131605 0.36486382811 0.41257334776 
0.45449736604 0.4915044461 0.52432611754 0.093902416448 0.17615329733 0.2478725152 0.31035131605 0.36486382811 0.41257334776 
0.45449736604 0.4915044461 0.52432611754 2.9637113136 2.7572056934 2.5352808365 2.3183572967 2.1243706857 1.9616239082 
1.829722181 1.7240926197 1.6393591329 2.9637113136 2.7572056934 2.5352808365 2.3183572967 2.1243706857 1.9616239082 
1.829722181 1.7240926197 1.6393591329 3.0476902371 2.9654393563 2.8937201384 2.8312413375 2.7767288255 2.7290193058 
2.6870952876 2.6500882075 2.617266536 3.0476902371 2.9654393563 2.8937201384 2.8312413375 2.7767288255 2.7290193058 
2.6870952876 2.6500882075 2.617266536 0 0 0 0 3.1415926536 3.1415926536 
3.1415926536 3.1415926536 3.1415926536 0.17788134 0.38438696014 0.60631181711 0.82323535693 1.0172219679 1.1799687454 
1.3118704726 1.4175000338 1.5022335207 0.17788134 0.38438696014 0.60631181711 0.82323535693 1.0172219679 1.1799687454 
1.3118704726 1.4175000338 1.5022335207 0.093902416448 0.17615329733 0.2478725152 0.31035131605 0.36486382811 0.41257334776 
0.45449736604 0.4915044461 0.52432611754 0.093902416448 0.17615329733 0.2478725152 0.31035131605 0.36486382811 0.41257334776 
0.45449736604 0.4915044461 0.52432611754 2.9637113136 2.7572056934 2.5352808365 2.3183572967 2.1243706857 1.9616239082 
1.829722181 1.7240926197 1.6393591329 2.9637113136 2.7572056934 2.5352808365 2.3183572967 2.1243706857 1.9616239082 
1.829722181 1.7240926197 1.6393591329 3.0476902371 2.9654393563 2.8937201384 2.8312413375 2.7767288255 2.7290193058 
2.6870952876 2.6500882075 2.617266536 3.0476902371 2.9654393563 2.8937201384 2.8312413375 2.7767288255 2.7290193058 
2.6870952876 2.6500882075 2.617266536 1.5707963268 1.5707963268 1.5707963268 1.5707963268 1.5707963268 1.5707963268 
1.5707963268 1.5707963268 1.5707963268 1.6743954455 1.7840462375 1.8974821136 2.0119052671 2.1243706857 2.232221744 
2.3334263672 2.426721652 2.5115728246 1.4671972081 1.3575464161 1.24411054 1.1296873865 1.0172219679 0.90937090954 
0.80816628637 0.71487100155 0.63001982895 1.6743954455 1.7840462375 1.8974821136 2.0119052671 2.1243706857 2.232221744 
2.3334263672 2.426721652 2.5115728246 1.4671972081 1.3575464161 1.24411054 1.1296873865 1.0172219679 0.90937090954 
0.80816628637 0.71487100155 0.63001982895 1.5707963268 1.5707963268 1.5707963268 1.5707963268 1.5707963268 1.5707963268 
1.5707963268 1.5707963268 1.5707963268 1.6743954455 1.7840462375 1.8974821136 2.0119052671 2.1243706857 2.232221744 
2.3334263672 2.426721652 2.5115728246 1.4671972081 1.3575464161 1.24411054 1.1296873865 1.0172219679 0.90937090954 
0.80816628637 0.71487100155 0.63001982895 1.6743954455 1.7840462375 1.8974821136 2.0119052671 2.1243706857 2.232221744 
2.3334263672 2.426721652 2.5115728246 1.4671972081 1.3575464161 1.24411054 1.1296873865 1.0172219679 0.90937090954 
0.80816628637 0.71487100155 0.63001982895 2.6824132222 2.7864913217 2.8992382033 3.0186096618 3.1415926536 3.0186096618 
2.8992382033 2.7864913217 2.6824132222 0.45917943135 0.35510133185 0.2423544503 0.12298299178 0 0.12298299178 
0.2423544503 0.35510133185 0.45917943135 0.22715816343 0.49462574053 0.3129712797 0.77059342779 0.68021497688 0.49462574053 
1.0172219679 1.0172219679 1.0172219679 1.0172219679 1.2156949949 1.271087727 1.3676273807 1.5707963268 2.1243706857 
1.3676273807 1.447813335 1.5707963268 1.7739652728 2.1243706857 2.6469669131 1.4827341049 1.5707963268 1.6937793186 
1.8705049266 2.1243706857 2.4613776767 2.8286213739 1.5707963268 1.6588585487 1.7739652728 1.9258976586 2.1243706857 
2.3709992258 2.6469669131 2.9144344902 0.26576171152 0.33975332011 0.45685295248 0.40226393329 0.51573716537 0.6552068806 
0.45538277901 0.56421707518 0.69407236469 0.84594095064 0.50083690068 0.60464862014 0.72561863695 0.86392567495 1.0172219679 
0.54002084522 0.63877777351 0.75168694275 0.87851444325 1.0172219679 1.1636342747 0.57404952988 0.66790778838 0.77356233629 
0.89058134991 1.0172219679 1.1502619915 1.2852923014 0.60381225391 0.69302191562 0.79216440667 0.90072551443 1.0172219679 
1.139116835 1.2630228569 1.3852070904 0.71487100155 0.80816628637 0.80816628637 0.90937090954 0.90937090954 0.90937090954 
1.0172219679 1.0172219679 1.0172219679 1.0172219679 1.1296873865 1.1296873865 1.1296873865 1.1296873865 1.1296873865 
1.24411054 1.24411054 1.24411054 1.24411054 1.24411054 1.24411054 1.3575464161 1.3575464161 1.3575464161 
1.3575464161 1.3575464161 1.3575464161 1.3575464161 1.4671972081 1.4671972081 1.4671972081 1.4671972081 1.4671972081 
1.4671972081 1.4671972081 1.4671972081 1.6743954455 1.6743954455 1.7840462375 1.6743954455 1.7840462375 1.8974821136 
1.6743954455 1.7840462375 1.8974821136 2.0119052671 1.6743954455 1.7840462375 1.8974821136 2.0119052671 2.1243706857 
1.6743954455 1.7840462375 1.8974821136 2.0119052671 2.1243706857 2.232221744 1.6743954455 1.7840462375 1.8974821136 
2.0119052671 2.1243706857 2.232221744 2.3334263672 1.6743954455 1.7840462375 1.8974821136 2.0119052671 2.1243706857 
2.232221744 2.3334263672 2.426721652 1.7563855631 1.8785697967 1.8563003522 2.0024758186 1.9913306621 1.9779583789 
2.1243706857 2.1243706857 2.1243706857 2.1243706857 2.2408671392 2.2510113037 2.2630782103 2.2776669786 2.295651703 
2.3494282469 2.3680303173 2.3899057108 2.4159740166 2.4475202889 2.486385773 2.448570738 2.4736848652 2.5028148801 
2.5369440334 2.5773755784 2.6258554882 2.6847397011 2.5377803997 2.5675431237 2.6015718084 2.6407557529 2.6862098746 
2.7393287203 2.8018393335 2.8758309421 2.718901062 2.8307207459 2.7598010554 2.95115522 2.8800620952 2.8058000847 
3.0774230472 3.00855263 2.9351694502 2.8576792927 3.0774230472 3.1415926536 3.0719036933 2.9967168029 2.91630358 
2.95115522 3.00855263 3.0719036933 3.1415926536 3.0653475414 2.9825888767 2.8307207459 2.8800620952 2.9351694502 
2.9967168029 3.0653475414 3.1415926536 3.0574329311 2.718901062 2.7598010554 2.8058000847 2.8576792927 2.91630358 
2.9825888767 3.0574329311 3.1415926536 2.718901062 2.7598010554 2.8307207459 2.8058000847 2.8800620952 2.95115522 
2.8576792927 2.9351694502 3.00855263 3.0774230472 2.91630358 2.9967168029 3.0719036933 3.1415926536 3.0774230472 
2.9825888767 3.0653475414 3.1415926536 3.0719036933 3.00855263 2.95115522 3.0574329311 3.1415926536 3.0653475414 