# vtk DataFile Version 5.1
vtk output
ASCII
DATASET POLYDATA
POINTS 1002 float
-4.79217 -0.0751707 -4.24312 4.57976 -0.282338 -4.06704 -4.4495 -0.482971 3.64704 
4.76904 -0.136849 3.93262 -0.127139 6.65138 -2.47984 -0.664272 6.89728 3.24331 
0.773956 -6.44949 -2.64186 0.685892 -6.598 2.05955 8.86333 4.47198 0.681311 
-7.60367 4.72366 -0.395572 8.35596 -4.44825 0.115417 -9.40353 -5.18242 0.929303 
-4.13772 -0.177086 -4.36053 -3.37462 -0.290436 -4.29416 -2.40678 -0.357966 -4.24 
-1.18215 -0.350781 -4.42521 0.148067 -0.314881 -4.78955 1.33298 -0.319214 -5.03288 
2.29898 -0.356985 -4.98308 3.13901 -0.366508 -4.71235 3.9057 -0.329911 -4.37266 
-4.44206 0.52532 -4.25208 -4.0053 1.2761 -4.60244 -3.52114 2.09995 -4.85338 
-3.05826 2.88173 -4.55152 -2.61613 3.60009 -3.91123 -2.14398 4.32788 -3.49802 
-1.63385 5.06118 -3.34977 -1.11263 5.702 -3.13077 -0.602514 6.21387 -2.78186 
-4.70578 -0.62029 -4.75932 -4.50358 -1.12456 -5.42338 -4.10822 -1.66472 -5.70003 
-3.57324 -2.33368 -5.31238 -2.99038 -3.13881 -4.63381 -2.32551 -3.96889 -4.13329 
-1.51811 -4.69309 -3.78076 -0.651761 -5.29507 -3.37962 0.131542 -5.86162 -2.96366 
-5.26355 0.368254 -3.9155 -5.89824 0.889167 -3.72238 -6.72682 1.48829 -3.74659 
-7.58277 2.14393 -3.80334 -8.15406 2.77809 -3.54077 -8.27779 3.29297 -2.88024 
-8.10118 3.67142 -2.11482 -7.87593 3.99705 -1.47857 -7.71822 4.35045 -0.936726 
-5.39007 -0.367292 -4.22153 -6.07735 -0.716472 -4.12996 -6.88782 -1.14485 -3.87439 
-7.69642 -1.6558 -3.40799 -8.25159 -2.21992 -2.75174 -8.51163 -2.81308 -1.97486 
-8.7437 -3.45715 -1.16122 -9.10031 -4.14421 -0.375879 -9.39607 -4.76275 0.334398 
4.31106 0.430762 -4.11111 4.06004 1.15805 -4.15243 3.71545 1.85434 -4.06604 
3.13077 2.53452 -3.73638 2.40446 3.25602 -3.28499 1.81808 4.04493 -3.01649 
1.41153 4.84541 -3.00232 0.973702 5.55908 -2.99331 0.421112 6.14651 -2.80007 
4.44907 -1.01249 -4.21136 4.24121 -1.76761 -4.35084 3.99755 -2.54096 -4.56994 
3.84554 -3.30343 -5.02707 3.7595 -3.9802 -5.58807 3.4834 -4.54046 -5.70414 
2.87986 -5.05377 -5.06421 2.11441 -5.57431 -4.0432 1.39426 -6.05926 -3.18378 
5.03463 0.210746 -3.80897 5.53121 0.722692 -3.56597 6.12062 1.20396 -3.27971 
6.77207 1.6706 -2.79914 7.37176 2.17576 -2.10107 7.85964 2.69596 -1.40188 
8.25886 3.16558 -0.863746 8.57292 3.602 -0.396063 8.77575 4.05071 0.12489 
5.1685 -0.710417 -3.89991 5.77611 -1.14482 -3.74009 6.31963 -1.48441 -3.48362 
6.80996 -1.72122 -3.06465 7.35038 -2.03551 -2.569 7.91827 -2.60802 -2.11025 
8.33053 -3.34798 -1.65737 8.4948 -3.97832 -1.11755 8.47943 -4.33402 -0.494912 
-3.68003 -0.417212 3.73379 -2.85057 -0.282839 3.98048 -1.95321 -0.151073 4.15238 
-0.979047 -0.106271 3.96742 0.0337875 -0.115809 3.59024 1.02721 -0.0771657 3.5036 
1.99661 -0.00580455 3.78122 2.96445 -0.00192688 4.04914 3.90784 -0.0731721 4.07642 
-4.16623 0.162685 3.57554 -3.86185 0.89742 3.53199 -3.53298 1.75289 3.59734 
-3.16831 2.708 3.80211 -2.78258 3.67866 4.01683 -2.39911 4.58876 4.0759 
-1.99673 5.39372 3.96896 -1.55123 6.04774 3.77999 -1.09303 6.53325 3.54226 
-4.22685 -1.12771 3.7153 -3.90426 -1.85032 3.77532 -3.47433 -2.55381 3.81399 
-3.00343 -3.18175 3.78111 -2.5673 -3.82264 3.55606 -2.11999 -4.51345 3.04933 
-1.52972 -5.11416 2.40817 -0.769247 -5.57269 1.95735 0.0248523 -6.03383 1.87427 
-5.02661 -0.102662 3.62888 -5.60082 0.339026 3.60167 -6.15116 0.838652 3.45628 
-6.6548 1.40386 3.12679 -7.07796 2.06937 2.63572 -7.39649 2.83325 2.05891 
-7.60282 3.5791 1.45697 -7.69269 4.15285 0.843807 -7.67997 4.51028 0.218551 
-5.12377 -0.873781 3.74353 -5.9044 -1.27384 3.91296 -6.75309 -1.74501 4.07003 
-7.54712 -2.30809 4.11724 -8.10733 -2.86863 3.94753 -8.37445 -3.34999 3.46769 
-8.53471 -3.82086 2.7449 -8.80497 -4.3457 2.01018 -9.15881 -4.84244 1.41633 
4.30129 0.571535 3.69542 3.90672 1.27313 3.37682 3.61294 1.91966 3.01544 
3.23209 2.6034 2.75217 2.59619 3.40996 2.73641 1.84229 4.22715 2.95369 
1.1992 4.91063 3.222 0.644589 5.51757 3.37223 0.0281303 6.17944 3.36525 
4.72473 -0.786474 4.17567 4.5425 -1.39442 4.20898 4.04836 -1.98764 4.09241 
3.30115 -2.66882 3.99115 2.58801 -3.45417 3.88229 2.06841 -4.2234 3.60697 
1.65747 -4.90671 3.19298 1.28517 -5.53997 2.78645 0.969672 -6.1224 2.41835 
5.34938 0.310933 3.57689 6.07407 0.867038 3.26857 6.89611 1.42449 3.17506 
7.68512 1.86818 3.24003 8.38013 2.26443 3.2177 8.99652 2.8073 2.92343 
9.44074 3.48822 2.37787 9.54717 4.06147 1.73796 9.30379 4.36911 1.15392 
5.52631 -0.568376 3.94022 6.11774 -0.920956 3.88993 6.45304 -1.16882 3.60096 
6.70081 -1.43471 2.96064 7.14229 -1.85106 2.2219 7.77093 -2.37031 1.76453 
8.28519 -2.88453 1.5544 8.49864 -3.40387 1.25388 8.48066 -3.95121 0.72865 
-0.132568 7.28068 -2.14348 -0.0849455 8.05808 -1.86624 -0.00706173 8.88896 -1.59988 
0.0314167 9.54236 -1.19137 -0.0786439 9.79544 -0.52086 -0.381054 9.59158 0.383397 
-0.72981 9.04229 1.36607 -0.901693 8.32307 2.23078 -0.838355 7.58118 2.85239 
0.663089 6.76959 -2.47386 1.52031 6.87211 -2.39394 2.45404 6.90578 -2.08632 
3.45837 6.78513 -1.62512 4.47762 6.50454 -1.1984 5.43475 6.16569 -0.776114 
6.31831 5.8202 -0.254857 7.18576 5.41837 0.235319 8.05647 4.94673 0.529712 
-0.91547 6.87456 -2.32576 -1.70142 7.08524 -2.35174 -2.52815 7.24747 -2.56853 
-3.51541 7.3181 -2.73163 -4.65798 7.26551 -2.62587 -5.72649 7.05491 -2.29868 
-6.5031 6.65023 -1.8651 -6.99261 6.06772 -1.36267 -7.32611 5.39266 -0.848918 
0.204968 6.78911 2.97666 1.06509 6.72851 2.7257 1.94124 6.68954 2.57215 
3.05681 6.58194 2.43162 4.50477 6.40982 2.19795 5.96072 6.25463 1.94952 
7.05543 6.07138 1.76475 7.79844 5.70961 1.53104 8.37935 5.13529 1.14735 
-1.64201 7.40753 3.22899 -2.5229 7.75095 3.02582 -3.14857 7.71095 2.53949 
-3.66558 7.36478 1.8602 -4.39234 7.06447 1.28818 -5.35651 6.9552 0.984468 
-6.26362 6.77593 0.755568 -6.90389 6.27675 0.393958 -7.30826 5.52044 -0.0405906 
0.769127 -7.03161 -2.22846 0.760383 -7.57938 -1.75201 0.706464 -8.05251 -1.07861 
0.559462 -8.45697 -0.257984 0.401704 -8.75354 0.469094 0.414653 -8.80432 0.984077 
0.614077 -8.51067 1.38645 0.79925 -7.94102 1.73046 0.814618 -7.25943 1.95722 
1.72489 -6.88349 -2.66982 2.71087 -7.32415 -2.72166 3.64949 -7.50528 -2.67592 
4.35964 -7.20779 -2.41763 4.84847 -6.61574 -1.9606 5.44284 -6.17769 -1.44293 
6.3167 -5.99126 -0.991096 7.2179 -5.72786 -0.619496 7.88699 -5.17339 -0.266037 
-0.245527 -6.42992 -2.39836 -1.46877 -6.4444 -2.08465 -2.8286 -6.45386 -1.6111 
-4.13822 -6.3849 -1.10497 -5.37258 -6.29841 -0.741092 -6.70224 -6.34335 -0.442301 
-8.04474 -6.44332 -0.0538756 -9.00395 -6.31512 0.364451 -9.38884 -5.8439 0.688259 
1.35239 -6.97547 2.583 1.92412 -7.28495 2.97616 2.59947 -7.32681 2.96536 
3.54859 -7.04799 2.63615 4.6805 -6.61071 2.24802 5.73341 -6.19265 1.84185 
6.579 -5.8087 1.35194 7.26988 -5.39366 0.856845 7.86417 -4.9311 0.451746 
-0.111445 -6.61367 1.64772 -1.30302 -6.62032 1.64848 -2.85751 -6.70789 2.18356 
-4.48748 -6.94158 2.83745 -5.85875 -7.21682 2.99612 -6.91474 -7.28955 2.5965 
-7.81268 -7.03191 2.07304 -8.5945 -6.52343 1.66973 -9.1468 -5.88538 1.31199 
9.56276 3.79402 0.498788 10.1195 3.18241 0.444072 10.456 2.53969 0.509577 
10.6485 1.55949 0.508221 10.7598 0.162627 0.359235 10.6552 -1.23035 0.227986 
10.2153 -2.23269 0.217973 9.56797 -2.95804 0.226839 8.9213 -3.68152 0.177404 
-7.9965 3.84824 -0.287756 -8.51557 2.99327 -0.118405 -9.11693 2.14027 0.0608866 
-9.68191 1.19299 0.206229 -10.0457 0.0956711 0.363013 -10.076 -1.09006 0.56104 
-9.8339 -2.24247 0.722727 -9.56539 -3.29752 0.799142 -9.43819 -4.2727 0.848463 
-3.6859 0.431613 -4.34594 -3.14362 1.21124 -4.6584 -2.83085 0.347753 -4.32271 
-2.61057 2.05664 -4.78286 -2.23074 1.16455 -4.5956 -1.79172 0.340088 -4.38309 
-2.12139 2.84012 -4.38432 -1.67993 2.00535 -4.57427 -1.20085 1.1743 -4.56189 
-0.566785 0.397872 -4.63514 -1.60462 3.57895 -3.83759 -1.14293 2.75866 -4.13984 
-0.68631 1.95129 -4.34957 -0.0640578 1.18088 -4.60763 0.67785 0.420572 -4.90536 
-1.04213 4.34755 -3.55483 -0.549852 3.50607 -3.73349 -0.153621 2.64819 -3.90001 
0.373611 1.86317 -4.20348 1.09319 1.11836 -4.64491 1.78642 0.370645 -4.96344 
-0.502127 5.08125 -3.38484 0.0375422 4.29437 -3.52613 0.42496 3.40213 -3.57508 
0.861194 2.54664 -3.74881 1.51122 1.78113 -4.15884 2.20967 1.05599 -4.58713 
2.75003 0.335017 -4.77365 -0.0179356 5.67577 -3.10931 0.541261 5.0033 -3.30075 
0.958599 4.1831 -3.32543 1.37142 3.31657 -3.39824 1.98069 2.51415 -3.7178 
2.67903 1.78723 -4.14607 3.22376 1.08364 -4.41022 3.59435 0.371438 -4.44736 
-4.98189 1.1157 -4.24216 -5.72886 1.75292 -4.2575 -4.58993 1.96517 -4.68322 
-6.56786 2.39745 -4.19896 -5.32207 2.62984 -4.49668 -4.09973 2.80133 -4.62327 
-7.214 3.03843 -3.89625 -5.98767 3.26041 -4.02387 -4.71196 3.4499 -4.02315 
-3.59907 3.56467 -3.97499 -7.48624 3.65806 -3.2992 -6.40343 3.93458 -3.42009 
-5.19346 4.13638 -3.37551 -4.09842 4.25764 -3.35988 -3.12804 4.31446 -3.41483 
-7.48789 4.19983 -2.60223 -6.63156 4.65306 -2.86822 -5.56969 4.95902 -2.96463 
-4.50697 5.08345 -3.06682 -3.5713 5.09486 -3.19039 -2.64348 5.0856 -3.27646 
-7.42257 4.63687 -1.99581 -6.81233 5.27655 -2.41418 -5.96357 5.77436 -2.71518 
-4.93597 5.99915 -2.99449 -3.93599 5.98027 -3.20547 -3.03026 5.88031 -3.22096 
-2.09865 5.79488 -3.13922 -7.37593 5.02002 -1.44501 -6.95125 5.72698 -1.94761 
-6.3226 6.34225 -2.38603 -5.40011 6.71311 -2.78078 -4.30904 6.79253 -3.08032 
-3.28885 6.68761 -3.10774 -2.38986 6.53315 -2.90103 -1.50304 6.37866 -2.74729 
-7.00593 6.22664 -0.507721 -6.45895 6.89501 -0.127548 -6.56052 6.78954 -1.06802 
-5.56322 7.23375 0.164814 -5.76169 7.21707 -0.723091 -5.86566 7.14609 -1.57984 
-4.47927 7.379 0.46714 -4.62831 7.40446 -0.355718 -4.81597 7.36736 -1.15085 
-4.85667 7.38824 -1.93609 -3.61426 7.65986 1.04527 -3.56725 7.68954 0.184099 
-3.62019 7.63442 -0.610799 -3.68644 7.66519 -1.36189 -3.6442 7.63332 -2.10561 
-3.11346 8.09491 1.84455 -2.92527 8.22817 0.952299 -2.7216 8.22271 0.0211021 
-2.58946 8.22403 -0.794142 -2.51834 8.14823 -1.47415 -2.50283 7.81605 -2.07022 
-2.62743 8.31621 2.48619 -2.48971 8.69605 1.66309 -2.15469 8.90521 0.634414 
[...]
POINT_DATA 1002
FIELD FieldData 4
_paraPhi 1 1002 double
6.2831853072 3.1415926536 6.2831853072 3.1415926536 4.7123889804 4.7123889804 1.5707963268 1.5707963268 3.6951670125 
5.7296109483 2.5880182947 0.5535743589 6.2831853072 6.2831853072 6.2831853072 6.2831853072 3.1415926536 3.1415926536 
3.1415926536 3.1415926536 3.1415926536 6.1053039672 5.898798347 5.6768734901 5.4599499503 5.2659633393 5.1032165617 
4.9713148346 4.8656852733 4.7809517865 0.17788134 0.38438696014 0.60631181711 0.82323535693 1.0172219679 1.1799687454 
1.3118704726 1.4175000338 1.5022335207 6.1892828907 6.1070320098 6.035312792 5.9728339911 5.9183214791 5.8706119594 
5.8286879411 5.7916808611 5.7588591896 0.093902416448 0.17615329733 0.2478725152 0.31035131605 0.36486382811 0.41257334776 
0.45449736604 0.4915044461 0.52432611754 3.3194739936 3.5259796137 3.7479044707 3.9648280105 4.1588146215 4.321561399 
4.4534631262 4.5590926874 4.6438261743 2.9637113136 2.7572056934 2.5352808365 2.3183572967 2.1243706857 1.9616239082 
1.829722181 1.7240926197 1.6393591329 3.23549507 3.3177459509 3.3894651688 3.4519439696 3.5064564817 3.5541660013 
3.5960900196 3.6330970997 3.6659187711 3.0476902371 2.9654393563 2.8937201384 2.8312413375 2.7767288255 2.7290193058 
2.6870952876 2.6500882075 2.617266536 6.2831853072 6.2831853072 6.2831853072 6.2831853072 3.1415926536 3.1415926536 
3.1415926536 3.1415926536 3.1415926536 6.1053039672 5.898798347 5.6768734901 5.4599499503 5.2659633393 5.1032165617 
4.9713148346 4.8656852733 4.7809517865 0.17788134 0.38438696014 0.60631181711 0.82323535693 1.0172219679 1.1799687454 
1.3118704726 1.4175000338 1.5022335207 6.1892828907 6.1070320098 6.035312792 5.9728339911 5.9183214791 5.8706119594 
5.8286879411 5.7916808611 5.7588591896 0.093902416448 0.17615329733 0.2478725152 0.31035131605 0.36486382811 0.41257334776 
0.45449736604 0.4915044461 0.52432611754 3.3194739936 3.5259796137 3.7479044707 3.9648280105 4.1588146215 4.321561399 
4.4534631262 4.5590926874 4.6438261743 2.9637113136 2.7572056934 2.5352808365 2.3183572967 2.1243706857 1.9616239082 
1.829722181 1.7240926197 1.6393591329 3.23549507 3.3177459509 3.3894651688 3.4519439696 3.5064564817 3.5541660013 
3.5960900196 3.6330970997 3.6659187711 3.0476902371 2.9654393563 2.8937201384 2.8312413375 2.7767288255 2.7290193058 
2.6870952876 2.6500882075 2.617266536 4.7123889804 4.7123889804 4.7123889804 4.7123889804 4.7123889804 4.7123889804 
4.7123889804 4.7123889804 4.7123889804 4.6087898617 4.4991390697 4.3857031936 4.2712800401 4.1588146215 4.0509635631 
3.94975894 3.8564636551 3.7716124825 4.8159880991 4.9256388911 5.0390747672 5.1534979207 5.2659633393 5.3738143976 
5.4750190208 5.5683143056 5.6531654782 4.6087898617 4.4991390697 4.3857031936 4.2712800401 4.1588146215 4.0509635631 
3.94975894 3.8564636551 3.7716124825 4.8159880991 4.9256388911 5.0390747672 5.1534979207 5.2659633393 5.3738143976 
5.4750190208 5.5683143056 5.6531654782 1.5707963268 1.5707963268 1.5707963268 1.5707963268 1.5707963268 1.5707963268 
1.5707963268 1.5707963268 1.5707963268 1.6743954455 1.7840462375 1.8974821136 2.0119052671 2.1243706857 2.232221744 
2.3334263672 2.426721652 2.5115728246 1.4671972081 1.3575464161 1.24411054 1.1296873865 1.0172219679 0.90937090954 
0.80816628637 0.71487100155 0.63001982895 1.6743954455 1.7840462375 1.8974821136 2.0119052671 2.1243706857 2.232221744 
2.3334263672 2.426721652 2.5115728246 1.4671972081 1.3575464161 1.24411054 1.1296873865 1.0172219679 0.90937090954 
0.80816628637 0.71487100155 0.63001982895 3.6007720849 3.4966939854 3.3839471039 3.2645756454 3.1415926536 3.0186096618 
2.8992382033 2.7864913217 2.6824132222 5.8240058758 5.9280839753 6.0408308569 6.1602023154 6.2831853072 0.12298299178 
0.2423544503 0.35510133185 0.45917943135 6.0560271438 5.7885595667 5.9702140275 5.5125918794 5.6029703303 5.7885595667 
5.2659633393 5.2659633393 5.2659633393 5.2659633393 5.0674903122 5.0120975802 4.9155579264 4.7123889804 4.1588146215 
4.9155579264 4.8353719722 4.7123889804 4.5092200343 4.1588146215 3.6362183941 4.8004512023 4.7123889804 4.5894059886 
4.4126803806 4.1588146215 3.8218076305 3.4545639333 4.7123889804 4.6243267584 4.5092200343 4.3572876485 4.1588146215 
3.9121860814 3.6362183941 3.368750817 6.0174235957 5.9434319871 5.8263323547 5.8809213739 5.7674481418 5.6279784266 
5.8278025282 5.718968232 5.5891129425 5.4372443565 5.7823484065 5.678536687 5.5575666702 5.4192596322 5.2659633393 
5.743164462 5.6444075337 5.5314983644 5.4046708639 5.2659633393 5.1195510325 5.7091357773 5.6152775188 5.5096229709 
5.3926039573 5.2659633393 5.1329233157 4.9978930058 5.6793730533 5.5901633916 5.4910209005 5.3824597928 5.2659633393 
5.1440684722 5.0201624502 4.8979782167 5.5683143056 5.4750190208 5.4750190208 5.3738143976 5.3738143976 5.3738143976 
5.2659633393 5.2659633393 5.2659633393 5.2659633393 5.1534979207 5.1534979207 5.1534979207 5.1534979207 5.1534979207 
5.0390747672 5.0390747672 5.0390747672 5.0390747672 5.0390747672 5.0390747672 4.9256388911 4.9256388911 4.9256388911 
4.9256388911 4.9256388911 4.9256388911 4.9256388911 4.8159880991 4.8159880991 4.8159880991 4.8159880991 4.8159880991 
4.8159880991 4.8159880991 4.8159880991 4.6087898617 4.6087898617 4.4991390697 4.6087898617 4.4991390697 4.3857031936 
4.6087898617 4.4991390697 4.3857031936 4.2712800401 4.6087898617 4.4991390697 4.3857031936 4.2712800401 4.1588146215 
4.6087898617 4.4991390697 4.3857031936 4.2712800401 4.1588146215 4.0509635631 4.6087898617 4.4991390697 4.3857031936 
4.2712800401 4.1588146215 4.0509635631 3.94975894 4.6087898617 4.4991390697 4.3857031936 4.2712800401 4.1588146215 
4.0509635631 3.94975894 3.8564636551 4.526799744 4.4046155105 4.426884955 4.2807094886 4.2918546451 4.3052269283 
4.1588146215 4.1588146215 4.1588146215 4.1588146215 4.042318168 4.0321740035 4.0201070968 4.0055183285 3.9875336042 
3.9337570603 3.9151549899 3.8932795963 3.8672112905 3.8356650183 3.7967995342 3.8346145692 3.809500442 3.7803704271 
3.7462412737 3.7058097288 3.657329819 3.5984456061 3.7454049075 3.7156421835 3.6816134988 3.6424295543 3.5969754326 
3.5438565869 3.4813459737 3.4073543651 3.5642842451 3.4524645613 3.5233842518 3.3320300872 3.403123212 3.4773852225 
3.20576226 3.2746326772 3.348015857 3.4255060145 3.0774230472 3.1415926536 3.2112816139 3.2864685043 3.3668817272 
2.95115522 3.00855263 3.0719036933 3.1415926536 3.2178377658 3.3005964304 2.8307207459 2.8800620952 2.9351694502 
2.9967168029 3.0653475414 3.1415926536 3.225752376 2.718901062 2.7598010554 2.8058000847 2.8576792927 2.91630358 
2.9825888767 3.0574329311 3.1415926536 3.5642842451 3.5233842518 3.4524645613 3.4773852225 3.403123212 3.3320300872 
3.4255060145 3.348015857 3.2746326772 3.20576226 3.3668817272 3.2864685043 3.2112816139 3.1415926536 3.0774230472 
3.3005964304 3.2178377658 3.1415926536 3.0719036933 3.00855263 2.95115522 3.225752376 3.1415926536 3.0653475414 
2.9967168029 2.9351694502 2.8800620952 2.8307207459 3.1415926536 3.0574329311 2.9825888767 2.91630358 2.8576792927 
2.8058000847 2.7598010554 2.718901062 4.526799744 4.426884955 4.4046155105 4.3052269283 4.2918546451 4.2807094886 
4.1588146215 4.1588146215 4.1588146215 4.1588146215 3.9875336042 4.0055183285 4.0201070968 4.0321740035 4.042318168 
3.7967995342 3.8356650183 3.8672112905 3.8932795963 3.9151549899 3.9337570603 3.5984456061 3.657329819 3.7058097288 
3.7462412737 3.7803704271 3.809500442 3.8346145692 3.4073543651 3.4813459737 3.5438565869 3.5969754326 3.6424295543 
3.6816134988 3.7156421835 3.7454049075 4.7123889804 4.8004512023 4.6243267584 4.9155579264 4.7123889804 4.5092200343 
5.0674903122 4.8353719722 4.5894059886 4.3572876485 5.2659633393 5.0120975802 4.7123889804 4.4126803806 4.1588146215 
5.5125918794 5.2659633393 4.9155579264 4.5092200343 4.1588146215 3.9121860814 5.7885595667 5.6029703303 5.2659633393 
4.7123889804 4.1588146215 3.8218076305 3.6362183941 6.0560271438 5.9702140275 5.7885595667 5.2659633393 4.1588146215 
3.6362183941 3.4545639333 3.368750817 0.22715816343 0.49462574053 0.3129712797 0.77059342779 0.68021497688 0.49462574053 
1.0172219679 1.0172219679 1.0172219679 1.0172219679 1.2156949949 1.271087727 1.3676273807 1.5707963268 2.1243706857 
1.3676273807 1.447813335 1.5707963268 1.7739652728 2.1243706857 2.6469669131 1.4827341049 1.5707963268 1.6937793186 
1.8705049266 2.1243706857 2.4613776767 2.8286213739 1.5707963268 1.6588585487 1.7739652728 1.9258976586 2.1243706857 
2.3709992258 2.6469669131 2.9144344902 1.7563855631 1.8785697967 1.8563003522 2.0024758186 1.9913306621 1.9779583789 
2.1243706857 2.1243706857 2.1243706857 2.1243706857 2.2408671392 2.2510113037 2.2630782103 2.2776669786 2.295651703 
2.3494282469 2.3680303173 2.3899057108 2.4159740166 2.4475202889 2.486385773 2.448570738 2.4736848652 2.5028148801 
2.5369440334 2.5773755784 2.6258554882 2.6847397011 2.5377803997 2.5675431237 2.6015718084 2.6407557529 2.6862098746 
2.7393287203 2.8018393335 2.8758309421 1.6743954455 1.6743954455 1.7840462375 1.6743954455 1.7840462375 1.8974821136 
1.6743954455 1.7840462375 1.8974821136 2.0119052671 1.6743954455 1.7840462375 1.8974821136 2.0119052671 2.1243706857 
1.6743954455 1.7840462375 1.8974821136 2.0119052671 2.1243706857 2.232221744 1.6743954455 1.7840462375 1.8974821136 
2.0119052671 2.1243706857 2.232221744 2.3334263672 1.6743954455 1.7840462375 1.8974821136 2.0119052671 2.1243706857 
2.232221744 2.3334263672 2.426721652 1.4671972081 1.3575464161 1.4671972081 1.24411054 1.3575464161 1.4671972081 
1.1296873865 1.24411054 1.3575464161 1.4671972081 1.0172219679 1.1296873865 1.24411054 1.3575464161 1.4671972081 
0.90937090954 1.0172219679 1.1296873865 1.24411054 1.3575464161 1.4671972081 0.80816628637 0.90937090954 1.0172219679 
1.1296873865 1.24411054 1.3575464161 1.4671972081 0.71487100155 0.80816628637 0.90937090954 1.0172219679 1.1296873865 
1.24411054 1.3575464161 1.4671972081 0.60381225391 0.57404952988 0.69302191562 0.54002084522 0.66790778838 0.79216440667 
0.50083690068 0.63877777351 0.77356233629 0.90072551443 0.45538277901 0.60464862014 0.75168694275 0.89058134991 1.0172219679 
0.40226393329 0.56421707518 0.72561863695 0.87851444325 1.0172219679 1.139116835 0.33975332011 0.51573716537 0.69407236469 
0.86392567495 1.0172219679 1.1502619915 1.2630228569 0.26576171152 0.45685295248 0.6552068806 0.84594095064 1.0172219679 
1.1636342747 1.2852923014 1.3852070904 0.22715816343 0.3129712797 0.49462574053 0.49462574053 0.68021497688 0.77059342779 
1.0172219679 1.0172219679 1.0172219679 1.0172219679 2.1243706857 1.5707963268 1.3676273807 1.271087727 1.2156949949 
2.6469669131 2.1243706857 1.7739652728 1.5707963268 1.447813335 1.3676273807 2.8286213739 2.4613776767 2.1243706857 
1.8705049266 1.6937793186 1.5707963268 1.4827341049 2.9144344902 2.6469669131 2.3709992258 2.1243706857 1.9258976586 
1.7739652728 1.6588585487 1.5707963268 1.7563855631 1.8563003522 1.8785697967 1.9779583789 1.9913306621 2.0024758186 
2.1243706857 2.1243706857 2.1243706857 2.1243706857 2.295651703 2.2776669786 2.2630782103 2.2510113037 2.2408671392 
2.486385773 2.4475202889 2.4159740166 2.3899057108 2.3680303173 2.3494282469 2.6847397011 2.6258554882 2.5773755784 
2.5369440334 2.5028148801 2.4736848652 2.448570738 2.8758309421 2.8018393335 2.7393287203 2.6862098746 2.6407557529 
2.6015718084 2.5675431237 2.5377803997 5.8604937156 5.901393709 5.9723133995 5.9473927383 6.0216547488 6.0927478736 
5.9992719463 6.0767621038 6.1501452836 6.2190157008 6.0578962336 6.1383094565 6.2134963469 0 0.064169606361 
6.1241815303 6.206940195 6.2831853072 0.069688960264 0.13304002361 0.19043743361 6.1990255847 0 0.07624511221 
0.14487585072 0.20642320337 0.26153055843 0.3108719077 0 0.084159722458 0.15900377685 0.22528907359 0.28391336087 
0.3357925689 0.38179159818 0.42269159155 5.8604937156 5.9723133995 5.901393709 6.0927478736 6.0216547488 5.9473927383 
6.2190157008 6.1501452836 6.0767621038 5.9992719463 0.064169606361 0 6.2134963469 6.1383094565 6.0578962336 
0.19043743361 0.13304002361 0.069688960264 6.2831853072 6.206940195 6.1241815303 0.3108719077 0.26153055843 0.20642320337 
0.14487585072 0.07624511221 6.2831853072 6.1990255847 0.42269159155 0.38179159818 0.3357925689 0.28391336087 0.22528907359 
0.15900377685 0.084159722458 0 5.6793730533 5.7091357773 5.5901633916 5.743164462 5.6152775188 5.4910209005 
5.7823484065 5.6444075337 5.5096229709 5.3824597928 5.8278025282 5.678536687 5.5314983644 5.3926039573 5.2659633393 
5.8809213739 5.718968232 5.5575666702 5.4046708639 5.2659633393 5.1440684722 5.9434319871 5.7674481418 5.5891129425 
5.4192596322 5.2659633393 5.1329233157 5.0201624502 6.0174235957 5.8263323547 5.6279784266 5.4372443565 5.2659633393 
5.1195510325 4.9978930058 4.8979782167 1.3852070904 1.2852923014 1.2630228569 1.1636342747 1.1502619915 1.139116835 
1.0172219679 1.0172219679 1.0172219679 1.0172219679 0.84594095064 0.86392567495 0.87851444325 0.89058134991 0.90072551443 
0.6552068806 0.69407236469 0.72561863695 0.75168694275 0.77356233629 0.79216440667 0.45685295248 0.51573716537 0.56421707518 
0.60464862014 0.63877777351 0.66790778838 0.69302191562 0.26576171152 0.33975332011 0.40226393329 0.45538277901 0.50083690068 
0.54002084522 0.57404952988 0.60381225391 
_paraPhiHalf 1 1002 double
0 3.1415926536 0 3.1415926536 1.5707963268 1.5707963268 1.5707963268 1.5707963268 2.5880182947 
0.5535743589 2.5880182947 0.5535743589 0 0 0 0 3.1415926536 3.1415926536 
3.1415926536 3.1415926536 3.1415926536 0.17788134 0.38438696014 0.60631181711 0.82323535693 1.0172219679 1.1799687454 
1.3118704726 1.4175000338 1.5022335207 0.17788134 0.38438696014 0.60631181711 0.82323535693 1.0172219679 1.1799687454 
1.3118704726 1.4175000338 1.5022335207 0.093902416448 0.17615329733 0.2478725152 0.31035131605 0.36486382811 0.41257334776 
0.45449736604 0.4915044461 0.52432611754 0.093902416448 0.17615329733 0.2478725152 0.31035131605 0.36486382811 0.41257334776 
0.45449736604 0.4915044461 0.52432611754 2.9637113136 2.7572056934 2.5352808365 2.3183572967 2.1243706857 1.9616239082 
1.829722181 1.7240926197 1.6393591329 2.9637113136 2.7572056934 2.5352808365 2.3183572967 2.1243706857 1.9616239082 
1.829722181 1.7240926197 1.6393591329 3.0476902371 2.9654393563 2.8937201384 2.8312413375 2.7767288255 2.7290193058 
2.6870952876 2.6500882075 2.617266536 3.0476902371 2.9654393563 2.8937201384 2.8312413375 2.7767288255 2.7290193058 
2.6870952876 2.6500882075 2.617266536 0 0 0 0 3.1415926536 3.1415926536 
3.1415926536 3.1415926536 3.1415926536 0.17788134 0.38438696014 0.60631181711 0.82323535693 1.0172219679 1.1799687454 
1.3118704726 1.4175000338 1.5022335207 0.17788134 0.38438696014 0.60631181711 0.82323535693 1.0172219679 1.1799687454 
1.3118704726 1.4175000338 1.5022335207 0.093902416448 0.17615329733 0.2478725152 0.31035131605 0.36486382811 0.41257334776 
0.45449736604 0.4915044461 0.52432611754 0.093902416448 0.17615329733 0.2478725152 0.31035131605 0.36486382811 0.41257334776 
0.45449736604 0.4915044461 0.52432611754 2.9637113136 2.7572056934 2.5352808365 2.3183572967 2.1243706857 1.9616239082 
1.829722181 1.7240926197 1.6393591329 2.9637113136 2.7572056934 2.5352808365 2.3183572967 2.1243706857 1.9616239082 
1.829722181 1.7240926197 1.6393591329 3.0476902371 2.9654393563 2.8937201384 2.8312413375 2.7767288255 2.7290193058 
2.6870952876 2.6500882075 2.617266536 3.0476902371 2.9654393563 2.8937201384 2.8312413375 2.7767288255 2.7290193058 
2.6870952876 2.6500882075 2.617266536 1.5707963268 1.5707963268 1.5707963268 1.5707963268 1.5707963268 1.5707963268 
1.5707963268 1.5707963268 1.5707963268 1.6743954455 1.7840462375 1.8974821136 2.0119052671 2.1243706857 2.232221744 
2.3334263672 2.426721652 2.5115728246 1.4671972081 1.3575464161 1.24411054 1.1296873865 1.0172219679 0.90937090954 
0.80816628637 0.71487100155 0.63001982895 1.6743954455 1.7840462375 1.8974821136 2.0119052671 2.1243706857 2.232221744 
2.3334263672 2.426721652 2.5115728246 1.4671972081 1.3575464161 1.24411054 1.1296873865 1.0172219679 0.90937090954 
0.80816628637 0.71487100155 0.63001982895 1.5707963268 1.5707963268 1.5707963268 1.5707963268 1.5707963268 1.5707963268 
1.5707963268 1.5707963268 1.5707963268 1.6743954455 1.7840462375 1.8974821136 2.0119052671 2.1243706857 2.232221744 
2.3334263672 2.426721652 2.5115728246 1.4671972081 1.3575464161 1.24411054 1.1296873865 1.0172219679 0.90937090954 
0.80816628637 0.71487100155 0.63001982895 1.6743954455 1.7840462375 1.8974821136 2.0119052671 2.1243706857 2.232221744 
2.3334263672 2.426721652 2.5115728246 1.4671972081 1.3575464161 1.24411054 1.1296873865 1.0172219679 0.90937090954 
0.80816628637 0.71487100155 0.63001982895 2.6824132222 2.7864913217 2.8992382033 3.0186096618 3.1415926536 3.0186096618 
2.8992382033 2.7864913217 2.6824132222 0.45917943135 0.35510133185 0.2423544503 0.12298299178 0 0.12298299178 
0.2423544503 0.35510133185 0.45917943135 0.22715816343 0.49462574053 0.3129712797 0.77059342779 0.68021497688 0.49462574053 
1.0172219679 1.0172219679 1.0172219679 1.0172219679 1.2156949949 1.271087727 1.3676273807 1.5707963268 2.1243706857 
1.3676273807 1.447813335 1.5707963268 1.7739652728 2.1243706857 2.6469669131 1.4827341049 1.5707963268 1.6937793186 
1.8705049266 2.1243706857 2.4613776767 2.8286213739 1.5707963268 1.6588585487 1.7739652728 1.9258976586 2.1243706857 
2.3709992258 2.6469669131 2.9144344902 0.26576171152 0.33975332011 0.45685295248 0.40226393329 0.51573716537 0.6552068806 
0.45538277901 0.56421707518 0.69407236469 0.84594095064 0.50083690068 0.60464862014 0.72561863695 0.86392567495 1.0172219679 
0.54002084522 0.63877777351 0.75168694275 0.87851444325 1.0172219679 1.1636342747 0.57404952988 0.66790778838 0.77356233629 
0.89058134991 1.0172219679 1.1502619915 1.2852923014 0.60381225391 0.69302191562 0.79216440667 0.90072551443 1.0172219679 
1.139116835 1.2630228569 1.3852070904 0.71487100155 0.80816628637 0.80816628637 0.90937090954 0.90937090954 0.90937090954 
1.0172219679 1.0172219679 1.0172219679 1.0172219679 1.1296873865 1.1296873865 1.1296873865 1.1296873865 1.1296873865 
1.24411054 1.24411054 1.24411054 1.24411054 1.24411054 1.24411054 1.3575464161 1.3575464161 1.3575464161 
1.3575464161 1.3575464161 1.3575464161 1.3575464161 1.4671972081 1.4671972081 1.4671972081 1.4671972081 1.4671972081 
1.4671972081 1.4671972081 1.4671972081 1.6743954455 1.6743954455 1.7840462375 1.6743954455 1.7840462375 1.8974821136 
1.6743954455 1.7840462375 1.8974821136 2.0119052671 1.6743954455 1.7840462375 1.8974821136 2.0119052671 2.1243706857 
1.6743954455 1.7840462375 1.8974821136 2.0119052671 2.1243706857 2.232221744 1.6743954455 1.7840462375 1.8974821136 
2.0119052671 2.1243706857 2.232221744 2.3334263672 1.6743954455 1.7840462375 1.8974821136 2.0119052671 2.1243706857 
2.232221744 2.3334263672 2.426721652 1.7563855631 1.8785697967 1.8563003522 2.0024758186 1.9913306621 1.9779583789 
2.1243706857 2.1243706857 2.1243706857 2.1243706857 2.2408671392 2.2510113037 2.2630782103 2.2776669786 2.295651703 
2.3494282469 2.3680303173 2.3899057108 2.4159740166 2.4475202889 2.486385773 2.448570738 2.4736848652 2.5028148801 
2.5369440334 2.5773755784 2.6258554882 2.6847397011 2.5377803997 2.5675431237 2.6015718084 2.6407557529 2.6862098746 
2.7393287203 2.8018393335 2.8758309421 2.718901062 2.8307207459 2.7598010554 2.95115522 2.8800620952 2.8058000847 
3.0774230472 3.00855263 2.9351694502 2.8576792927 3.0774230472 3.1415926536 3.0719036933 2.9967168029 2.91630358 
2.95115522 3.00855263 3.0719036933 3.1415926536 3.0653475414 2.9825888767 2.8307207459 2.8800620952 2.9351694502 
2.9967168029 3.0653475414 3.1415926536 3.0574329311 2.718901062 2.7598010554 2.8058000847 2.8576792927 2.91630358 
2.9825888767 3.0574329311 3.1415926536 2.718901062 2.7598010554 2.8307207459 2.8058000847 2.8800620952 2.95115522 
2.8576792927 2.9351694502 3.00855263 3.0774230472 2.91630358 2.9967168029 3.0719036933 3.1415926536 3.0774230472 
2.9825888767 3.0653475414 3.1415926536 3.0719036933 3.00855263 2.95115522 3.0574329311 3.1415926536 3.0653475414 