# vtk DataFile Version 5.1
vtk output
ASCII
DATASET POLYDATA
POINTS 1002 float
21.6388 36.4041 14.4551 12.0563 32.0287 16.0343 23.2677 31.4102 10.7641 
15.278 26.3625 11.0877 15.2779 35.9796 9.92256 17.3642 32.289 7.32985 
19.2498 31.2825 18.2857 21.5595 26.9045 16.4023 9.35659 29.2707 11.2255 
24.4726 38.2807 9.28425 10.022 25.9531 19.1927 27.5213 34.3835 15.8664 
20.8192 36.0749 14.469 19.8389 35.7265 14.6043 18.8435 35.2684 14.7764 
17.9369 34.6606 14.8615 17.0237 34.0255 14.8958 15.9232 33.5479 15.0652 
14.6683 33.2418 15.4111 13.516 32.9427 15.7576 12.6538 32.5289 15.9604 
21.0237 36.4874 14.118 20.298 36.5438 13.7412 19.515 36.6376 13.3312 
18.747 36.7522 12.8692 18.073 36.7656 12.3218 17.4856 36.6586 11.7388 
16.8797 36.5506 11.2217 16.2357 36.4598 10.7815 15.6733 36.2813 10.3565 
21.7051 36.0192 14.7609 21.6863 35.5224 15.1147 21.5688 34.9976 15.509 
21.33 34.4871 15.9235 20.9748 33.9486 16.4132 20.5736 33.4143 17.0319 
20.2034 32.9761 17.653 19.8731 32.5611 18.0743 19.5558 32.0012 18.2522 
21.9706 36.8239 14.3085 22.2227 37.2737 14.104 22.5097 37.7128 13.7241 
22.9734 38.0646 13.1696 23.5534 38.3271 12.5912 24.0156 38.5886 12.0421 
24.2629 38.8421 11.3884 24.3924 38.9261 10.5928 24.4731 38.7223 9.83284 
22.3862 36.5701 14.7387 23.0504 36.7896 15.1455 23.7229 37.0587 15.6508 
24.5824 37.3677 16.1845 25.618 37.6421 16.6406 26.5589 37.6399 16.8861 
27.196 37.1039 16.8301 27.5384 36.1228 16.5311 27.6409 35.1082 16.164 
12.1002 32.5068 15.6442 12.1141 33.0935 15.236 12.2517 33.6578 14.7177 
12.7029 33.9873 13.9526 13.392 34.0883 13.0098 14.003 34.2606 12.1929 
14.3913 34.6893 11.637 14.6796 35.2257 11.1525 14.9781 35.6684 10.5658 
12.3695 31.9148 16.3777 12.9314 31.715 16.6192 13.774 31.4079 16.7303 
14.6399 31.1671 16.8703 15.2915 31.1941 17.2235 15.9308 31.3977 17.6714 
16.8569 31.5064 17.9227 17.9137 31.4469 17.9616 18.7391 31.3437 18.0337 
11.6122 31.7536 15.7894 11.119 31.4913 15.4907 10.5052 31.2724 15.1665 
9.93837 30.9862 14.7662 9.65864 30.5367 14.2219 9.58329 30.0631 13.5511 
9.4446 29.7692 12.8381 9.24517 29.6334 12.1759 9.19185 29.4934 11.6347 
11.6583 31.4308 16.3236 11.176 30.7838 16.6782 10.7102 30.0398 17.0387 
10.3597 29.2038 17.3214 10.0396 28.403 17.5808 9.64609 27.7219 17.9952 
9.32224 27.1073 18.5874 9.28897 26.5502 19.1191 9.56679 26.1479 19.3369 
22.6663 30.9094 10.7947 22.0167 30.3244 10.825 21.296 29.7177 10.8299 
20.4591 29.1672 10.8475 19.5094 28.6823 10.9454 18.5196 28.2244 11.104 
17.5762 27.7639 11.2123 16.7295 27.28 11.2062 15.9771 26.7878 11.1334 
22.8764 31.5674 10.4341 22.3507 31.7363 10.1002 21.7814 31.821 9.65428 
21.2169 31.8366 9.10143 20.5909 31.9205 8.6165 19.8838 32.1118 8.3007 
19.2043 32.2807 8.04337 18.6056 32.3356 7.75136 18.0136 32.3156 7.48718 
23.186 30.997 11.163 23.0275 30.6014 11.6732 22.88 30.1833 12.2885 
22.87 29.5958 12.863 22.9351 28.831 13.3005 22.8297 28.1398 13.7525 
22.4845 27.7063 14.3917 22.0933 27.433 15.1447 21.8 27.1707 15.8374 
23.6696 31.9429 10.4926 24.0816 32.5065 10.1757 24.4142 33.2022 9.93409 
24.5777 34.0912 9.89599 24.6187 35.0294 9.97012 24.7194 35.793 9.88453 
24.925 36.4038 9.56682 25.0303 37.0549 9.25226 24.8613 37.7488 9.15911 
23.8041 31.6515 11.0533 24.3286 31.9516 11.4927 24.8887 32.2686 11.9584 
25.5176 32.6012 12.3276 26.1424 33.02 12.7145 26.6351 33.5076 13.3308 
26.9793 33.8835 14.1181 27.2518 34.0561 14.8388 27.4574 34.1673 15.4034 
15.3005 26.7212 10.7301 15.3327 27.2604 10.4282 15.3977 27.9455 10.1204 
15.518 28.6553 9.73932 15.711 29.3062 9.30434 15.983 29.9574 8.87151 
16.3164 30.6545 8.43518 16.6756 31.3004 7.99496 17.0307 31.8214 7.61315 
15.7437 26.3085 11.4981 16.3605 26.2467 11.9348 17.0932 26.1798 12.4086 
17.8607 26.0952 12.9211 18.6578 25.9851 13.4471 19.501 25.9371 13.9921 
20.2744 26.0636 14.5881 20.8451 26.3349 15.2209 21.2394 26.6324 15.8387 
14.5695 26.1791 10.8297 13.7286 26.0553 10.5815 12.6832 26.0109 10.3951 
11.5083 26.0022 10.3209 10.4538 26.0691 10.4104 9.75673 26.382 10.6658 
9.44728 27.0071 10.9697 9.36974 27.7973 11.1697 9.35827 28.5775 11.2297 
14.7587 26.0491 11.4377 14.0527 25.9285 12.0631 13.1998 25.9436 12.9229 
12.3366 25.977 13.8451 11.5882 26.0126 14.7013 10.9943 26.0878 15.5346 
10.5548 26.1266 16.4547 10.2636 26.0474 17.4662 10.0958 25.9383 18.4358 
15.296 35.8952 9.23251 15.3522 35.7785 8.55147 15.4049 35.6487 7.96858 
15.4922 35.4248 7.4885 15.6936 35.0005 7.12011 16.0076 34.3858 6.93282 
16.3735 33.7062 6.92975 16.7498 33.096 7.01968 17.0958 32.6258 7.14929 
14.747 35.4437 9.87944 14.0593 34.9563 9.82067 13.1423 34.6309 9.74086 
12.1514 34.3139 9.69444 11.3596 33.7084 9.75195 10.8114 32.807 9.90995 
10.3558 31.8574 10.1333 9.94618 30.967 10.4388 9.62272 30.0985 10.8289 
15.7781 36.4609 9.57648 16.3328 36.9495 9.30539 16.9757 37.457 9.1155 
17.7741 37.9054 8.91231 18.8234 38.0968 8.66366 20.1004 38.0159 8.53376 
21.4125 37.9548 8.66232 22.5933 38.0955 8.93541 23.6118 38.2767 9.15646 
16.4174 31.9959 7.40993 15.3785 31.7359 7.54321 14.3243 31.4399 7.72237 
13.2836 31.0356 7.98967 12.3131 30.5669 8.39135 11.5346 30.1621 8.88691 
10.9481 29.8804 9.41677 10.4024 29.6767 9.99202 9.84015 29.4846 10.615 
18.1308 32.8808 7.14992 18.9055 33.6605 6.93345 19.6339 34.4394 6.6861 
20.3313 34.9874 6.58931 21.0279 35.3813 6.87882 21.7077 35.9025 7.48832 
22.3844 36.5872 8.07922 23.1095 37.2489 8.48941 23.8465 37.8029 8.84548 
19.3237 30.7351 18.5068 19.4964 30.1161 18.7183 19.8428 29.4857 18.8307 
20.2591 28.8798 18.8254 20.5908 28.308 18.7648 20.8663 27.7805 18.6207 
21.1728 27.342 18.2712 21.4393 27.057 17.7089 21.5609 26.9334 17.0545 
18.6439 30.5141 18.1075 17.835 29.7113 18.0276 16.7572 28.9244 18.0598 
15.5147 28.2292 18.239 14.3068 27.7172 18.6713 13.1994 27.3411 19.3276 
12.1591 26.9299 19.9028 11.2419 26.4651 20.0783 10.5353 26.1081 19.7933 
19.8556 31.7561 18.7 20.651 32.252 19.1014 21.736 32.5999 19.1444 
22.8723 32.7325 18.7104 23.7717 32.8502 18.0916 24.5634 33.1797 17.5862 
25.5012 33.6516 17.1736 26.4554 34.0418 16.7475 27.1435 34.2664 16.3074 
21.0476 26.4984 16.5766 20.2862 26.1577 16.7596 19.1314 25.9696 16.9803 
17.5958 25.9439 17.2467 15.9255 25.9618 17.5639 14.3942 25.927 17.9693 
13.0748 25.8815 18.4667 11.9118 25.8802 18.935 10.8851 25.9075 19.2022 
22.0422 27.3841 16.6115 22.5687 28.0304 16.7542 23.0944 28.844 16.7532 
23.6023 29.6828 16.6286 24.1566 30.4629 16.5047 24.8219 31.3168 16.4272 
25.5834 32.2836 16.3062 26.3584 33.1496 16.1128 27.0331 33.803 15.9422 
8.91584 28.6468 11.7907 8.37861 28.1308 12.2928 7.69245 27.8029 12.868 
6.96334 27.5066 13.75 6.54419 27.0439 14.8915 6.75381 26.519 15.9759 
7.49946 26.1735 16.8858 8.41064 26.0302 17.7423 9.25335 25.9729 18.5547 
25.2457 38.4427 9.69067 25.8772 38.4242 10.2133 26.3593 38.1713 10.9185 
26.8443 37.8107 11.7804 27.443 37.4484 12.6622 27.9891 36.9508 13.4934 
28.231 36.221 14.2949 28.1493 35.4511 15.0048 27.8833 34.8448 15.5214 
20.1186 36.1893 14.1677 19.3685 36.2697 13.8279 19.1139 35.8447 14.313 
18.5967 36.3501 13.4369 18.3884 35.9217 13.9712 18.1751 35.3227 14.4317 
17.8525 36.3709 12.9402 17.6329 35.947 13.5517 17.4946 35.3463 14.0438 
17.3308 34.6237 14.4501 17.2156 36.2584 12.3366 16.9245 35.8242 12.9816 
16.7623 35.2766 13.5763 16.6401 34.6072 14.0607 16.3579 33.9866 14.5263 
16.6535 36.1019 11.765 16.3665 35.5715 12.3317 16.1243 35.0254 12.9632 
15.8969 34.5131 13.623 15.5564 34.0348 14.2411 15.0987 33.6127 14.8331 
16.058 36.0015 11.3288 15.8563 35.3768 11.8106 15.6215 34.7401 12.3456 
15.2627 34.3112 13.0754 14.7473 34.0558 13.9068 14.2052 33.7652 14.6452 
13.7808 33.3751 15.2504 15.4595 35.8865 10.9619 15.2677 35.3008 11.4654 
15.0615 34.6394 11.9188 14.6791 34.1922 12.5616 14.0469 34.0424 13.4637 
13.3879 33.899 14.3612 12.9578 33.5313 15.0388 12.7555 33.0232 15.54 
21.3151 36.8645 13.8684 21.5395 37.3171 13.5357 20.5174 36.9396 13.3857 
21.8658 37.766 13.0673 20.6899 37.4592 12.9746 19.6528 37.1131 12.8925 
22.4208 38.0326 12.5319 21.0138 37.891 12.5043 19.7475 37.6897 12.444 
18.8456 37.2616 12.3563 23.0371 38.1064 11.9914 21.5691 37.9705 11.9567 
19.9823 38.0445 11.9275 18.8689 37.7982 11.835 18.1728 37.2214 11.7408 
23.4326 38.1942 11.3445 22.1261 37.8344 11.2377 20.4196 38.0027 11.1885 
18.9724 38.1037 11.169 18.1414 37.6833 11.1185 17.5521 37.0642 11.1161 
23.5723 38.369 10.5362 22.4419 37.8468 10.3456 20.8834 37.8566 10.2062 
19.2726 38.1409 10.244 18.1522 38.0213 10.3455 17.4854 37.4768 10.4244 
16.8849 36.9249 10.5579 23.6049 38.45 9.74081 22.5478 38.0276 9.50679 
21.2085 37.8836 9.26654 19.6958 38.0933 9.25176 18.3901 38.1678 9.45217 
17.5013 37.8033 9.66016 16.8536 37.251 9.82639 16.2496 36.7535 10.0517 
22.889 37.8626 8.65677 22.1254 37.3157 8.26094 21.7731 37.8197 8.40855 
21.4044 36.5987 7.75738 20.988 37.3017 7.99666 20.5533 37.79 8.17267 
20.7232 35.9434 7.03284 20.287 36.5953 7.39947 19.819 37.2562 7.74817 
19.3258 37.7917 8.11107 20.0709 35.5485 6.41946 19.669 36.0806 6.62445 
19.2201 36.614 7.09727 18.7274 37.1908 7.65606 18.2016 37.682 8.2535 
19.4337 35.1304 6.30674 19.0987 35.7555 6.18901 18.6994 36.2139 6.46521 
18.2379 36.615 7.06489 17.7095 37.0472 7.77396 17.2374 37.3717 8.45798 
18.7323 34.356 6.58813 18.4492 35.1197 6.34044 18.1031 35.7453 6.34502 
17.6993 36.1584 6.70978 17.2265 36.475 7.331 16.7642 36.751 8.00044 
16.4459 36.9203 8.64951 17.9255 33.4015 6.91484 17.6332 34.0846 6.72787 
17.2973 34.8148 6.64048 16.9404 35.4267 6.76686 16.5707 35.8512 7.15009 
16.2315 36.1225 7.67653 15.9724 36.2962 8.25304 15.8183 36.4087 8.89295 
14.764 35.3211 9.12323 14.718 35.2056 8.3912 13.9984 34.8634 9.00679 
14.5885 35.0488 7.77883 13.8088 34.7722 8.22175 12.9919 34.572 8.91408 
14.5453 34.6783 7.31445 13.5992 34.5257 7.57566 12.7987 34.4206 8.1562 
12.0247 34.1671 8.96236 14.7377 34.0445 7.05207 13.628 33.9684 7.16302 
12.7693 33.9929 7.60545 12.0345 33.8113 8.39045 11.3539 33.3647 9.19838 
15.1097 33.3332 7.02172 13.9386 33.2297 7.05776 13.0122 33.2877 7.36361 
12.266 33.1751 8.07024 11.5673 32.7851 8.85872 10.8999 32.3036 9.50391 
[...]
POINT_DATA 1002
FIELD FieldData 4
_paraPhi 1 1002 double
6.2831853072 3.1415926536 6.2831853072 3.1415926536 4.7123889804 4.7123889804 1.5707963268 1.5707963268 3.6951670125 
5.7296109483 2.5880182947 0.5535743589 6.2831853072 6.2831853072 6.2831853072 6.2831853072 3.1415926536 3.1415926536 
3.1415926536 3.1415926536 3.1415926536 6.1053039672 5.898798347 5.6768734901 5.4599499503 5.2659633393 5.1032165617 
4.9713148346 4.8656852733 4.7809517865 0.17788134 0.38438696014 0.60631181711 0.82323535693 1.0172219679 1.1799687454 
1.3118704726 1.4175000338 1.5022335207 6.1892828907 6.1070320098 6.035312792 5.9728339911 5.9183214791 5.8706119594 
5.8286879411 5.7916808611 5.7588591896 0.093902416448 0.17615329733 0.2478725152 0.31035131605 0.36486382811 0.41257334776 
0.45449736604 0.4915044461 0.52432611754 3.3194739936 3.5259796137 3.7479044707 3.9648280105 4.1588146215 4.321561399 
4.4534631262 4.5590926874 4.6438261743 2.9637113136 2.7572056934 2.5352808365 2.3183572967 2.1243706857 1.9616239082 
1.829722181 1.7240926197 1.6393591329 3.23549507 3.3177459509 3.3894651688 3.4519439696 3.5064564817 3.5541660013 
3.5960900196 3.6330970997 3.6659187711 3.0476902371 2.9654393563 2.8937201384 2.8312413375 2.7767288255 2.7290193058 
2.6870952876 2.6500882075 2.617266536 6.2831853072 6.2831853072 6.2831853072 6.2831853072 3.1415926536 3.1415926536 
3.1415926536 3.1415926536 3.1415926536 6.1053039672 5.898798347 5.6768734901 5.4599499503 5.2659633393 5.1032165617 
4.9713148346 4.8656852733 4.7809517865 0.17788134 0.38438696014 0.60631181711 0.82323535693 1.0172219679 1.1799687454 
1.3118704726 1.4175000338 1.5022335207 6.1892828907 6.1070320098 6.035312792 5.9728339911 5.9183214791 5.8706119594 
5.8286879411 5.7916808611 5.7588591896 0.093902416448 0.17615329733 0.2478725152 0.31035131605 0.36486382811 0.41257334776 
0.45449736604 0.4915044461 0.52432611754 3.3194739936 3.5259796137 3.7479044707 3.9648280105 4.1588146215 4.321561399 
4.4534631262 4.5590926874 4.6438261743 2.9637113136 2.7572056934 2.5352808365 2.3183572967 2.1243706857 1.9616239082 
1.829722181 1.7240926197 1.6393591329 3.23549507 3.3177459509 3.3894651688 3.4519439696 3.5064564817 3.5541660013 
3.5960900196 3.6330970997 3.6659187711 3.0476902371 2.9654393563 2.8937201384 2.8312413375 2.7767288255 2.7290193058 
2.6870952876 2.6500882075 2.617266536 4.7123889804 4.7123889804 4.7123889804 4.7123889804 4.7123889804 4.7123889804 
4.7123889804 4.7123889804 4.7123889804 4.6087898617 4.4991390697 4.3857031936 4.2712800401 4.1588146215 4.0509635631 
3.94975894 3.8564636551 3.7716124825 4.8159880991 4.9256388911 5.0390747672 5.1534979207 5.2659633393 5.3738143976 
5.4750190208 5.5683143056 5.6531654782 4.6087898617 4.4991390697 4.3857031936 4.2712800401 4.1588146215 4.0509635631 
3.94975894 3.8564636551 3.7716124825 4.8159880991 4.9256388911 5.0390747672 5.1534979207 5.2659633393 5.3738143976 
5.4750190208 5.5683143056 5.6531654782 1.5707963268 1.5707963268 1.5707963268 1.5707963268 1.5707963268 1.5707963268 
1.5707963268 1.5707963268 1.5707963268 1.6743954455 1.7840462375 1.8974821136 2.0119052671 2.1243706857 2.232221744 
2.3334263672 2.426721652 2.5115728246 1.4671972081 1.3575464161 1.24411054 1.1296873865 1.0172219679 0.90937090954 
0.80816628637 0.71487100155 0.63001982895 1.6743954455 1.7840462375 1.8974821136 2.0119052671 2.1243706857 2.232221744 
2.3334263672 2.426721652 2.5115728246 1.4671972081 1.3575464161 1.24411054 1.1296873865 1.0172219679 0.90937090954 
0.80816628637 0.71487100155 0.63001982895 3.6007720849 3.4966939854 3.3839471039 3.2645756454 3.1415926536 3.0186096618 
2.8992382033 2.7864913217 2.6824132222 5.8240058758 5.9280839753 6.0408308569 6.1602023154 6.2831853072 0.12298299178 
0.2423544503 0.35510133185 0.45917943135 6.0560271438 5.7885595667 5.9702140275 5.5125918794 5.6029703303 5.7885595667 
5.2659633393 5.2659633393 5.2659633393 5.2659633393 5.0674903122 5.0120975802 4.9155579264 4.7123889804 4.1588146215 
4.9155579264 4.8353719722 4.7123889804 4.5092200343 4.1588146215 3.6362183941 4.8004512023 4.7123889804 4.5894059886 
4.4126803806 4.1588146215 3.8218076305 3.4545639333 4.7123889804 4.6243267584 4.5092200343 4.3572876485 4.1588146215 
3.9121860814 3.6362183941 3.368750817 6.0174235957 5.9434319871 5.8263323547 5.8809213739 5.7674481418 5.6279784266 
5.8278025282 5.718968232 5.5891129425 5.4372443565 5.7823484065 5.678536687 5.5575666702 5.4192596322 5.2659633393 
5.743164462 5.6444075337 5.5314983644 5.4046708639 5.2659633393 5.1195510325 5.7091357773 5.6152775188 5.5096229709 
5.3926039573 5.2659633393 5.1329233157 4.9978930058 5.6793730533 5.5901633916 5.4910209005 5.3824597928 5.2659633393 
5.1440684722 5.0201624502 4.8979782167 5.5683143056 5.4750190208 5.4750190208 5.3738143976 5.3738143976 5.3738143976 
5.2659633393 5.2659633393 5.2659633393 5.2659633393 5.1534979207 5.1534979207 5.1534979207 5.1534979207 5.1534979207 
5.0390747672 5.0390747672 5.0390747672 5.0390747672 5.0390747672 5.0390747672 4.9256388911 4.9256388911 4.9256388911 
4.9256388911 4.9256388911 4.9256388911 4.9256388911 4.8159880991 4.8159880991 4.8159880991 4.8159880991 4.8159880991 
4.8159880991 4.8159880991 4.8159880991 4.6087898617 4.6087898617 4.4991390697 4.6087898617 4.4991390697 4.3857031936 
4.6087898617 4.4991390697 4.3857031936 4.2712800401 4.6087898617 4.4991390697 4.3857031936 4.2712800401 4.1588146215 
4.6087898617 4.4991390697 4.3857031936 4.2712800401 4.1588146215 4.0509635631 4.6087898617 4.4991390697 4.3857031936 
4.2712800401 4.1588146215 4.0509635631 3.94975894 4.6087898617 4.4991390697 4.3857031936 4.2712800401 4.1588146215 
4.0509635631 3.94975894 3.8564636551 4.526799744 4.4046155105 4.426884955 4.2807094886 4.2918546451 4.3052269283 
4.1588146215 4.1588146215 4.1588146215 4.1588146215 4.042318168 4.0321740035 4.0201070968 4.0055183285 3.9875336042 
3.9337570603 3.9151549899 3.8932795963 3.8672112905 3.8356650183 3.7967995342 3.8346145692 3.809500442 3.7803704271 
3.7462412737 3.7058097288 3.657329819 3.5984456061 3.7454049075 3.7156421835 3.6816134988 3.6424295543 3.5969754326 
3.5438565869 3.4813459737 3.4073543651 3.5642842451 3.4524645613 3.5233842518 3.3320300872 3.403123212 3.4773852225 
3.20576226 3.2746326772 3.348015857 3.4255060145 3.0774230472 3.1415926536 3.2112816139 3.2864685043 3.3668817272 
2.95115522 3.00855263 3.0719036933 3.1415926536 3.2178377658 3.3005964304 2.8307207459 2.8800620952 2.9351694502 
2.9967168029 3.0653475414 3.1415926536 3.225752376 2.718901062 2.7598010554 2.8058000847 2.8576792927 2.91630358 
2.9825888767 3.0574329311 3.1415926536 3.5642842451 3.5233842518 3.4524645613 3.4773852225 3.403123212 3.3320300872 
3.4255060145 3.348015857 3.2746326772 3.20576226 3.3668817272 3.2864685043 3.2112816139 3.1415926536 3.0774230472 
3.3005964304 3.2178377658 3.1415926536 3.0719036933 3.00855263 2.95115522 3.225752376 3.1415926536 3.0653475414 
2.9967168029 2.9351694502 2.8800620952 2.8307207459 3.1415926536 3.0574329311 2.9825888767 2.91630358 2.8576792927 
2.8058000847 2.7598010554 2.718901062 4.526799744 4.426884955 4.4046155105 4.3052269283 4.2918546451 4.2807094886 
4.1588146215 4.1588146215 4.1588146215 4.1588146215 3.9875336042 4.0055183285 4.0201070968 4.0321740035 4.042318168 
3.7967995342 3.8356650183 3.8672112905 3.8932795963 3.9151549899 3.9337570603 3.5984456061 3.657329819 3.7058097288 
3.7462412737 3.7803704271 3.809500442 3.8346145692 3.4073543651 3.4813459737 3.5438565869 3.5969754326 3.6424295543 
3.6816134988 3.7156421835 3.7454049075 4.7123889804 4.8004512023 4.6243267584 4.9155579264 4.7123889804 4.5092200343 
5.0674903122 4.8353719722 4.5894059886 4.3572876485 5.2659633393 5.0120975802 4.7123889804 4.4126803806 4.1588146215 
5.5125918794 5.2659633393 4.9155579264 4.5092200343 4.1588146215 3.9121860814 5.7885595667 5.6029703303 5.2659633393 
4.7123889804 4.1588146215 3.8218076305 3.6362183941 6.0560271438 5.9702140275 5.7885595667 5.2659633393 4.1588146215 
3.6362183941 3.4545639333 3.368750817 0.22715816343 0.49462574053 0.3129712797 0.77059342779 0.68021497688 0.49462574053 
1.0172219679 1.0172219679 1.0172219679 1.0172219679 1.2156949949 1.271087727 1.3676273807 1.5707963268 2.1243706857 
1.3676273807 1.447813335 1.5707963268 1.7739652728 2.1243706857 2.6469669131 1.4827341049 1.5707963268 1.6937793186 
1.8705049266 2.1243706857 2.4613776767 2.8286213739 1.5707963268 1.6588585487 1.7739652728 1.9258976586 2.1243706857 
2.3709992258 2.6469669131 2.9144344902 1.7563855631 1.8785697967 1.8563003522 2.0024758186 1.9913306621 1.9779583789 
2.1243706857 2.1243706857 2.1243706857 2.1243706857 2.2408671392 2.2510113037 2.2630782103 2.2776669786 2.295651703 
2.3494282469 2.3680303173 2.3899057108 2.4159740166 2.4475202889 2.486385773 2.448570738 2.4736848652 2.5028148801 
2.5369440334 2.5773755784 2.6258554882 2.6847397011 2.5377803997 2.5675431237 2.6015718084 2.6407557529 2.6862098746 
2.7393287203 2.8018393335 2.8758309421 1.6743954455 1.6743954455 1.7840462375 1.6743954455 1.7840462375 1.8974821136 
1.6743954455 1.7840462375 1.8974821136 2.0119052671 1.6743954455 1.7840462375 1.8974821136 2.0119052671 2.1243706857 
1.6743954455 1.7840462375 1.8974821136 2.0119052671 2.1243706857 2.232221744 1.6743954455 1.7840462375 1.8974821136 
2.0119052671 2.1243706857 2.232221744 2.3334263672 1.6743954455 1.7840462375 1.8974821136 2.0119052671 2.1243706857 
2.232221744 2.3334263672 2.426721652 1.4671972081 1.3575464161 1.4671972081 1.24411054 1.3575464161 1.4671972081 
1.1296873865 1.24411054 1.3575464161 1.4671972081 1.0172219679 1.1296873865 1.24411054 1.3575464161 1.4671972081 
0.90937090954 1.0172219679 1.1296873865 1.24411054 1.3575464161 1.4671972081 0.80816628637 0.90937090954 1.0172219679 
1.1296873865 1.24411054 1.3575464161 1.4671972081 0.71487100155 0.80816628637 0.90937090954 1.0172219679 1.1296873865 
1.24411054 1.3575464161 1.4671972081 0.60381225391 0.57404952988 0.69302191562 0.54002084522 0.66790778838 0.79216440667 
0.50083690068 0.63877777351 0.77356233629 0.90072551443 0.45538277901 0.60464862014 0.75168694275 0.89058134991 1.0172219679 
0.40226393329 0.56421707518 0.72561863695 0.87851444325 1.0172219679 1.139116835 0.33975332011 0.51573716537 0.69407236469 
0.86392567495 1.0172219679 1.1502619915 1.2630228569 0.26576171152 0.45685295248 0.6552068806 0.84594095064 1.0172219679 
1.1636342747 1.2852923014 1.3852070904 0.22715816343 0.3129712797 0.49462574053 0.49462574053 0.68021497688 0.77059342779 
1.0172219679 1.0172219679 1.0172219679 1.0172219679 2.1243706857 1.5707963268 1.3676273807 1.271087727 1.2156949949 
2.6469669131 2.1243706857 1.7739652728 1.5707963268 1.447813335 1.3676273807 2.8286213739 2.4613776767 2.1243706857 
1.8705049266 1.6937793186 1.5707963268 1.4827341049 2.9144344902 2.6469669131 2.3709992258 2.1243706857 1.9258976586 
1.7739652728 1.6588585487 1.5707963268 1.7563855631 1.8563003522 1.8785697967 1.9779583789 1.9913306621 2.0024758186 
2.1243706857 2.1243706857 2.1243706857 2.1243706857 2.295651703 2.2776669786 2.2630782103 2.2510113037 2.2408671392 
2.486385773 2.4475202889 2.4159740166 2.3899057108 2.3680303173 2.3494282469 2.6847397011 2.6258554882 2.5773755784 
2.5369440334 2.5028148801 2.4736848652 2.448570738 2.8758309421 2.8018393335 2.7393287203 2.6862098746 2.6407557529 
2.6015718084 2.5675431237 2.5377803997 5.8604937156 5.901393709 5.9723133995 5.9473927383 6.0216547488 6.0927478736 
5.9992719463 6.0767621038 6.1501452836 6.2190157008 6.0578962336 6.1383094565 6.2134963469 0 0.064169606361 
6.1241815303 6.206940195 6.2831853072 0.069688960264 0.13304002361 0.19043743361 6.1990255847 0 0.07624511221 
0.14487585072 0.20642320337 0.26153055843 0.3108719077 0 0.084159722458 0.15900377685 0.22528907359 0.28391336087 
0.3357925689 0.38179159818 0.42269159155 5.8604937156 5.9723133995 5.901393709 6.0927478736 6.0216547488 5.9473927383 
6.2190157008 6.1501452836 6.0767621038 5.9992719463 0.064169606361 0 6.2134963469 6.1383094565 6.0578962336 
0.19043743361 0.13304002361 0.069688960264 6.2831853072 6.206940195 6.1241815303 0.3108719077 0.26153055843 0.20642320337 
0.14487585072 0.07624511221 6.2831853072 6.1990255847 0.42269159155 0.38179159818 0.3357925689 0.28391336087 0.22528907359 
0.15900377685 0.084159722458 0 5.6793730533 5.7091357773 5.5901633916 5.743164462 5.6152775188 5.4910209005 
5.7823484065 5.6444075337 5.5096229709 5.3824597928 5.8278025282 5.678536687 5.5314983644 5.3926039573 5.2659633393 
5.8809213739 5.718968232 5.5575666702 5.4046708639 5.2659633393 5.1440684722 5.9434319871 5.7674481418 5.5891129425 
5.4192596322 5.2659633393 5.1329233157 5.0201624502 6.0174235957 5.8263323547 5.6279784266 5.4372443565 5.2659633393 
5.1195510325 4.9978930058 4.8979782167 1.3852070904 1.2852923014 1.2630228569 1.1636342747 1.1502619915 1.139116835 
1.0172219679 1.0172219679 1.0172219679 1.0172219679 0.84594095064 0.86392567495 0.87851444325 0.89058134991 0.90072551443 
0.6552068806 0.69407236469 0.72561863695 0.75168694275 0.77356233629 0.79216440667 0.45685295248 0.51573716537 0.56421707518 
0.60464862014 0.63877777351 0.66790778838 0.69302191562 0.26576171152 0.33975332011 0.40226393329 0.45538277901 0.50083690068 
0.54002084522 0.57404952988 0.60381225391 
_paraPhiHalf 1 1002 double
0 3.1415926536 0 3.1415926536 1.5707963268 1.5707963268 1.5707963268 1.5707963268 2.5880182947 
0.5535743589 2.5880182947 0.5535743589 0 0 0 0 3.1415926536 3.1415926536 
3.1415926536 3.1415926536 3.1415926536 0.17788134 0.38438696014 0.60631181711 0.82323535693 1.0172219679 1.1799687454 
1.3118704726 1.4175000338 1.5022335207 0.17788134 0.38438696014 0.60631181711 0.82323535693 1.0172219679 1.1799687454 
1.3118704726 1.4175000338 1.5022335207 0.093902416448 0.17615329733 0.2478725152 0.31035131605 0.36486382811 0.41257334776 
0.45449736604 0.4915044461 0.52432611754 0.093902416448 0.17615329733 0.2478725152 0.31035131605 0.36486382811 0.41257334776 
0.45449736604 0.4915044461 0.52432611754 2.9637113136 2.7572056934 2.5352808365 2.3183572967 2.1243706857 1.9616239082 
1.829722181 1.7240926197 1.6393591329 2.9637113136 2.7572056934 2.5352808365 2.3183572967 2.1243706857 1.9616239082 
1.829722181 1.7240926197 1.6393591329 3.0476902371 2.9654393563 2.8937201384 2.8312413375 2.7767288255 2.7290193058 
2.6870952876 2.6500882075 2.617266536 3.0476902371 2.9654393563 2.8937201384 2.8312413375 2.7767288255 2.7290193058 
2.6870952876 2.6500882075 2.617266536 0 0 0 0 3.1415926536 3.1415926536 
3.1415926536 3.1415926536 3.1415926536 0.17788134 0.38438696014 0.60631181711 0.82323535693 1.0172219679 1.1799687454 
1.3118704726 1.4175000338 1.5022335207 0.17788134 0.38438696014 0.60631181711 0.82323535693 1.0172219679 1.1799687454 
1.3118704726 1.4175000338 1.5022335207 0.093902416448 0.17615329733 0.2478725152 0.31035131605 0.36486382811 0.41257334776 
0.45449736604 0.4915044461 0.52432611754 0.093902416448 0.17615329733 0.2478725152 0.31035131605 0.36486382811 0.41257334776 
0.45449736604 0.4915044461 0.52432611754 2.9637113136 2.7572056934 2.5352808365 2.3183572967 2.1243706857 1.9616239082 
1.829722181 1.7240926197 1.6393591329 2.9637113136 2.7572056934 2.5352808365 2.3183572967 2.1243706857 1.9616239082 
1.829722181 1.7240926197 1.6393591329 3.0476902371 2.9654393563 2.8937201384 2.8312413375 2.7767288255 2.7290193058 
2.6870952876 2.6500882075 2.617266536 3.0476902371 2.9654393563 2.8937201384 2.8312413375 2.7767288255 2.7290193058 
2.6870952876 2.6500882075 2.617266536 1.5707963268 1.5707963268 1.5707963268 1.5707963268 1.5707963268 1.5707963268 
1.5707963268 1.5707963268 1.5707963268 1.6743954455 1.7840462375 1.8974821136 2.0119052671 2.1243706857 2.232221744 
2.3334263672 2.426721652 2.5115728246 1.4671972081 1.3575464161 1.24411054 1.1296873865 1.0172219679 0.90937090954 
0.80816628637 0.71487100155 0.63001982895 1.6743954455 1.7840462375 1.8974821136 2.0119052671 2.1243706857 2.232221744 
2.3334263672 2.426721652 2.5115728246 1.4671972081 1.3575464161 1.24411054 1.1296873865 1.0172219679 0.90937090954 
0.80816628637 0.71487100155 0.63001982895 1.5707963268 1.5707963268 1.5707963268 1.5707963268 1.5707963268 1.5707963268 
1.5707963268 1.5707963268 1.5707963268 1.6743954455 1.7840462375 1.8974821136 2.0119052671 2.1243706857 2.232221744 
2.3334263672 2.426721652 2.5115728246 1.4671972081 1.3575464161 1.24411054 1.1296873865 1.0172219679 0.90937090954 
0.80816628637 0.71487100155 0.63001982895 1.6743954455 1.7840462375 1.8974821136 2.0119052671 2.1243706857 2.232221744 
2.3334263672 2.426721652 2.5115728246 1.4671972081 1.3575464161 1.24411054 1.1296873865 1.0172219679 0.90937090954 
0.80816628637 0.71487100155 0.63001982895 2.6824132222 2.7864913217 2.8992382033 3.0186096618 3.1415926536 3.0186096618 
2.8992382033 2.7864913217 2.6824132222 0.45917943135 0.35510133185 0.2423544503 0.12298299178 0 0.12298299178 
0.2423544503 0.35510133185 0.45917943135 0.22715816343 0.49462574053 0.3129712797 0.77059342779 0.68021497688 0.49462574053 
1.0172219679 1.0172219679 1.0172219679 1.0172219679 1.2156949949 1.271087727 1.3676273807 1.5707963268 2.1243706857 
1.3676273807 1.447813335 1.5707963268 1.7739652728 2.1243706857 2.6469669131 1.4827341049 1.5707963268 1.6937793186 
1.8705049266 2.1243706857 2.4613776767 2.8286213739 1.5707963268 1.6588585487 1.7739652728 1.9258976586 2.1243706857 
2.3709992258 2.6469669131 2.9144344902 0.26576171152 0.33975332011 0.45685295248 0.40226393329 0.51573716537 0.6552068806 
0.45538277901 0.56421707518 0.69407236469 0.84594095064 0.50083690068 0.60464862014 0.72561863695 0.86392567495 1.0172219679 
0.54002084522 0.63877777351 0.75168694275 0.87851444325 1.0172219679 1.1636342747 0.57404952988 0.66790778838 0.77356233629 
0.89058134991 1.0172219679 1.1502619915 1.2852923014 0.60381225391 0.69302191562 0.79216440667 0.90072551443 1.0172219679 
1.139116835 1.2630228569 1.3852070904 0.71487100155 0.80816628637 0.80816628637 0.90937090954 0.90937090954 0.90937090954 
1.0172219679 1.0172219679 1.0172219679 1.0172219679 1.1296873865 1.1296873865 1.1296873865 1.1296873865 1.1296873865 
1.24411054 1.24411054 1.24411054 1.24411054 1.24411054 1.24411054 1.3575464161 1.3575464161 1.3575464161 
1.3575464161 1.3575464161 1.3575464161 1.3575464161 1.4671972081 1.4671972081 1.4671972081 1.4671972081 1.4671972081 
1.4671972081 1.4671972081 1.4671972081 1.6743954455 1.6743954455 1.7840462375 1.6743954455 1.7840462375 1.8974821136 
1.6743954455 1.7840462375 1.8974821136 2.0119052671 1.6743954455 1.7840462375 1.8974821136 2.0119052671 2.1243706857 
1.6743954455 1.7840462375 1.8974821136 2.0119052671 2.1243706857 2.232221744 1.6743954455 1.7840462375 1.8974821136 
2.0119052671 2.1243706857 2.232221744 2.3334263672 1.6743954455 1.7840462375 1.8974821136 2.0119052671 2.1243706857 
2.232221744 2.3334263672 2.426721652 1.7563855631 1.8785697967 1.8563003522 2.0024758186 1.9913306621 1.9779583789 
2.1243706857 2.1243706857 2.1243706857 2.1243706857 2.2408671392 2.2510113037 2.2630782103 2.2776669786 2.295651703 
2.3494282469 2.3680303173 2.3899057108 2.4159740166 2.4475202889 2.486385773 2.448570738 2.4736848652 2.5028148801 
2.5369440334 2.5773755784 2.6258554882 2.6847397011 2.5377803997 2.5675431237 2.6015718084 2.6407557529 2.6862098746 
2.7393287203 2.8018393335 2.8758309421 2.718901062 2.8307207459 2.7598010554 2.95115522 2.8800620952 2.8058000847 
3.0774230472 3.00855263 2.9351694502 2.8576792927 3.0774230472 3.1415926536 3.0719036933 2.9967168029 2.91630358 
2.95115522 3.00855263 3.0719036933 3.1415926536 3.0653475414 2.9825888767 2.8307207459 2.8800620952 2.9351694502 
2.9967168029 3.0653475414 3.1415926536 3.0574329311 2.718901062 2.7598010554 2.8058000847 2.8576792927 2.91630358 
2.9825888767 3.0574329311 3.1415926536 2.718901062 2.7598010554 2.8307207459 2.8058000847 2.8800620952 2.95115522 
2.8576792927 2.9351694502 3.00855263 3.0774230472 2.91630358 2.9967168029 3.0719036933 3.1415926536 3.0774230472 
2.9825888767 3.0653475414 3.1415926536 3.0719036933 3.00855263 2.95115522 3.0574329311 3.1415926536 3.0653475414 