# vtk DataFile Version 5.1
vtk output
ASCII
DATASET POLYDATA
POINTS 1002 float
19.3276 41.9234 13.8526 11.8533 35.7148 18.8443 19.6629 39.2371 7.495 
13.3834 30.5596 10.7521 10.1226 41.1522 12.9159 11.9497 37.9563 8.52733 
20.8179 35.175 18.6773 21.6602 31.9787 12.7681 6.79497 32.2912 14.9781 
17.7904 47.0799 7.17738 13.551 27.8421 17.6436 24.1578 42.8034 12.0556 
18.7827 41.076 13.9665 18.0865 40.2264 14.209 17.1925 39.5599 14.7062 
16.1937 39.1433 15.4514 15.2779 38.7599 16.2245 14.4956 38.1626 16.8197 
13.7536 37.4346 17.3059 13.0345 36.8033 17.8498 12.3989 36.2781 18.4186 
18.6377 41.7734 13.5678 17.8675 41.6407 13.315 17.0599 41.5467 13.1397 
16.1713 41.4932 13.0231 15.1217 41.4649 12.98 13.966 41.4179 13.0671 
12.8452 41.3387 13.2159 11.8149 41.2743 13.2552 10.888 41.235 13.1268 
19.6235 41.5504 14.2111 19.8492 41.1222 14.6782 20.0883 40.6295 15.3196 
20.4396 40.086 16.046 20.799 39.4839 16.5966 20.9465 38.7338 16.8872 
20.8854 37.7853 17.1866 20.8118 36.7736 17.7025 20.8109 35.8889 18.2847 
19.3977 42.664 13.5752 19.4012 43.4687 13.2119 19.3717 44.3386 12.7174 
19.3482 45.1485 12.1209 19.284 45.6693 11.4573 19.0747 45.9186 10.6996 
18.7136 46.2177 9.82629 18.319 46.6849 8.88896 18.0017 47.0564 7.97895 
20.0643 42.5024 13.9369 20.8981 43.0099 13.9166 21.7936 43.4391 13.8619 
22.6964 43.8752 13.9779 23.6289 44.2749 14.2174 24.5305 44.3957 14.1458 
25.0901 44.1297 13.5451 25.0672 43.6689 12.7776 24.6304 43.2202 12.2705 
11.3751 36.2746 18.6358 10.8921 36.8488 18.3074 10.4986 37.3941 17.8692 
10.2316 38.0088 17.3707 10.024 38.8108 16.8511 9.84529 39.6307 16.2738 
9.76342 40.1668 15.5461 9.80795 40.4397 14.6487 9.93616 40.7223 13.7128 
12.6353 35.5483 18.7066 13.4297 35.3764 18.4193 14.3433 35.2284 18.1088 
15.5188 35.0968 17.8835 16.8352 34.983 17.8432 17.9426 34.934 18.1299 
18.721 34.9773 18.6863 19.3826 35.0665 19.1177 20.0965 35.1376 19.094 
11.0009 35.3169 18.9057 10.1141 34.6976 18.6319 9.32306 34.0231 18.2257 
8.61025 33.5477 17.9893 7.80979 33.2659 17.8422 6.95758 32.954 17.436 
6.39274 32.5977 16.7667 6.3138 32.3729 16.1136 6.54046 32.3079 15.5549 
11.8111 34.9286 19.0965 11.7494 33.9866 19.2295 11.7054 32.9071 19.1985 
11.7454 31.7133 19.0981 11.855 30.4834 19.149 11.9781 29.4067 19.3795 
12.1646 28.652 19.4673 12.5116 28.2076 19.1231 13.0062 27.9615 18.4243 
19.2882 38.2962 7.54366 18.8496 37.3129 7.70779 18.3321 36.3808 8.03946 
17.7054 35.4225 8.42651 17.0382 34.3115 8.71052 16.4228 33.1859 8.97422 
15.7845 32.3208 9.41887 15.0077 31.7209 9.99602 14.1562 31.1712 10.4756 
19.0438 39.2412 7.2194 18.3672 39.1749 6.88889 17.6264 39.0658 6.66752 
16.8212 38.9911 6.62883 15.9684 38.9691 6.701 15.0916 38.8847 6.92647 
14.2222 38.6381 7.42048 13.3968 38.3089 8.02233 12.6377 38.0595 8.41877 
20.048 38.6046 7.70607 20.4235 37.8597 7.95891 20.7671 37.0502 8.40598 
21.0272 36.2728 9.06819 21.169 35.5592 9.77615 21.2762 34.8174 10.4144 
21.4456 34.0044 11.0387 21.6162 33.2228 11.676 21.6818 32.5572 12.2605 
19.5998 40.1484 7.29876 19.4916 41.0716 6.95653 19.4018 42.0376 6.49275 
19.3806 43.0643 6.11648 19.3759 44.0584 5.96357 19.2585 44.9331 5.90787 
18.9621 45.7238 5.85835 18.5459 46.4299 5.98916 18.1263 46.9178 6.46035 
20.2434 39.7511 7.61509 20.7721 40.2437 7.78699 21.1729 40.7289 8.13913 
21.5294 41.1867 8.71449 22.0283 41.5312 9.35078 22.6719 41.7757 9.8957 
23.2389 42.0765 10.4038 23.6043 42.4563 10.9504 23.8682 42.7365 11.5055 
13.0136 31.0423 10.5349 12.6585 31.6171 10.1758 12.3621 32.3081 9.77482 
12.1714 33.1017 9.50763 12.0412 33.983 9.35399 11.8671 34.9163 9.09257 
11.6657 35.8009 8.6902 11.5804 36.5667 8.39065 11.6933 37.2592 8.36219 
14.2378 30.505 10.8024 15.2223 30.4378 10.9156 16.3431 30.3513 11.1011 
17.4637 30.3118 11.2961 18.424 30.3732 11.4562 19.2705 30.49 11.6276 
20.1117 30.6446 11.8607 20.8568 30.9332 12.1441 21.3634 31.4072 12.4517 
12.4056 30.2016 10.8625 11.3424 29.9133 11.0668 10.2429 29.763 11.3941 
9.21972 29.7101 11.7782 8.38202 29.7389 12.1907 7.75433 29.9776 12.71 
7.31791 30.5088 13.3603 7.06101 31.1863 14.0218 6.92396 31.801 14.5688 
13.2234 29.8127 10.8945 13.1619 28.9578 10.9657 13.1634 28.2124 11.2386 
13.1352 27.8525 11.9928 13.0223 27.8917 13.1228 12.9052 28.0458 14.2279 
12.9269 28.078 15.1426 13.1134 27.9816 16.0055 13.3557 27.8667 16.8793 
9.8883 41.3522 12.3432 9.84084 41.3603 11.7426 10.087 41.0438 11.1651 
10.5211 40.5485 10.6967 10.8813 40.1476 10.3084 11.0733 39.8676 9.86848 
11.2363 39.5104 9.37115 11.4658 38.9946 8.95319 11.7183 38.4334 8.68705 
9.41286 40.6357 13.1813 8.92076 39.8854 13.5532 8.52003 38.9066 13.9195 
7.92593 37.8916 14.1369 7.11208 37.0132 14.2542 6.46831 36.1607 14.4449 
6.30369 35.1429 14.7023 6.48238 34.0372 14.8784 6.69649 33.064 14.943 
10.8634 41.7995 12.4366 11.7615 42.5968 12.1248 12.6666 43.3913 11.7808 
13.4957 43.9826 11.0921 14.3122 44.4094 10.1282 15.1708 44.9183 9.33286 
15.9756 45.5993 8.84762 16.632 46.2887 8.38086 17.2 46.8023 7.77107 
11.1012 37.5121 8.34774 10.2799 37.0993 8.29319 9.54304 36.6325 8.73075 
8.88308 36.0676 9.65227 8.26268 35.4295 10.6576 7.70437 34.7373 11.5187 
7.30239 34.0074 12.3803 7.08741 33.3162 13.3341 6.95679 32.7437 14.2438 
12.6959 38.8062 8.6319 13.4254 39.8926 8.37146 13.9746 41.1644 7.71053 
14.3839 42.4843 7.00408 14.8788 43.6476 6.60996 15.5382 44.5292 6.49597 
16.2023 45.2469 6.48681 16.7587 45.9743 6.57603 17.2627 46.65 6.81274 
21.1722 34.7293 18.3443 21.3691 34.2098 17.7812 21.5002 33.7118 17.2592 
21.7654 33.2548 16.9157 22.1466 32.7663 16.5148 22.3479 32.2896 15.7863 
22.2275 32.0033 14.8448 21.9756 31.9467 13.9824 21.7871 31.9752 13.3075 
20.3973 34.5156 19.2232 20.0184 33.7209 19.5459 19.642 32.6299 19.451 
19.1724 31.4367 18.9779 18.493 30.5083 18.3939 17.5514 29.8297 17.9783 
16.4452 29.127 17.846 15.3579 28.4261 17.8862 14.3954 27.974 17.8653 
21.5878 35.7127 18.0091 22.4503 36.4902 17.5009 23.3285 37.4246 17.1504 
24.1833 38.3256 16.6828 24.876 39.0986 15.9543 25.1414 39.8395 15.17 
24.9351 40.6542 14.4747 24.5616 41.4974 13.7398 24.2985 42.2405 12.8906 
21.4965 31.0202 13.0931 21.376 29.9737 13.5149 21.1893 28.9451 14.0175 
20.6986 28.203 14.5375 19.7947 27.9523 15.0682 18.6226 28.0189 15.6443 
17.3432 28.0411 16.208 16.0071 27.9263 16.6853 14.6979 27.8289 17.1327 
21.9477 32.9628 12.796 22.3415 34.0115 12.82 22.8631 35.0046 12.7586 
23.4172 35.9227 12.5682 23.8356 36.9469 12.3851 24.0054 38.2507 12.4039 
23.9591 39.7084 12.5647 23.8666 41.0144 12.6016 23.914 42.022 12.3932 
6.63763 31.5833 15.4241 6.34124 30.7439 15.9406 6.01672 29.7021 16.4993 
6.01608 28.6424 16.9992 6.72755 27.9682 17.3675 8.12998 27.8488 17.6229 
9.74983 27.989 17.7869 11.1833 28.0308 17.8358 12.4054 27.9293 17.7714 
18.6214 47.2573 7.22691 19.6559 47.2461 7.54548 20.7848 47.1254 8.12907 
21.8776 46.9882 8.86118 22.8659 46.7542 9.5526 23.6741 46.2252 10.0502 
24.1822 45.3795 10.3941 24.3522 44.4287 10.7916 24.2908 43.5634 11.3697 
17.9766 40.9223 13.7353 17.0327 40.8603 13.6268 17.0817 40.1734 14.1537 
16.0407 40.8748 13.6369 15.9504 40.2464 14.263 16.0262 39.6818 14.8861 
15.007 40.9475 13.7476 14.8528 40.3878 14.4778 14.8675 39.8538 15.1316 
15.0565 39.3615 15.7377 13.8772 41.0513 13.9721 13.7682 40.6225 14.8202 
13.808 40.0623 15.4292 14.0274 39.4926 15.9357 14.2876 38.8975 16.436 
12.7002 41.0949 14.2032 12.5976 40.8925 15.2124 12.6866 40.4038 15.8599 
12.9747 39.6654 16.2056 13.3007 38.9225 16.571 13.5535 38.1936 16.9914 
11.6029 41.0259 14.2308 11.4359 40.9775 15.3497 11.4723 40.6925 16.1822 
11.7554 39.9396 16.576 12.1277 39.0143 16.8343 12.4562 38.2053 17.203 
12.7481 37.4825 17.5868 10.6691 40.8901 14.015 10.4816 40.7862 15.0899 
10.4347 40.6091 16.047 10.607 39.9971 16.663 10.9126 39.0662 17.0431 
11.2347 38.2089 17.4253 11.5847 37.5215 17.8486 11.9883 36.8845 18.1981 
18.6649 42.5484 13.2549 18.6516 43.3939 12.8669 17.9348 42.4006 12.9529 
18.6229 44.2753 12.3612 17.94 43.2229 12.5408 17.1722 42.2505 12.6892 
18.5713 45.0189 11.7243 17.8576 44.0556 12.0099 17.113 43.0207 12.2123 
16.2155 42.1323 12.4397 18.4241 45.4691 10.9745 17.6932 44.7332 11.3122 
16.8848 43.7964 11.6426 16.0148 42.8652 11.9057 15.0444 42.0366 12.2989 
18.1298 45.7894 10.1702 17.4554 45.1881 10.5159 16.6216 44.4209 10.9384 
15.7096 43.6075 11.3928 14.8059 42.7677 11.8192 13.8648 41.9419 12.3804 
17.7542 46.2195 9.3621 17.1575 45.5909 9.75501 16.3957 44.8669 10.1794 
15.4894 44.1866 10.7897 14.5867 43.5224 11.4563 13.717 42.721 12.0039 
12.7903 41.8823 12.554 17.4214 46.649 8.55659 16.8576 46.0169 9.06092 
16.1774 45.2609 9.47847 15.3372 44.5898 10.0705 14.4532 44.0759 10.9232 
13.6023 43.498 11.6974 12.7205 42.6988 12.182 11.7792 41.8652 12.5878 
16.6478 46.3487 7.4983 16.0521 45.7064 7.29985 15.9585 45.8432 8.12393 
15.3334 45.0306 7.14822 15.1408 45.2972 7.85556 15.0904 45.2221 8.58226 
14.5683 44.2544 7.06138 14.2237 44.66 7.59919 14.0539 44.7731 8.29873 
14.1351 44.6431 9.19201 13.9842 43.1933 7.23502 13.4837 43.7469 7.5511 
13.1221 44.0623 8.12226 13.0854 44.1737 9.05699 13.28 44.1577 10.172 
13.6072 41.8874 7.81723 13.0914 42.5179 7.94734 12.6089 42.9517 8.30468 
12.3564 43.2529 9.0569 12.3555 43.5146 10.1142 12.4917 43.6201 11.1221 
13.1654 40.5609 8.50629 12.7834 41.2042 8.61621 12.3768 41.6666 8.85199 
12.0392 41.997 9.3409 11.776 42.3919 10.0835 11.6117 42.7991 10.9272 
11.611 42.906 11.6429 12.4916 39.386 8.82249 12.2283 40.0096 9.03042 
11.9644 40.5008 9.32999 11.7268 40.8122 9.73237 11.4175 41.1497 10.2002 
11.0133 41.648 10.7432 10.7105 42.0641 11.3492 10.6773 42.1 11.9297 
9.20265 40.6646 12.5458 9.20522 40.4987 11.8521 8.68484 39.784 12.8872 
9.45763 40.1072 11.1986 8.59323 39.5625 12.0602 8.14063 38.7956 13.1828 
9.78209 39.6719 10.687 8.65744 39.2346 11.2406 7.86537 38.6488 12.1961 
7.42878 37.8644 13.3168 10.0004 39.3244 10.2098 8.80397 38.8665 10.577 
7.80271 38.3943 11.2449 7.17356 37.7752 12.2869 6.79178 36.993 13.4479 
10.1774 38.9708 9.60547 9.03365 38.4572 9.94374 8.00943 37.9759 10.5078 
7.28309 37.4598 11.3759 6.84979 36.8008 12.5208 6.56117 35.9866 13.7157 
[...]
POINT_DATA 1002
FIELD FieldData 4
_paraPhi 1 1002 double
6.2831853072 3.1415926536 6.2831853072 3.1415926536 4.7123889804 4.7123889804 1.5707963268 1.5707963268 3.6951670125 
5.7296109483 2.5880182947 0.5535743589 6.2831853072 6.2831853072 6.2831853072 6.2831853072 3.1415926536 3.1415926536 
3.1415926536 3.1415926536 3.1415926536 6.1053039672 5.898798347 5.6768734901 5.4599499503 5.2659633393 5.1032165617 
4.9713148346 4.8656852733 4.7809517865 0.17788134 0.38438696014 0.60631181711 0.82323535693 1.0172219679 1.1799687454 
1.3118704726 1.4175000338 1.5022335207 6.1892828907 6.1070320098 6.035312792 5.9728339911 5.9183214791 5.8706119594 
5.8286879411 5.7916808611 5.7588591896 0.093902416448 0.17615329733 0.2478725152 0.31035131605 0.36486382811 0.41257334776 
0.45449736604 0.4915044461 0.52432611754 3.3194739936 3.5259796137 3.7479044707 3.9648280105 4.1588146215 4.321561399 
4.4534631262 4.5590926874 4.6438261743 2.9637113136 2.7572056934 2.5352808365 2.3183572967 2.1243706857 1.9616239082 
1.829722181 1.7240926197 1.6393591329 3.23549507 3.3177459509 3.3894651688 3.4519439696 3.5064564817 3.5541660013 
3.5960900196 3.6330970997 3.6659187711 3.0476902371 2.9654393563 2.8937201384 2.8312413375 2.7767288255 2.7290193058 
2.6870952876 2.6500882075 2.617266536 6.2831853072 6.2831853072 6.2831853072 6.2831853072 3.1415926536 3.1415926536 
3.1415926536 3.1415926536 3.1415926536 6.1053039672 5.898798347 5.6768734901 5.4599499503 5.2659633393 5.1032165617 
4.9713148346 4.8656852733 4.7809517865 0.17788134 0.38438696014 0.60631181711 0.82323535693 1.0172219679 1.1799687454 
1.3118704726 1.4175000338 1.5022335207 6.1892828907 6.1070320098 6.035312792 5.9728339911 5.9183214791 5.8706119594 
5.8286879411 5.7916808611 5.7588591896 0.093902416448 0.17615329733 0.2478725152 0.31035131605 0.36486382811 0.41257334776 
0.45449736604 0.4915044461 0.52432611754 3.3194739936 3.5259796137 3.7479044707 3.9648280105 4.1588146215 4.321561399 
4.4534631262 4.5590926874 4.6438261743 2.9637113136 2.7572056934 2.5352808365 2.3183572967 2.1243706857 1.9616239082 
1.829722181 1.7240926197 1.6393591329 3.23549507 3.3177459509 3.3894651688 3.4519439696 3.5064564817 3.5541660013 
3.5960900196 3.6330970997 3.6659187711 3.0476902371 2.9654393563 2.8937201384 2.8312413375 2.7767288255 2.7290193058 
2.6870952876 2.6500882075 2.617266536 4.7123889804 4.7123889804 4.7123889804 4.7123889804 4.7123889804 4.7123889804 
4.7123889804 4.7123889804 4.7123889804 4.6087898617 4.4991390697 4.3857031936 4.2712800401 4.1588146215 4.0509635631 
3.94975894 3.8564636551 3.7716124825 4.8159880991 4.9256388911 5.0390747672 5.1534979207 5.2659633393 5.3738143976 
5.4750190208 5.5683143056 5.6531654782 4.6087898617 4.4991390697 4.3857031936 4.2712800401 4.1588146215 4.0509635631 
3.94975894 3.8564636551 3.7716124825 4.8159880991 4.9256388911 5.0390747672 5.1534979207 5.2659633393 5.3738143976 
5.4750190208 5.5683143056 5.6531654782 1.5707963268 1.5707963268 1.5707963268 1.5707963268 1.5707963268 1.5707963268 
1.5707963268 1.5707963268 1.5707963268 1.6743954455 1.7840462375 1.8974821136 2.0119052671 2.1243706857 2.232221744 
2.3334263672 2.426721652 2.5115728246 1.4671972081 1.3575464161 1.24411054 1.1296873865 1.0172219679 0.90937090954 
0.80816628637 0.71487100155 0.63001982895 1.6743954455 1.7840462375 1.8974821136 2.0119052671 2.1243706857 2.232221744 
2.3334263672 2.426721652 2.5115728246 1.4671972081 1.3575464161 1.24411054 1.1296873865 1.0172219679 0.90937090954 
0.80816628637 0.71487100155 0.63001982895 3.6007720849 3.4966939854 3.3839471039 3.2645756454 3.1415926536 3.0186096618 
2.8992382033 2.7864913217 2.6824132222 5.8240058758 5.9280839753 6.0408308569 6.1602023154 6.2831853072 0.12298299178 
0.2423544503 0.35510133185 0.45917943135 6.0560271438 5.7885595667 5.9702140275 5.5125918794 5.6029703303 5.7885595667 
5.2659633393 5.2659633393 5.2659633393 5.2659633393 5.0674903122 5.0120975802 4.9155579264 4.7123889804 4.1588146215 
4.9155579264 4.8353719722 4.7123889804 4.5092200343 4.1588146215 3.6362183941 4.8004512023 4.7123889804 4.5894059886 
4.4126803806 4.1588146215 3.8218076305 3.4545639333 4.7123889804 4.6243267584 4.5092200343 4.3572876485 4.1588146215 
3.9121860814 3.6362183941 3.368750817 6.0174235957 5.9434319871 5.8263323547 5.8809213739 5.7674481418 5.6279784266 
5.8278025282 5.718968232 5.5891129425 5.4372443565 5.7823484065 5.678536687 5.5575666702 5.4192596322 5.2659633393 
5.743164462 5.6444075337 5.5314983644 5.4046708639 5.2659633393 5.1195510325 5.7091357773 5.6152775188 5.5096229709 
5.3926039573 5.2659633393 5.1329233157 4.9978930058 5.6793730533 5.5901633916 5.4910209005 5.3824597928 5.2659633393 
5.1440684722 5.0201624502 4.8979782167 5.5683143056 5.4750190208 5.4750190208 5.3738143976 5.3738143976 5.3738143976 
5.2659633393 5.2659633393 5.2659633393 5.2659633393 5.1534979207 5.1534979207 5.1534979207 5.1534979207 5.1534979207 
5.0390747672 5.0390747672 5.0390747672 5.0390747672 5.0390747672 5.0390747672 4.9256388911 4.9256388911 4.9256388911 
4.9256388911 4.9256388911 4.9256388911 4.9256388911 4.8159880991 4.8159880991 4.8159880991 4.8159880991 4.8159880991 
4.8159880991 4.8159880991 4.8159880991 4.6087898617 4.6087898617 4.4991390697 4.6087898617 4.4991390697 4.3857031936 
4.6087898617 4.4991390697 4.3857031936 4.2712800401 4.6087898617 4.4991390697 4.3857031936 4.2712800401 4.1588146215 
4.6087898617 4.4991390697 4.3857031936 4.2712800401 4.1588146215 4.0509635631 4.6087898617 4.4991390697 4.3857031936 
4.2712800401 4.1588146215 4.0509635631 3.94975894 4.6087898617 4.4991390697 4.3857031936 4.2712800401 4.1588146215 
4.0509635631 3.94975894 3.8564636551 4.526799744 4.4046155105 4.426884955 4.2807094886 4.2918546451 4.3052269283 
4.1588146215 4.1588146215 4.1588146215 4.1588146215 4.042318168 4.0321740035 4.0201070968 4.0055183285 3.9875336042 
3.9337570603 3.9151549899 3.8932795963 3.8672112905 3.8356650183 3.7967995342 3.8346145692 3.809500442 3.7803704271 
3.7462412737 3.7058097288 3.657329819 3.5984456061 3.7454049075 3.7156421835 3.6816134988 3.6424295543 3.5969754326 
3.5438565869 3.4813459737 3.4073543651 3.5642842451 3.4524645613 3.5233842518 3.3320300872 3.403123212 3.4773852225 
3.20576226 3.2746326772 3.348015857 3.4255060145 3.0774230472 3.1415926536 3.2112816139 3.2864685043 3.3668817272 
2.95115522 3.00855263 3.0719036933 3.1415926536 3.2178377658 3.3005964304 2.8307207459 2.8800620952 2.9351694502 
2.9967168029 3.0653475414 3.1415926536 3.225752376 2.718901062 2.7598010554 2.8058000847 2.8576792927 2.91630358 
2.9825888767 3.0574329311 3.1415926536 3.5642842451 3.5233842518 3.4524645613 3.4773852225 3.403123212 3.3320300872 
3.4255060145 3.348015857 3.2746326772 3.20576226 3.3668817272 3.2864685043 3.2112816139 3.1415926536 3.0774230472 
3.3005964304 3.2178377658 3.1415926536 3.0719036933 3.00855263 2.95115522 3.225752376 3.1415926536 3.0653475414 
2.9967168029 2.9351694502 2.8800620952 2.8307207459 3.1415926536 3.0574329311 2.9825888767 2.91630358 2.8576792927 
2.8058000847 2.7598010554 2.718901062 4.526799744 4.426884955 4.4046155105 4.3052269283 4.2918546451 4.2807094886 
4.1588146215 4.1588146215 4.1588146215 4.1588146215 3.9875336042 4.0055183285 4.0201070968 4.0321740035 4.042318168 
3.7967995342 3.8356650183 3.8672112905 3.8932795963 3.9151549899 3.9337570603 3.5984456061 3.657329819 3.7058097288 
3.7462412737 3.7803704271 3.809500442 3.8346145692 3.4073543651 3.4813459737 3.5438565869 3.5969754326 3.6424295543 
3.6816134988 3.7156421835 3.7454049075 4.7123889804 4.8004512023 4.6243267584 4.9155579264 4.7123889804 4.5092200343 
5.0674903122 4.8353719722 4.5894059886 4.3572876485 5.2659633393 5.0120975802 4.7123889804 4.4126803806 4.1588146215 
5.5125918794 5.2659633393 4.9155579264 4.5092200343 4.1588146215 3.9121860814 5.7885595667 5.6029703303 5.2659633393 
4.7123889804 4.1588146215 3.8218076305 3.6362183941 6.0560271438 5.9702140275 5.7885595667 5.2659633393 4.1588146215 
3.6362183941 3.4545639333 3.368750817 0.22715816343 0.49462574053 0.3129712797 0.77059342779 0.68021497688 0.49462574053 
1.0172219679 1.0172219679 1.0172219679 1.0172219679 1.2156949949 1.271087727 1.3676273807 1.5707963268 2.1243706857 
1.3676273807 1.447813335 1.5707963268 1.7739652728 2.1243706857 2.6469669131 1.4827341049 1.5707963268 1.6937793186 
1.8705049266 2.1243706857 2.4613776767 2.8286213739 1.5707963268 1.6588585487 1.7739652728 1.9258976586 2.1243706857 
2.3709992258 2.6469669131 2.9144344902 1.7563855631 1.8785697967 1.8563003522 2.0024758186 1.9913306621 1.9779583789 
2.1243706857 2.1243706857 2.1243706857 2.1243706857 2.2408671392 2.2510113037 2.2630782103 2.2776669786 2.295651703 
2.3494282469 2.3680303173 2.3899057108 2.4159740166 2.4475202889 2.486385773 2.448570738 2.4736848652 2.5028148801 
2.5369440334 2.5773755784 2.6258554882 2.6847397011 2.5377803997 2.5675431237 2.6015718084 2.6407557529 2.6862098746 
2.7393287203 2.8018393335 2.8758309421 1.6743954455 1.6743954455 1.7840462375 1.6743954455 1.7840462375 1.8974821136 
1.6743954455 1.7840462375 1.8974821136 2.0119052671 1.6743954455 1.7840462375 1.8974821136 2.0119052671 2.1243706857 
1.6743954455 1.7840462375 1.8974821136 2.0119052671 2.1243706857 2.232221744 1.6743954455 1.7840462375 1.8974821136 
2.0119052671 2.1243706857 2.232221744 2.3334263672 1.6743954455 1.7840462375 1.8974821136 2.0119052671 2.1243706857 
2.232221744 2.3334263672 2.426721652 1.4671972081 1.3575464161 1.4671972081 1.24411054 1.3575464161 1.4671972081 
1.1296873865 1.24411054 1.3575464161 1.4671972081 1.0172219679 1.1296873865 1.24411054 1.3575464161 1.4671972081 
0.90937090954 1.0172219679 1.1296873865 1.24411054 1.3575464161 1.4671972081 0.80816628637 0.90937090954 1.0172219679 
1.1296873865 1.24411054 1.3575464161 1.4671972081 0.71487100155 0.80816628637 0.90937090954 1.0172219679 1.1296873865 
1.24411054 1.3575464161 1.4671972081 0.60381225391 0.57404952988 0.69302191562 0.54002084522 0.66790778838 0.79216440667 
0.50083690068 0.63877777351 0.77356233629 0.90072551443 0.45538277901 0.60464862014 0.75168694275 0.89058134991 1.0172219679 
0.40226393329 0.56421707518 0.72561863695 0.87851444325 1.0172219679 1.139116835 0.33975332011 0.51573716537 0.69407236469 
0.86392567495 1.0172219679 1.1502619915 1.2630228569 0.26576171152 0.45685295248 0.6552068806 0.84594095064 1.0172219679 
1.1636342747 1.2852923014 1.3852070904 0.22715816343 0.3129712797 0.49462574053 0.49462574053 0.68021497688 0.77059342779 
1.0172219679 1.0172219679 1.0172219679 1.0172219679 2.1243706857 1.5707963268 1.3676273807 1.271087727 1.2156949949 
2.6469669131 2.1243706857 1.7739652728 1.5707963268 1.447813335 1.3676273807 2.8286213739 2.4613776767 2.1243706857 
1.8705049266 1.6937793186 1.5707963268 1.4827341049 2.9144344902 2.6469669131 2.3709992258 2.1243706857 1.9258976586 
1.7739652728 1.6588585487 1.5707963268 1.7563855631 1.8563003522 1.8785697967 1.9779583789 1.9913306621 2.0024758186 
2.1243706857 2.1243706857 2.1243706857 2.1243706857 2.295651703 2.2776669786 2.2630782103 2.2510113037 2.2408671392 
2.486385773 2.4475202889 2.4159740166 2.3899057108 2.3680303173 2.3494282469 2.6847397011 2.6258554882 2.5773755784 
2.5369440334 2.5028148801 2.4736848652 2.448570738 2.8758309421 2.8018393335 2.7393287203 2.6862098746 2.6407557529 
2.6015718084 2.5675431237 2.5377803997 5.8604937156 5.901393709 5.9723133995 5.9473927383 6.0216547488 6.0927478736 
5.9992719463 6.0767621038 6.1501452836 6.2190157008 6.0578962336 6.1383094565 6.2134963469 0 0.064169606361 
6.1241815303 6.206940195 6.2831853072 0.069688960264 0.13304002361 0.19043743361 6.1990255847 0 0.07624511221 
0.14487585072 0.20642320337 0.26153055843 0.3108719077 0 0.084159722458 0.15900377685 0.22528907359 0.28391336087 
0.3357925689 0.38179159818 0.42269159155 5.8604937156 5.9723133995 5.901393709 6.0927478736 6.0216547488 5.9473927383 
6.2190157008 6.1501452836 6.0767621038 5.9992719463 0.064169606361 0 6.2134963469 6.1383094565 6.0578962336 
0.19043743361 0.13304002361 0.069688960264 6.2831853072 6.206940195 6.1241815303 0.3108719077 0.26153055843 0.20642320337 
0.14487585072 0.07624511221 6.2831853072 6.1990255847 0.42269159155 0.38179159818 0.3357925689 0.28391336087 0.22528907359 
0.15900377685 0.084159722458 0 5.6793730533 5.7091357773 5.5901633916 5.743164462 5.6152775188 5.4910209005 
5.7823484065 5.6444075337 5.5096229709 5.3824597928 5.8278025282 5.678536687 5.5314983644 5.3926039573 5.2659633393 
5.8809213739 5.718968232 5.5575666702 5.4046708639 5.2659633393 5.1440684722 5.9434319871 5.7674481418 5.5891129425 
5.4192596322 5.2659633393 5.1329233157 5.0201624502 6.0174235957 5.8263323547 5.6279784266 5.4372443565 5.2659633393 
5.1195510325 4.9978930058 4.8979782167 1.3852070904 1.2852923014 1.2630228569 1.1636342747 1.1502619915 1.139116835 
1.0172219679 1.0172219679 1.0172219679 1.0172219679 0.84594095064 0.86392567495 0.87851444325 0.89058134991 0.90072551443 
0.6552068806 0.69407236469 0.72561863695 0.75168694275 0.77356233629 0.79216440667 0.45685295248 0.51573716537 0.56421707518 
0.60464862014 0.63877777351 0.66790778838 0.69302191562 0.26576171152 0.33975332011 0.40226393329 0.45538277901 0.50083690068 
0.54002084522 0.57404952988 0.60381225391 
_paraPhiHalf 1 1002 double
0 3.1415926536 0 3.1415926536 1.5707963268 1.5707963268 1.5707963268 1.5707963268 2.5880182947 
0.5535743589 2.5880182947 0.5535743589 0 0 0 0 3.1415926536 3.1415926536 
3.1415926536 3.1415926536 3.1415926536 0.17788134 0.38438696014 0.60631181711 0.82323535693 1.0172219679 1.1799687454 
1.3118704726 1.4175000338 1.5022335207 0.17788134 0.38438696014 0.60631181711 0.82323535693 1.0172219679 1.1799687454 
1.3118704726 1.4175000338 1.5022335207 0.093902416448 0.17615329733 0.2478725152 0.31035131605 0.36486382811 0.41257334776 
0.45449736604 0.4915044461 0.52432611754 0.093902416448 0.17615329733 0.2478725152 0.31035131605 0.36486382811 0.41257334776 
0.45449736604 0.4915044461 0.52432611754 2.9637113136 2.7572056934 2.5352808365 2.3183572967 2.1243706857 1.9616239082 
1.829722181 1.7240926197 1.6393591329 2.9637113136 2.7572056934 2.5352808365 2.3183572967 2.1243706857 1.9616239082 
1.829722181 1.7240926197 1.6393591329 3.0476902371 2.9654393563 2.8937201384 2.8312413375 2.7767288255 2.7290193058 
2.6870952876 2.6500882075 2.617266536 3.0476902371 2.9654393563 2.8937201384 2.8312413375 2.7767288255 2.7290193058 
2.6870952876 2.6500882075 2.617266536 0 0 0 0 3.1415926536 3.1415926536 
3.1415926536 3.1415926536 3.1415926536 0.17788134 0.38438696014 0.60631181711 0.82323535693 1.0172219679 1.1799687454 
1.3118704726 1.4175000338 1.5022335207 0.17788134 0.38438696014 0.60631181711 0.82323535693 1.0172219679 1.1799687454 
1.3118704726 1.4175000338 1.5022335207 0.093902416448 0.17615329733 0.2478725152 0.31035131605 0.36486382811 0.41257334776 
0.45449736604 0.4915044461 0.52432611754 0.093902416448 0.17615329733 0.2478725152 0.31035131605 0.36486382811 0.41257334776 
0.45449736604 0.4915044461 0.52432611754 2.9637113136 2.7572056934 2.5352808365 2.3183572967 2.1243706857 1.9616239082 
1.829722181 1.7240926197 1.6393591329 2.9637113136 2.7572056934 2.5352808365 2.3183572967 2.1243706857 1.9616239082 
1.829722181 1.7240926197 1.6393591329 3.0476902371 2.9654393563 2.8937201384 2.8312413375 2.7767288255 2.7290193058 
2.6870952876 2.6500882075 2.617266536 3.0476902371 2.9654393563 2.8937201384 2.8312413375 2.7767288255 2.7290193058 
2.6870952876 2.6500882075 2.617266536 1.5707963268 1.5707963268 1.5707963268 1.5707963268 1.5707963268 1.5707963268 
1.5707963268 1.5707963268 1.5707963268 1.6743954455 1.7840462375 1.8974821136 2.0119052671 2.1243706857 2.232221744 
2.3334263672 2.426721652 2.5115728246 1.4671972081 1.3575464161 1.24411054 1.1296873865 1.0172219679 0.90937090954 
0.80816628637 0.71487100155 0.63001982895 1.6743954455 1.7840462375 1.8974821136 2.0119052671 2.1243706857 2.232221744 
2.3334263672 2.426721652 2.5115728246 1.4671972081 1.3575464161 1.24411054 1.1296873865 1.0172219679 0.90937090954 
0.80816628637 0.71487100155 0.63001982895 1.5707963268 1.5707963268 1.5707963268 1.5707963268 1.5707963268 1.5707963268 
1.5707963268 1.5707963268 1.5707963268 1.6743954455 1.7840462375 1.8974821136 2.0119052671 2.1243706857 2.232221744 
2.3334263672 2.426721652 2.5115728246 1.4671972081 1.3575464161 1.24411054 1.1296873865 1.0172219679 0.90937090954 
0.80816628637 0.71487100155 0.63001982895 1.6743954455 1.7840462375 1.8974821136 2.0119052671 2.1243706857 2.232221744 
2.3334263672 2.426721652 2.5115728246 1.4671972081 1.3575464161 1.24411054 1.1296873865 1.0172219679 0.90937090954 
0.80816628637 0.71487100155 0.63001982895 2.6824132222 2.7864913217 2.8992382033 3.0186096618 3.1415926536 3.0186096618 
2.8992382033 2.7864913217 2.6824132222 0.45917943135 0.35510133185 0.2423544503 0.12298299178 0 0.12298299178 
0.2423544503 0.35510133185 0.45917943135 0.22715816343 0.49462574053 0.3129712797 0.77059342779 0.68021497688 0.49462574053 
1.0172219679 1.0172219679 1.0172219679 1.0172219679 1.2156949949 1.271087727 1.3676273807 1.5707963268 2.1243706857 
1.3676273807 1.447813335 1.5707963268 1.7739652728 2.1243706857 2.6469669131 1.4827341049 1.5707963268 1.6937793186 
1.8705049266 2.1243706857 2.4613776767 2.8286213739 1.5707963268 1.6588585487 1.7739652728 1.9258976586 2.1243706857 
2.3709992258 2.6469669131 2.9144344902 0.26576171152 0.33975332011 0.45685295248 0.40226393329 0.51573716537 0.6552068806 
0.45538277901 0.56421707518 0.69407236469 0.84594095064 0.50083690068 0.60464862014 0.72561863695 0.86392567495 1.0172219679 
0.54002084522 0.63877777351 0.75168694275 0.87851444325 1.0172219679 1.1636342747 0.57404952988 0.66790778838 0.77356233629 
0.89058134991 1.0172219679 1.1502619915 1.2852923014 0.60381225391 0.69302191562 0.79216440667 0.90072551443 1.0172219679 
1.139116835 1.2630228569 1.3852070904 0.71487100155 0.80816628637 0.80816628637 0.90937090954 0.90937090954 0.90937090954 
1.0172219679 1.0172219679 1.0172219679 1.0172219679 1.1296873865 1.1296873865 1.1296873865 1.1296873865 1.1296873865 
1.24411054 1.24411054 1.24411054 1.24411054 1.24411054 1.24411054 1.3575464161 1.3575464161 1.3575464161 
1.3575464161 1.3575464161 1.3575464161 1.3575464161 1.4671972081 1.4671972081 1.4671972081 1.4671972081 1.4671972081 
1.4671972081 1.4671972081 1.4671972081 1.6743954455 1.6743954455 1.7840462375 1.6743954455 1.7840462375 1.8974821136 
1.6743954455 1.7840462375 1.8974821136 2.0119052671 1.6743954455 1.7840462375 1.8974821136 2.0119052671 2.1243706857 
1.6743954455 1.7840462375 1.8974821136 2.0119052671 2.1243706857 2.232221744 1.6743954455 1.7840462375 1.8974821136 
2.0119052671 2.1243706857 2.232221744 2.3334263672 1.6743954455 1.7840462375 1.8974821136 2.0119052671 2.1243706857 
2.232221744 2.3334263672 2.426721652 1.7563855631 1.8785697967 1.8563003522 2.0024758186 1.9913306621 1.9779583789 
2.1243706857 2.1243706857 2.1243706857 2.1243706857 2.2408671392 2.2510113037 2.2630782103 2.2776669786 2.295651703 
2.3494282469 2.3680303173 2.3899057108 2.4159740166 2.4475202889 2.486385773 2.448570738 2.4736848652 2.5028148801 
2.5369440334 2.5773755784 2.6258554882 2.6847397011 2.5377803997 2.5675431237 2.6015718084 2.6407557529 2.6862098746 
2.7393287203 2.8018393335 2.8758309421 2.718901062 2.8307207459 2.7598010554 2.95115522 2.8800620952 2.8058000847 
3.0774230472 3.00855263 2.9351694502 2.8576792927 3.0774230472 3.1415926536 3.0719036933 2.9967168029 2.91630358 
2.95115522 3.00855263 3.0719036933 3.1415926536 3.0653475414 2.9825888767 2.8307207459 2.8800620952 2.9351694502 
2.9967168029 3.0653475414 3.1415926536 3.0574329311 2.718901062 2.7598010554 2.8058000847 2.8576792927 2.91630358 
2.9825888767 3.0574329311 3.1415926536 2.718901062 2.7598010554 2.8307207459 2.8058000847 2.8800620952 2.95115522 
2.8576792927 2.9351694502 3.00855263 3.0774230472 2.91630358 2.9967168029 3.0719036933 3.1415926536 3.0774230472 
2.9825888767 3.0653475414 3.1415926536 3.0719036933 3.00855263 2.95115522 3.0574329311 3.1415926536 3.0653475414 