# vtk DataFile Version 5.1
vtk output
ASCII
DATASET POLYDATA
POINTS 1002 float
-5.69928 -0.423771 -4.37852 5.17892 0.348615 -2.32531 -5.1488 0.22271 4.61282 
4.2408 -0.21818 2.90955 0.460221 6.20457 -2.34139 0.696034 7.29614 3.63214 
-0.256109 -6.35928 -2.70318 0.697511 -6.65656 2.95125 9.56682 4.84358 -0.0678027 
-10.4181 4.22426 -1.45848 9.0335 -4.90785 -0.471452 -8.49992 -3.76665 0.21364 
-4.76283 -0.365138 -4.30445 -3.62566 -0.273967 -4.22679 -2.37023 -0.224267 -4.08236 
-1.16162 -0.204166 -3.81653 -0.0492301 -0.123579 -3.4876 1.08596 0.0445644 -3.1372 
2.28619 0.212625 -2.74733 3.41696 0.298458 -2.41695 4.37111 0.319103 -2.2872 
-5.22108 0.186456 -4.45525 -4.52064 0.874869 -4.39517 -3.79058 1.57842 -4.00913 
-3.20256 2.26013 -3.29249 -2.64348 2.97516 -2.53939 -1.9185 3.76045 -2.08745 
-1.12909 4.52179 -2.00211 -0.495411 5.16158 -2.1202 -0.013031 5.70315 -2.26621 
-5.44717 -0.993507 -4.26311 -5.04385 -1.59889 -4.27334 -4.56835 -2.25022 -4.37619 
-4.08035 -2.96103 -4.30175 -3.52525 -3.71211 -3.97829 -2.85877 -4.44522 -3.73616 
-2.16111 -5.10055 -3.72376 -1.50959 -5.63896 -3.63503 -0.885198 -6.04925 -3.24685 
-6.34817 -0.0344353 -4.44023 -7.105 0.490326 -4.21086 -8.03944 1.09477 -3.65335 
-9.06146 1.65862 -3.16646 -9.95275 2.17215 -3.14903 -10.5979 2.75961 -3.39494 
-11.0018 3.42684 -3.37363 -11.1195 3.97371 -2.90518 -10.9002 4.23155 -2.19017 
-6.38489 -0.758051 -4.38643 -7.00687 -1.04579 -4.42203 -7.65069 -1.31179 -4.35077 
-8.262 -1.58188 -3.97506 -8.62116 -1.88855 -3.2952 -8.67942 -2.29078 -2.52628 
-8.65288 -2.78236 -1.80541 -8.66749 -3.23963 -1.10888 -8.6401 -3.56051 -0.421577 
5.0669 0.973131 -2.48452 4.83599 1.66548 -2.64486 4.50125 2.31324 -2.84137 
4.09286 2.86495 -3.12204 3.5866 3.41581 -3.36194 2.9563 4.04273 -3.33047 
2.26922 4.67154 -3.02471 1.62025 5.22482 -2.68293 1.0276 5.72528 -2.46616 
4.72247 -0.263159 -2.19305 4.22172 -0.922175 -2.29937 3.73609 -1.69601 -2.70412 
3.23305 -2.56612 -3.19024 2.63221 -3.38484 -3.43777 1.9537 -4.07045 -3.37472 
1.31043 -4.69709 -3.17325 0.752118 -5.31495 -2.98274 0.239146 -5.87967 -2.83442 
5.9285 0.818795 -2.49072 6.70648 1.43518 -2.47834 7.49965 2.13453 -2.17518 
8.34395 2.77802 -1.86152 9.23885 3.35305 -1.81606 10.0218 3.98068 -1.79171 
10.4479 4.6115 -1.43333 10.4229 4.99866 -0.862888 10.066 5.03172 -0.386368 
5.71457 0.0486021 -2.26626 6.33398 -0.23898 -2.19414 7.00647 -0.606062 -2.10983 
7.57514 -1.12036 -1.99326 7.94986 -1.71356 -1.84976 8.27833 -2.29095 -1.71627 
8.69105 -2.88885 -1.56868 9.05076 -3.57368 -1.32008 9.16544 -4.28952 -0.936873 
-4.21543 0.307269 4.72088 -3.26048 0.310899 4.64991 -2.26939 0.254703 4.36835 
-1.22446 0.201064 4.05741 -0.155636 0.156197 3.85897 0.875867 0.0758877 3.71636 
1.83871 -0.0310902 3.56478 2.72821 -0.116519 3.40009 3.53216 -0.172257 3.18757 
-4.82161 0.835569 4.65217 -4.41451 1.50921 4.64508 -3.9163 2.2158 4.55963 
-3.31481 2.96168 4.40428 -2.62397 3.75862 4.20246 -1.90244 4.56731 3.99677 
-1.20034 5.34643 3.86551 -0.522394 6.0915 3.8296 0.123118 6.76647 3.7901 
-4.8189 -0.285258 4.6505 -4.38521 -0.811903 4.6673 -3.86684 -1.42069 4.64796 
-3.29846 -2.17627 4.56306 -2.70095 -3.03333 4.34805 -2.0544 -3.88116 3.97393 
-1.34134 -4.67378 3.54898 -0.605586 -5.41166 3.23638 0.0835927 -6.07702 3.0708 
-5.91382 0.474963 4.49677 -6.69314 0.755786 4.41876 -7.43549 1.08045 4.33566 
-8.10683 1.47665 3.97508 -8.6679 1.93265 3.05704 -9.11204 2.37196 1.74709 
-9.52776 2.77085 0.562722 -9.97145 3.21134 -0.249756 -10.3251 3.72837 -0.862213 
-5.96476 -0.236239 4.50728 -6.89388 -0.732204 4.48494 -7.79702 -1.20897 4.45576 
-8.43944 -1.64038 4.1062 -8.71075 -2.04815 3.3499 -8.76837 -2.47314 2.55616 
-8.81716 -2.92323 1.98436 -8.85383 -3.33414 1.46738 -8.75891 -3.61926 0.847269 
3.95925 0.471311 3.06192 3.66944 1.2032 3.10281 3.35345 1.99346 3.05168 
2.99183 2.8589 3.11034 2.59524 3.75241 3.35522 2.18442 4.56558 3.54824 
1.76873 5.25551 3.54125 1.36805 5.90523 3.5066 1.00938 6.59656 3.57401 
4.10753 -0.900525 2.90514 3.95048 -1.64578 2.90026 3.71813 -2.41505 2.94011 
3.41585 -3.17706 3.02237 3.13949 -3.90035 3.09372 2.90001 -4.55647 3.1387 
2.53584 -5.1557 3.19189 1.95654 -5.7244 3.23085 1.28818 -6.24233 3.16679 
4.76281 0.165307 2.68762 5.35994 0.585151 2.45936 6.05902 1.09015 2.36327 
6.87295 1.74107 2.43723 7.72213 2.47826 2.43721 8.42537 3.11729 2.07413 
8.88389 3.57986 1.42367 9.17999 3.97917 0.799528 9.41095 4.41351 0.334556 
4.84852 -0.685521 2.61115 5.4901 -1.19848 2.36864 6.13649 -1.73831 2.20125 
6.777 -2.29181 2.00875 7.39372 -2.86779 1.74612 7.946 -3.48131 1.46213 
8.42129 -4.08582 1.11305 8.81433 -4.56232 0.616361 9.04965 -4.82725 0.0403114 
0.445254 6.87583 -2.18063 0.481852 7.67192 -1.7616 0.541727 8.39999 -1.10402 
0.572681 8.8103 -0.363439 0.573573 8.87621 0.309178 0.614142 8.81633 0.977018 
0.72203 8.73107 1.79494 0.815241 8.47821 2.67278 0.805558 7.96415 3.3294 
1.38773 6.3313 -2.48555 2.46634 6.24708 -2.67793 3.6145 5.92635 -2.76275 
4.70811 5.53944 -2.65144 5.69885 5.35204 -2.45983 6.64595 5.41287 -2.26301 
7.58417 5.50402 -1.89793 8.43909 5.439 -1.27356 9.11046 5.20338 -0.585304 
-0.482102 6.30817 -2.26892 -1.56871 6.28462 -2.19305 -2.75847 6.19421 -1.88407 
-3.95728 6.13261 -1.36123 -5.07748 6.11789 -1.07091 -6.14479 6.05495 -1.30582 
-7.27711 5.82944 -1.7239 -8.48266 5.40654 -1.87031 -9.58886 4.84081 -1.71684 
1.4405 7.26139 3.36628 2.2804 7.21372 3.08708 3.19298 7.23258 2.78391 
4.07168 7.09985 2.284 4.86249 6.5141 1.51121 5.69687 5.63462 0.717188 
6.7006 4.97745 0.202341 7.77773 4.76841 -0.006422 8.75323 4.8107 -0.0538169 
0.0404472 7.63295 3.70412 -0.739211 7.68909 3.48829 -1.7182 7.33314 2.89086 
-2.90974 6.69846 2.13726 -4.259 6.0459 1.53469 -5.67743 5.50059 1.06456 
-7.04815 5.06681 0.504971 -8.28528 4.74062 -0.184012 -9.39697 4.48451 -0.870156 
-0.141521 -6.82304 -2.28783 0.0472414 -7.33181 -1.84703 0.339162 -7.85086 -1.28908 
0.675736 -8.2782 -0.583463 0.90062 -8.50509 0.144957 0.923941 -8.48503 0.810112 
0.834247 -8.22606 1.46669 0.75946 -7.77531 2.10717 0.725388 -7.2215 2.61791 
0.726392 -6.3757 -2.24947 1.75145 -6.48136 -1.93467 2.74211 -6.68161 -1.8781 
3.72841 -6.84537 -1.92395 4.76534 -6.87208 -1.8011 5.8009 -6.77133 -1.48559 
6.76452 -6.51982 -1.16528 7.65641 -6.07179 -0.925942 8.4449 -5.49364 -0.709972 
-1.16114 -6.62412 -2.86176 -2.06662 -6.83759 -2.88495 -2.9134 -6.98843 -2.72575 
-3.7657 -7.08663 -2.41643 -4.67748 -6.96714 -1.99843 -5.53266 -6.37715 -1.49578 
-6.24595 -5.43679 -0.984773 -6.94308 -4.60371 -0.542638 -7.72756 -4.10118 -0.15579 
1.70086 -6.95943 2.92838 2.85978 -7.25703 2.82359 4.02999 -7.5827 2.72949 
5.0713 -7.86133 2.56654 5.96976 -7.93608 2.08356 6.76645 -7.72575 1.30577 
7.44485 -7.26423 0.608628 8.00649 -6.60295 0.176124 8.52244 -5.79006 -0.142469 
-0.148186 -6.59328 2.64694 -0.944932 -6.37895 2.18129 -1.87052 -6.14925 1.78045 
-3.10367 -6.04938 1.67066 -4.4939 -5.97077 1.7242 -5.65711 -5.66993 1.59931 
-6.46849 -5.14651 1.24378 -7.13767 -4.60663 0.866887 -7.82836 -4.1583 0.550549 
10.2295 4.4501 0.0814559 10.8508 3.76981 0.0699496 11.3528 2.83476 0.0498626 
11.5568 1.73368 0.175587 11.3698 0.525828 0.291567 10.9674 -0.724889 0.125566 
10.5639 -1.91238 -0.236389 10.1463 -2.9847 -0.48348 9.62579 -3.97578 -0.520941 
-11.4438 3.61848 -1.57464 -12.3816 2.89143 -1.50901 -12.9329 2.06156 -1.1695 
-12.7866 1.20091 -0.667091 -12.0231 0.341597 -0.300961 -11.1579 -0.571935 -0.195047 
-10.5326 -1.55555 -0.153409 -9.99481 -2.49055 -0.0148237 -9.31127 -3.23654 0.146554 
-4.1267 0.323008 -4.3384 -3.36014 1.05815 -4.16207 -2.89889 0.463301 -4.09024 
-2.70132 1.75423 -3.59541 -2.1939 1.19945 -3.72073 -1.6515 0.513234 -3.74173 
-2.16565 2.43423 -2.756 -1.62644 1.88764 -3.06755 -1.0272 1.23767 -3.26632 
-0.483892 0.522924 -3.38246 -1.49848 3.20182 -2.06249 -0.996611 2.61849 -2.36967 
-0.396605 1.97466 -2.74905 0.183914 1.28386 -2.94635 0.659223 0.629865 -3.05371 
-0.665432 4.01938 -1.81378 -0.158182 3.43351 -1.98816 0.424111 2.77536 -2.41042 
0.99205 2.09468 -2.66773 1.46392 1.44738 -2.70043 1.87875 0.828623 -2.71676 
0.0611998 4.72686 -1.94524 0.6413 4.1912 -2.03569 1.26779 3.54765 -2.40383 
1.86521 2.87195 -2.67593 2.34715 2.24471 -2.63984 2.74201 1.63125 -2.50627 
3.105 0.97039 -2.44654 0.576097 5.27372 -2.22439 1.19183 4.77724 -2.34373 
1.85875 4.175 -2.67094 2.52413 3.50891 -2.94687 3.0846 2.89192 -2.91111 
3.52171 2.32481 -2.67897 3.887 1.69539 -2.49437 4.18108 0.991341 -2.38528 
-5.85461 0.60331 -4.40154 -6.66995 1.15582 -3.95249 -5.16706 1.31875 -4.15599 
-7.6936 1.78562 -3.25541 -6.07735 1.90366 -3.53597 -4.47896 2.06231 -3.63215 
-8.66974 2.3786 -2.81654 -7.13777 2.55386 -2.82656 -5.4174 2.68935 -3.03536 
-3.86172 2.81131 -2.9789 -9.30388 2.95384 -2.86378 -7.9322 3.15442 -2.42811 
-6.34182 3.34014 -2.41439 -4.64547 3.4705 -2.5892 -3.15126 3.59053 -2.47723 
-9.62285 3.61758 -3.04088 -8.26285 3.76043 -2.40129 -6.87468 3.92325 -1.95629 
-5.31463 4.08974 -2.04104 -3.71714 4.22956 -2.30862 -2.31092 4.37127 -2.26553 
-9.78926 4.28918 -2.92102 -8.37443 4.45617 -2.47409 -7.04779 4.55382 -1.79424 
-5.7086 4.66571 -1.49364 -4.25778 4.80157 -1.81177 -2.82326 4.94222 -2.21707 
-1.5597 5.07418 -2.25794 -9.79869 4.7322 -2.42468 -8.47017 5.08411 -2.33723 
-7.15783 5.26743 -1.82931 -5.94509 5.34483 -1.27765 -4.71665 5.40407 -1.28356 
-3.41545 5.49482 -1.80464 -2.13928 5.61117 -2.2266 -0.994228 5.70018 -2.29508 
-8.53636 5.20924 -1.07876 -7.36654 5.57175 -0.360002 -7.45394 5.93285 -1.23787 
-6.06001 5.96757 0.311747 -6.32264 6.44173 -0.55321 -6.34162 6.50729 -1.17391 
-4.65072 6.44765 0.832967 -5.05199 6.92932 0.0620875 -5.3112 7.14054 -0.653128 
-5.30692 6.80589 -0.999446 -3.2193 7.09062 1.3494 -3.64013 7.47819 0.583093 
-4.06381 7.70355 -0.179041 -4.30959 7.4993 -0.775061 -4.259 6.87009 -1.09771 
-1.87584 7.82971 2.05766 -2.18535 8.14946 1.17094 -2.60056 8.2716 0.333596 
-2.99143 8.12008 -0.435227 -3.18821 7.61825 -1.05141 -3.08968 6.89456 -1.50582 
-0.750326 8.33418 2.79448 -0.901293 8.70821 1.85487 -1.17964 8.78306 0.925723 
[...]
POINT_DATA 1002
FIELD FieldData 4
_paraPhi 1 1002 double
6.2831853072 3.1415926536 6.2831853072 3.1415926536 4.7123889804 4.7123889804 1.5707963268 1.5707963268 3.6951670125 
5.7296109483 2.5880182947 0.5535743589 6.2831853072 6.2831853072 6.2831853072 6.2831853072 3.1415926536 3.1415926536 
3.1415926536 3.1415926536 3.1415926536 6.1053039672 5.898798347 5.6768734901 5.4599499503 5.2659633393 5.1032165617 
4.9713148346 4.8656852733 4.7809517865 0.17788134 0.38438696014 0.60631181711 0.82323535693 1.0172219679 1.1799687454 
1.3118704726 1.4175000338 1.5022335207 6.1892828907 6.1070320098 6.035312792 5.9728339911 5.9183214791 5.8706119594 
5.8286879411 5.7916808611 5.7588591896 0.093902416448 0.17615329733 0.2478725152 0.31035131605 0.36486382811 0.41257334776 
0.45449736604 0.4915044461 0.52432611754 3.3194739936 3.5259796137 3.7479044707 3.9648280105 4.1588146215 4.321561399 
4.4534631262 4.5590926874 4.6438261743 2.9637113136 2.7572056934 2.5352808365 2.3183572967 2.1243706857 1.9616239082 
1.829722181 1.7240926197 1.6393591329 3.23549507 3.3177459509 3.3894651688 3.4519439696 3.5064564817 3.5541660013 
3.5960900196 3.6330970997 3.6659187711 3.0476902371 2.9654393563 2.8937201384 2.8312413375 2.7767288255 2.7290193058 
2.6870952876 2.6500882075 2.617266536 6.2831853072 6.2831853072 6.2831853072 6.2831853072 3.1415926536 3.1415926536 
3.1415926536 3.1415926536 3.1415926536 6.1053039672 5.898798347 5.6768734901 5.4599499503 5.2659633393 5.1032165617 
4.9713148346 4.8656852733 4.7809517865 0.17788134 0.38438696014 0.60631181711 0.82323535693 1.0172219679 1.1799687454 
1.3118704726 1.4175000338 1.5022335207 6.1892828907 6.1070320098 6.035312792 5.9728339911 5.9183214791 5.8706119594 
5.8286879411 5.7916808611 5.7588591896 0.093902416448 0.17615329733 0.2478725152 0.31035131605 0.36486382811 0.41257334776 
0.45449736604 0.4915044461 0.52432611754 3.3194739936 3.5259796137 3.7479044707 3.9648280105 4.1588146215 4.321561399 
4.4534631262 4.5590926874 4.6438261743 2.9637113136 2.7572056934 2.5352808365 2.3183572967 2.1243706857 1.9616239082 
1.829722181 1.7240926197 1.6393591329 3.23549507 3.3177459509 3.3894651688 3.4519439696 3.5064564817 3.5541660013 
3.5960900196 3.6330970997 3.6659187711 3.0476902371 2.9654393563 2.8937201384 2.8312413375 2.7767288255 2.7290193058 
2.6870952876 2.6500882075 2.617266536 4.7123889804 4.7123889804 4.7123889804 4.7123889804 4.7123889804 4.7123889804 
4.7123889804 4.7123889804 4.7123889804 4.6087898617 4.4991390697 4.3857031936 4.2712800401 4.1588146215 4.0509635631 
3.94975894 3.8564636551 3.7716124825 4.8159880991 4.9256388911 5.0390747672 5.1534979207 5.2659633393 5.3738143976 
5.4750190208 5.5683143056 5.6531654782 4.6087898617 4.4991390697 4.3857031936 4.2712800401 4.1588146215 4.0509635631 
3.94975894 3.8564636551 3.7716124825 4.8159880991 4.9256388911 5.0390747672 5.1534979207 5.2659633393 5.3738143976 
5.4750190208 5.5683143056 5.6531654782 1.5707963268 1.5707963268 1.5707963268 1.5707963268 1.5707963268 1.5707963268 
1.5707963268 1.5707963268 1.5707963268 1.6743954455 1.7840462375 1.8974821136 2.0119052671 2.1243706857 2.232221744 
2.3334263672 2.426721652 2.5115728246 1.4671972081 1.3575464161 1.24411054 1.1296873865 1.0172219679 0.90937090954 
0.80816628637 0.71487100155 0.63001982895 1.6743954455 1.7840462375 1.8974821136 2.0119052671 2.1243706857 2.232221744 
2.3334263672 2.426721652 2.5115728246 1.4671972081 1.3575464161 1.24411054 1.1296873865 1.0172219679 0.90937090954 
0.80816628637 0.71487100155 0.63001982895 3.6007720849 3.4966939854 3.3839471039 3.2645756454 3.1415926536 3.0186096618 
2.8992382033 2.7864913217 2.6824132222 5.8240058758 5.9280839753 6.0408308569 6.1602023154 6.2831853072 0.12298299178 
0.2423544503 0.35510133185 0.45917943135 6.0560271438 5.7885595667 5.9702140275 5.5125918794 5.6029703303 5.7885595667 
5.2659633393 5.2659633393 5.2659633393 5.2659633393 5.0674903122 5.0120975802 4.9155579264 4.7123889804 4.1588146215 
4.9155579264 4.8353719722 4.7123889804 4.5092200343 4.1588146215 3.6362183941 4.8004512023 4.7123889804 4.5894059886 
4.4126803806 4.1588146215 3.8218076305 3.4545639333 4.7123889804 4.6243267584 4.5092200343 4.3572876485 4.1588146215 
3.9121860814 3.6362183941 3.368750817 6.0174235957 5.9434319871 5.8263323547 5.8809213739 5.7674481418 5.6279784266 
5.8278025282 5.718968232 5.5891129425 5.4372443565 5.7823484065 5.678536687 5.5575666702 5.4192596322 5.2659633393 
5.743164462 5.6444075337 5.5314983644 5.4046708639 5.2659633393 5.1195510325 5.7091357773 5.6152775188 5.5096229709 
5.3926039573 5.2659633393 5.1329233157 4.9978930058 5.6793730533 5.5901633916 5.4910209005 5.3824597928 5.2659633393 
5.1440684722 5.0201624502 4.8979782167 5.5683143056 5.4750190208 5.4750190208 5.3738143976 5.3738143976 5.3738143976 
5.2659633393 5.2659633393 5.2659633393 5.2659633393 5.1534979207 5.1534979207 5.1534979207 5.1534979207 5.1534979207 
5.0390747672 5.0390747672 5.0390747672 5.0390747672 5.0390747672 5.0390747672 4.9256388911 4.9256388911 4.9256388911 
4.9256388911 4.9256388911 4.9256388911 4.9256388911 4.8159880991 4.8159880991 4.8159880991 4.8159880991 4.8159880991 
4.8159880991 4.8159880991 4.8159880991 4.6087898617 4.6087898617 4.4991390697 4.6087898617 4.4991390697 4.3857031936 
4.6087898617 4.4991390697 4.3857031936 4.2712800401 4.6087898617 4.4991390697 4.3857031936 4.2712800401 4.1588146215 
4.6087898617 4.4991390697 4.3857031936 4.2712800401 4.1588146215 4.0509635631 4.6087898617 4.4991390697 4.3857031936 
4.2712800401 4.1588146215 4.0509635631 3.94975894 4.6087898617 4.4991390697 4.3857031936 4.2712800401 4.1588146215 
4.0509635631 3.94975894 3.8564636551 4.526799744 4.4046155105 4.426884955 4.2807094886 4.2918546451 4.3052269283 
4.1588146215 4.1588146215 4.1588146215 4.1588146215 4.042318168 4.0321740035 4.0201070968 4.0055183285 3.9875336042 
3.9337570603 3.9151549899 3.8932795963 3.8672112905 3.8356650183 3.7967995342 3.8346145692 3.809500442 3.7803704271 
3.7462412737 3.7058097288 3.657329819 3.5984456061 3.7454049075 3.7156421835 3.6816134988 3.6424295543 3.5969754326 
3.5438565869 3.4813459737 3.4073543651 3.5642842451 3.4524645613 3.5233842518 3.3320300872 3.403123212 3.4773852225 
3.20576226 3.2746326772 3.348015857 3.4255060145 3.0774230472 3.1415926536 3.2112816139 3.2864685043 3.3668817272 
2.95115522 3.00855263 3.0719036933 3.1415926536 3.2178377658 3.3005964304 2.8307207459 2.8800620952 2.9351694502 
2.9967168029 3.0653475414 3.1415926536 3.225752376 2.718901062 2.7598010554 2.8058000847 2.8576792927 2.91630358 
2.9825888767 3.0574329311 3.1415926536 3.5642842451 3.5233842518 3.4524645613 3.4773852225 3.403123212 3.3320300872 
3.4255060145 3.348015857 3.2746326772 3.20576226 3.3668817272 3.2864685043 3.2112816139 3.1415926536 3.0774230472 
3.3005964304 3.2178377658 3.1415926536 3.0719036933 3.00855263 2.95115522 3.225752376 3.1415926536 3.0653475414 
2.9967168029 2.9351694502 2.8800620952 2.8307207459 3.1415926536 3.0574329311 2.9825888767 2.91630358 2.8576792927 
2.8058000847 2.7598010554 2.718901062 4.526799744 4.426884955 4.4046155105 4.3052269283 4.2918546451 4.2807094886 
4.1588146215 4.1588146215 4.1588146215 4.1588146215 3.9875336042 4.0055183285 4.0201070968 4.0321740035 4.042318168 
3.7967995342 3.8356650183 3.8672112905 3.8932795963 3.9151549899 3.9337570603 3.5984456061 3.657329819 3.7058097288 
3.7462412737 3.7803704271 3.809500442 3.8346145692 3.4073543651 3.4813459737 3.5438565869 3.5969754326 3.6424295543 
3.6816134988 3.7156421835 3.7454049075 4.7123889804 4.8004512023 4.6243267584 4.9155579264 4.7123889804 4.5092200343 
5.0674903122 4.8353719722 4.5894059886 4.3572876485 5.2659633393 5.0120975802 4.7123889804 4.4126803806 4.1588146215 
5.5125918794 5.2659633393 4.9155579264 4.5092200343 4.1588146215 3.9121860814 5.7885595667 5.6029703303 5.2659633393 
4.7123889804 4.1588146215 3.8218076305 3.6362183941 6.0560271438 5.9702140275 5.7885595667 5.2659633393 4.1588146215 
3.6362183941 3.4545639333 3.368750817 0.22715816343 0.49462574053 0.3129712797 0.77059342779 0.68021497688 0.49462574053 
1.0172219679 1.0172219679 1.0172219679 1.0172219679 1.2156949949 1.271087727 1.3676273807 1.5707963268 2.1243706857 
1.3676273807 1.447813335 1.5707963268 1.7739652728 2.1243706857 2.6469669131 1.4827341049 1.5707963268 1.6937793186 
1.8705049266 2.1243706857 2.4613776767 2.8286213739 1.5707963268 1.6588585487 1.7739652728 1.9258976586 2.1243706857 
2.3709992258 2.6469669131 2.9144344902 1.7563855631 1.8785697967 1.8563003522 2.0024758186 1.9913306621 1.9779583789 
2.1243706857 2.1243706857 2.1243706857 2.1243706857 2.2408671392 2.2510113037 2.2630782103 2.2776669786 2.295651703 
2.3494282469 2.3680303173 2.3899057108 2.4159740166 2.4475202889 2.486385773 2.448570738 2.4736848652 2.5028148801 
2.5369440334 2.5773755784 2.6258554882 2.6847397011 2.5377803997 2.5675431237 2.6015718084 2.6407557529 2.6862098746 
2.7393287203 2.8018393335 2.8758309421 1.6743954455 1.6743954455 1.7840462375 1.6743954455 1.7840462375 1.8974821136 
1.6743954455 1.7840462375 1.8974821136 2.0119052671 1.6743954455 1.7840462375 1.8974821136 2.0119052671 2.1243706857 
1.6743954455 1.7840462375 1.8974821136 2.0119052671 2.1243706857 2.232221744 1.6743954455 1.7840462375 1.8974821136 
2.0119052671 2.1243706857 2.232221744 2.3334263672 1.6743954455 1.7840462375 1.8974821136 2.0119052671 2.1243706857 
2.232221744 2.3334263672 2.426721652 1.4671972081 1.3575464161 1.4671972081 1.24411054 1.3575464161 1.4671972081 
1.1296873865 1.24411054 1.3575464161 1.4671972081 1.0172219679 1.1296873865 1.24411054 1.3575464161 1.4671972081 
0.90937090954 1.0172219679 1.1296873865 1.24411054 1.3575464161 1.4671972081 0.80816628637 0.90937090954 1.0172219679 
1.1296873865 1.24411054 1.3575464161 1.4671972081 0.71487100155 0.80816628637 0.90937090954 1.0172219679 1.1296873865 
1.24411054 1.3575464161 1.4671972081 0.60381225391 0.57404952988 0.69302191562 0.54002084522 0.66790778838 0.79216440667 
0.50083690068 0.63877777351 0.77356233629 0.90072551443 0.45538277901 0.60464862014 0.75168694275 0.89058134991 1.0172219679 
0.40226393329 0.56421707518 0.72561863695 0.87851444325 1.0172219679 1.139116835 0.33975332011 0.51573716537 0.69407236469 
0.86392567495 1.0172219679 1.1502619915 1.2630228569 0.26576171152 0.45685295248 0.6552068806 0.84594095064 1.0172219679 
1.1636342747 1.2852923014 1.3852070904 0.22715816343 0.3129712797 0.49462574053 0.49462574053 0.68021497688 0.77059342779 
1.0172219679 1.0172219679 1.0172219679 1.0172219679 2.1243706857 1.5707963268 1.3676273807 1.271087727 1.2156949949 
2.6469669131 2.1243706857 1.7739652728 1.5707963268 1.447813335 1.3676273807 2.8286213739 2.4613776767 2.1243706857 
1.8705049266 1.6937793186 1.5707963268 1.4827341049 2.9144344902 2.6469669131 2.3709992258 2.1243706857 1.9258976586 
1.7739652728 1.6588585487 1.5707963268 1.7563855631 1.8563003522 1.8785697967 1.9779583789 1.9913306621 2.0024758186 
2.1243706857 2.1243706857 2.1243706857 2.1243706857 2.295651703 2.2776669786 2.2630782103 2.2510113037 2.2408671392 
2.486385773 2.4475202889 2.4159740166 2.3899057108 2.3680303173 2.3494282469 2.6847397011 2.6258554882 2.5773755784 
2.5369440334 2.5028148801 2.4736848652 2.448570738 2.8758309421 2.8018393335 2.7393287203 2.6862098746 2.6407557529 
2.6015718084 2.5675431237 2.5377803997 5.8604937156 5.901393709 5.9723133995 5.9473927383 6.0216547488 6.0927478736 
5.9992719463 6.0767621038 6.1501452836 6.2190157008 6.0578962336 6.1383094565 6.2134963469 0 0.064169606361 
6.1241815303 6.206940195 6.2831853072 0.069688960264 0.13304002361 0.19043743361 6.1990255847 0 0.07624511221 
0.14487585072 0.20642320337 0.26153055843 0.3108719077 0 0.084159722458 0.15900377685 0.22528907359 0.28391336087 
0.3357925689 0.38179159818 0.42269159155 5.8604937156 5.9723133995 5.901393709 6.0927478736 6.0216547488 5.9473927383 
6.2190157008 6.1501452836 6.0767621038 5.9992719463 0.064169606361 0 6.2134963469 6.1383094565 6.0578962336 
0.19043743361 0.13304002361 0.069688960264 6.2831853072 6.206940195 6.1241815303 0.3108719077 0.26153055843 0.20642320337 
0.14487585072 0.07624511221 6.2831853072 6.1990255847 0.42269159155 0.38179159818 0.3357925689 0.28391336087 0.22528907359 
0.15900377685 0.084159722458 0 5.6793730533 5.7091357773 5.5901633916 5.743164462 5.6152775188 5.4910209005 
5.7823484065 5.6444075337 5.5096229709 5.3824597928 5.8278025282 5.678536687 5.5314983644 5.3926039573 5.2659633393 
5.8809213739 5.718968232 5.5575666702 5.4046708639 5.2659633393 5.1440684722 5.9434319871 5.7674481418 5.5891129425 
5.4192596322 5.2659633393 5.1329233157 5.0201624502 6.0174235957 5.8263323547 5.6279784266 5.4372443565 5.2659633393 
5.1195510325 4.9978930058 4.8979782167 1.3852070904 1.2852923014 1.2630228569 1.1636342747 1.1502619915 1.139116835 
1.0172219679 1.0172219679 1.0172219679 1.0172219679 0.84594095064 0.86392567495 0.87851444325 0.89058134991 0.90072551443 
0.6552068806 0.69407236469 0.72561863695 0.75168694275 0.77356233629 0.79216440667 0.45685295248 0.51573716537 0.56421707518 
0.60464862014 0.63877777351 0.66790778838 0.69302191562 0.26576171152 0.33975332011 0.40226393329 0.45538277901 0.50083690068 
0.54002084522 0.57404952988 0.60381225391 
_paraPhiHalf 1 1002 double
0 3.1415926536 0 3.1415926536 1.5707963268 1.5707963268 1.5707963268 1.5707963268 2.5880182947 
0.5535743589 2.5880182947 0.5535743589 0 0 0 0 3.1415926536 3.1415926536 
3.1415926536 3.1415926536 3.1415926536 0.17788134 0.38438696014 0.60631181711 0.82323535693 1.0172219679 1.1799687454 
1.3118704726 1.4175000338 1.5022335207 0.17788134 0.38438696014 0.60631181711 0.82323535693 1.0172219679 1.1799687454 
1.3118704726 1.4175000338 1.5022335207 0.093902416448 0.17615329733 0.2478725152 0.31035131605 0.36486382811 0.41257334776 
0.45449736604 0.4915044461 0.52432611754 0.093902416448 0.17615329733 0.2478725152 0.31035131605 0.36486382811 0.41257334776 
0.45449736604 0.4915044461 0.52432611754 2.9637113136 2.7572056934 2.5352808365 2.3183572967 2.1243706857 1.9616239082 
1.829722181 1.7240926197 1.6393591329 2.9637113136 2.7572056934 2.5352808365 2.3183572967 2.1243706857 1.9616239082 
1.829722181 1.7240926197 1.6393591329 3.0476902371 2.9654393563 2.8937201384 2.8312413375 2.7767288255 2.7290193058 
2.6870952876 2.6500882075 2.617266536 3.0476902371 2.9654393563 2.8937201384 2.8312413375 2.7767288255 2.7290193058 
2.6870952876 2.6500882075 2.617266536 0 0 0 0 3.1415926536 3.1415926536 
3.1415926536 3.1415926536 3.1415926536 0.17788134 0.38438696014 0.60631181711 0.82323535693 1.0172219679 1.1799687454 
1.3118704726 1.4175000338 1.5022335207 0.17788134 0.38438696014 0.60631181711 0.82323535693 1.0172219679 1.1799687454 
1.3118704726 1.4175000338 1.5022335207 0.093902416448 0.17615329733 0.2478725152 0.31035131605 0.36486382811 0.41257334776 
0.45449736604 0.4915044461 0.52432611754 0.093902416448 0.17615329733 0.2478725152 0.31035131605 0.36486382811 0.41257334776 
0.45449736604 0.4915044461 0.52432611754 2.9637113136 2.7572056934 2.5352808365 2.3183572967 2.1243706857 1.9616239082 
1.829722181 1.7240926197 1.6393591329 2.9637113136 2.7572056934 2.5352808365 2.3183572967 2.1243706857 1.9616239082 
1.829722181 1.7240926197 1.6393591329 3.0476902371 2.9654393563 2.8937201384 2.8312413375 2.7767288255 2.7290193058 
2.6870952876 2.6500882075 2.617266536 3.0476902371 2.9654393563 2.8937201384 2.8312413375 2.7767288255 2.7290193058 
2.6870952876 2.6500882075 2.617266536 1.5707963268 1.5707963268 1.5707963268 1.5707963268 1.5707963268 1.5707963268 
1.5707963268 1.5707963268 1.5707963268 1.6743954455 1.7840462375 1.8974821136 2.0119052671 2.1243706857 2.232221744 
2.3334263672 2.426721652 2.5115728246 1.4671972081 1.3575464161 1.24411054 1.1296873865 1.0172219679 0.90937090954 
0.80816628637 0.71487100155 0.63001982895 1.6743954455 1.7840462375 1.8974821136 2.0119052671 2.1243706857 2.232221744 
2.3334263672 2.426721652 2.5115728246 1.4671972081 1.3575464161 1.24411054 1.1296873865 1.0172219679 0.90937090954 
0.80816628637 0.71487100155 0.63001982895 1.5707963268 1.5707963268 1.5707963268 1.5707963268 1.5707963268 1.5707963268 
1.5707963268 1.5707963268 1.5707963268 1.6743954455 1.7840462375 1.8974821136 2.0119052671 2.1243706857 2.232221744 
2.3334263672 2.426721652 2.5115728246 1.4671972081 1.3575464161 1.24411054 1.1296873865 1.0172219679 0.90937090954 
0.80816628637 0.71487100155 0.63001982895 1.6743954455 1.7840462375 1.8974821136 2.0119052671 2.1243706857 2.232221744 
2.3334263672 2.426721652 2.5115728246 1.4671972081 1.3575464161 1.24411054 1.1296873865 1.0172219679 0.90937090954 
0.80816628637 0.71487100155 0.63001982895 2.6824132222 2.7864913217 2.8992382033 3.0186096618 3.1415926536 3.0186096618 
2.8992382033 2.7864913217 2.6824132222 0.45917943135 0.35510133185 0.2423544503 0.12298299178 0 0.12298299178 
0.2423544503 0.35510133185 0.45917943135 0.22715816343 0.49462574053 0.3129712797 0.77059342779 0.68021497688 0.49462574053 
1.0172219679 1.0172219679 1.0172219679 1.0172219679 1.2156949949 1.271087727 1.3676273807 1.5707963268 2.1243706857 
1.3676273807 1.447813335 1.5707963268 1.7739652728 2.1243706857 2.6469669131 1.4827341049 1.5707963268 1.6937793186 
1.8705049266 2.1243706857 2.4613776767 2.8286213739 1.5707963268 1.6588585487 1.7739652728 1.9258976586 2.1243706857 
2.3709992258 2.6469669131 2.9144344902 0.26576171152 0.33975332011 0.45685295248 0.40226393329 0.51573716537 0.6552068806 
0.45538277901 0.56421707518 0.69407236469 0.84594095064 0.50083690068 0.60464862014 0.72561863695 0.86392567495 1.0172219679 
0.54002084522 0.63877777351 0.75168694275 0.87851444325 1.0172219679 1.1636342747 0.57404952988 0.66790778838 0.77356233629 
0.89058134991 1.0172219679 1.1502619915 1.2852923014 0.60381225391 0.69302191562 0.79216440667 0.90072551443 1.0172219679 
1.139116835 1.2630228569 1.3852070904 0.71487100155 0.80816628637 0.80816628637 0.90937090954 0.90937090954 0.90937090954 
1.0172219679 1.0172219679 1.0172219679 1.0172219679 1.1296873865 1.1296873865 1.1296873865 1.1296873865 1.1296873865 
1.24411054 1.24411054 1.24411054 1.24411054 1.24411054 1.24411054 1.3575464161 1.3575464161 1.3575464161 
1.3575464161 1.3575464161 1.3575464161 1.3575464161 1.4671972081 1.4671972081 1.4671972081 1.4671972081 1.4671972081 
1.4671972081 1.4671972081 1.4671972081 1.6743954455 1.6743954455 1.7840462375 1.6743954455 1.7840462375 1.8974821136 
1.6743954455 1.7840462375 1.8974821136 2.0119052671 1.6743954455 1.7840462375 1.8974821136 2.0119052671 2.1243706857 
1.6743954455 1.7840462375 1.8974821136 2.0119052671 2.1243706857 2.232221744 1.6743954455 1.7840462375 1.8974821136 
2.0119052671 2.1243706857 2.232221744 2.3334263672 1.6743954455 1.7840462375 1.8974821136 2.0119052671 2.1243706857 
2.232221744 2.3334263672 2.426721652 1.7563855631 1.8785697967 1.8563003522 2.0024758186 1.9913306621 1.9779583789 
2.1243706857 2.1243706857 2.1243706857 2.1243706857 2.2408671392 2.2510113037 2.2630782103 2.2776669786 2.295651703 
2.3494282469 2.3680303173 2.3899057108 2.4159740166 2.4475202889 2.486385773 2.448570738 2.4736848652 2.5028148801 
2.5369440334 2.5773755784 2.6258554882 2.6847397011 2.5377803997 2.5675431237 2.6015718084 2.6407557529 2.6862098746 
2.7393287203 2.8018393335 2.8758309421 2.718901062 2.8307207459 2.7598010554 2.95115522 2.8800620952 2.8058000847 
3.0774230472 3.00855263 2.9351694502 2.8576792927 3.0774230472 3.1415926536 3.0719036933 2.9967168029 2.91630358 
2.95115522 3.00855263 3.0719036933 3.1415926536 3.0653475414 2.9825888767 2.8307207459 2.8800620952 2.9351694502 
2.9967168029 3.0653475414 3.1415926536 3.0574329311 2.718901062 2.7598010554 2.8058000847 2.8576792927 2.91630358 
2.9825888767 3.0574329311 3.1415926536 2.718901062 2.7598010554 2.8307207459 2.8058000847 2.8800620952 2.95115522 
2.8576792927 2.9351694502 3.00855263 3.0774230472 2.91630358 2.9967168029 3.0719036933 3.1415926536 3.0774230472 
2.9825888767 3.0653475414 3.1415926536 3.0719036933 3.00855263 2.95115522 3.0574329311 3.1415926536 3.0653475414 