# vtk DataFile Version 5.1
vtk output
ASCII
DATASET POLYDATA
POINTS 100 float
28.0626 46.2819 11.5188 28.0575 46.2759 11.5313 28.0412 46.2549 11.5638 
28.0132 46.2194 11.6139 27.9728 46.1706 11.6774 27.9192 46.1098 11.7494 
27.8516 46.0385 11.8242 27.7693 45.9581 11.8964 27.6718 45.8702 11.9612 
27.5593 45.7756 12.0149 27.4319 45.6754 12.0552 27.2905 45.5698 12.0811 
27.136 45.4589 12.0935 26.9697 45.3424 12.0941 26.7929 45.2198 12.086 
26.6069 45.0904 12.0727 26.4128 44.9536 12.0575 26.2114 44.8089 12.0438 
26.0034 44.6558 12.034 25.7888 44.4945 12.0299 25.5675 44.3254 12.0321 
25.3394 44.1493 12.0404 25.1042 43.9674 12.0539 24.8615 43.7809 12.0712 
24.6114 43.5916 12.0907 24.3542 43.401 12.1109 24.0908 43.2106 12.1308 
23.8222 43.0218 12.1501 23.55 42.8356 12.1687 23.2761 42.6525 12.1876 
23.0023 42.4728 12.2078 22.7307 42.2964 12.231 22.4629 42.1226 12.2586 
22.2002 41.9508 12.2919 21.9435 41.78 12.3316 21.6929 41.6092 12.3779 
21.4481 41.4376 12.4304 21.2079 41.2645 12.4881 20.9711 41.0892 12.5495 
20.7356 40.9117 12.6129 20.4997 40.732 12.6765 20.2614 40.5504 12.739 
20.0189 40.3675 12.7992 19.7711 40.1838 12.8567 19.5169 40.0002 12.9115 
19.2561 39.8173 12.9646 18.9889 39.6358 13.0169 18.7159 39.4561 13.07 
18.438 39.2785 13.1253 18.1564 39.1032 13.1843 17.8724 38.9302 13.2478 
17.5871 38.7592 13.3162 17.3016 38.5901 13.3895 17.0165 38.4228 13.467 
16.7324 38.2569 13.5475 16.4493 38.0923 13.6298 16.1672 37.9289 13.7125 
15.8858 37.7666 13.7943 15.6048 37.6055 13.8743 15.3236 37.4455 13.952 
15.0422 37.2866 14.0274 14.7603 37.1284 14.1012 14.478 36.9707 14.174 
14.1957 36.813 14.2471 13.9139 36.6546 14.3214 13.6335 36.4949 14.3979 
13.3555 36.333 14.4772 13.0807 36.1681 14.5593 12.8105 35.9996 14.6439 
12.5459 35.827 14.7301 12.2879 35.6503 14.817 12.0374 35.4696 14.9032 
11.7951 35.2854 14.9877 11.5615 35.0988 15.0696 11.3367 34.9111 15.1484 
11.1205 34.7236 15.2244 10.9127 34.5381 15.2981 10.7123 34.3561 15.3708 
10.5182 34.1791 15.4438 10.329 34.0082 15.5188 10.1429 33.8442 15.5971 
9.95805 33.6874 15.6796 9.77244 33.5376 15.7667 9.58417 33.3944 15.858 
9.39157 33.2567 15.9522 9.19339 33.1237 16.0475 8.98896 32.9941 16.1413 
8.77836 32.8671 16.2309 8.56257 32.742 16.3134 8.34351 32.6187 16.3864 
8.12407 32.4977 16.4481 7.90801 32.3799 16.4974 7.69989 32.2671 16.5341 
7.50476 32.1614 16.5591 7.32798 32.0652 16.5739 7.17481 31.9813 16.5806 
7.05017 31.9122 16.5818 6.95823 31.8604 16.5798 6.90219 31.8277 16.5767 
6.88405 31.8154 16.5737 
LINES 2 100
OFFSETS vtktypeint64
0 100 
CONNECTIVITY vtktypeint64
0 1 2 3 4 5 6 7 8 
9 10 11 12 13 14 15 16 17 
18 19 20 21 22 23 24 25 26 
27 28 29 30 31 32 33 34 35 
36 37 38 39 40 41 42 43 44 
45 46 47 48 49 50 51 52 53 
54 55 56 57 58 59 60 61 62 
63 64 65 66 67 68 69 70 71 
72 73 74 75 76 77 78 79 80 
81 82 83 84 85 86 87 88 89 
90 91 92 93 94 95 96 97 98 
99 
POINT_DATA 100
FIELD FieldData 3
_theta 1 100 double
0 0.031733259127 0.063466518254 0.095199777382 0.12693303651 0.15866629564 0.19039955476 0.22213281389 0.25386607302 
0.28559933214 0.31733259127 0.3490658504 0.38079910953 0.41253236865 0.44426562778 0.47599888691 0.50773214603 0.53946540516 
0.57119866429 0.60293192342 0.63466518254 0.66639844167 0.6981317008 0.72986495992 0.76159821905 0.79333147818 0.82506473731 
0.85679799643 0.88853125556 0.92026451469 0.95199777382 0.98373103294 1.0154642921 1.0471975512 1.0789308103 1.1106640695 
1.1423973286 1.1741305877 1.2058638468 1.237597106 1.2693303651 1.3010636242 1.3327968833 1.3645301425 1.3962634016 
1.4279966607 1.4597299198 1.491463179 1.5231964381 1.5549296972 1.5866629564 1.6183962155 1.6501294746 1.6818627337 
1.7135959929 1.745329252 1.7770625111 1.8087957702 1.8405290294 1.8722622885 1.9039955476 1.9357288068 1.9674620659 
1.999195325 2.0309285841 2.0626618433 2.0943951024 2.1261283615 2.1578616206 2.1895948798 2.2213281389 2.253061398 
2.2847946572 2.3165279163 2.3482611754 2.3799944345 2.4117276937 2.4434609528 2.4751942119 2.506927471 2.5386607302 
2.5703939893 2.6021272484 2.6338605076 2.6655937667 2.6973270258 2.7290602849 2.7607935441 2.7925268032 2.8242600623 
2.8559933214 2.8877265806 2.9194598397 2.9511930988 2.982926358 3.0146596171 3.0463928762 3.0781261353 3.1098593945 
3.1415926536 
_radius 1 100 double
3.2802534578e-14 0.29522147188 0.58937045837 0.88114433712 1.1690202937 1.4512223489 1.725758062 1.9905288893 2.2435015907 
2.4829117862 2.7074599956 2.9164591831 3.1099023135 3.288436884 3.453255796 3.6059326876 3.7482376493 3.8819635544 
4.0087793995 4.130115138 4.2470789626 4.3604107057 4.4704775579 4.5773171402 4.6807285691 4.7804052588 4.8760937902 
4.9677529044 5.0556798214 5.1405717218 5.2234993379 5.3057850804 5.3887970017 5.4736893702 5.5611366994 5.6511146458 
5.7427735399 5.8344311265 5.923689688 6.007665951 6.0833092097 6.1477708438 6.1987776184 6.2349556976 6.2560553068 
6.2630379337 6.2580071055 6.2439871388 6.22457794 6.2035332268 6.1843199345 6.1697159491 6.1614937173 6.1602239748 
6.1652212286 6.1746408197 6.1857232049 6.195162988 6.1995610549 6.1959029243 6.1819985174 6.1568189057 6.120674117 
6.0751927498 6.023088608 5.9677301169 5.9125615747 5.8604564105 5.8131049257 5.7705447428 5.7309255729 5.6905618447 
5.6442764174 5.5859894562 5.5094694769 5.4091432574 5.2808569086 5.122488687 4.9343321852 4.719194641 4.4821878186 
4.2302257135 3.971280165 3.7134776402 3.464144108 3.2289175689 3.0110472284 2.8109816287 2.6263135822 2.4520999054 
2.2815160235 2.1067519642 1.9200227393 1.7145611569 1.4854774699 1.2303935117 0.94978248641 0.6469726335 0.32780788241 
7.3292638826e-14 
_area 1 100 double
0 0.26749002777 1.0655003856 2.3801290584 4.1865919821 6.447289204 9.1101513436 12.108318924 15.362166646 
18.784141176 22.285924835 25.786503421 29.219360469 32.537485764 35.715808656 38.75130167 41.660897335 44.476847257 
47.239084223 49.985114013 52.739593973 55.506804464 58.268571869 60.988286332 63.619696141 66.116868104 68.44973047 
70.618356247 72.653877958 74.614251713 76.577927209 78.635052586 80.875890064 83.376871147 86.188548098 89.32218441 
92.725103579 96.290546168 99.870329455 103.28791852 106.36443303 108.94064422 110.8980109 112.22502465 112.90367214 
112.98700507 112.58620972 111.84966054 110.94325517 110.02985572 109.25048734 108.70916042 108.46324948 108.52127411 
108.84824274 109.37555101 110.01029573 110.64166133 111.1499112 111.42460972 111.38553623 110.99312139 110.24804854 
109.18978126 107.89438978 106.46441589 105.00987348 103.62481225 102.36422764 101.22579637 100.14058019 98.975597389 
97.549030824 95.656313311 93.102885965 89.737739036 85.48159332 80.344778752 74.431868167 67.932273554 61.098073863 
54.212368422 47.553261571 41.359533663 35.803566657 30.975381404 26.879590201 23.445173776 20.545803844 18.026176864 
15.729369633 13.521878284 11.314434388 9.076658012 6.8430712892 4.708238755 2.8103595239 1.3052289532 0.33524365406 
5.6843418861e-14 
