# vtk DataFile Version 5.1
vtk output
ASCII
DATASET POLYDATA
POINTS 1002 float
-5.28251 0.0941179 -4.39823 5.9586 0.0371993 -2.72204 -6.09288 -0.0513482 4.0968 
6.02773 0.143986 4.49362 0.763007 6.05494 -2.82842 1.66393 7.63513 3.8513 
-0.551153 -7.03154 -4.13859 0.242785 -6.4743 2.95585 9.2995 4.79917 -1.41098 
-12.4324 4.41833 -1.69534 10.4969 -4.95374 -0.280939 -10.2279 -4.47082 -0.615072 
-4.17149 0.0748325 -4.62372 -2.92911 0.0799025 -4.54042 -1.7153 0.0161479 -3.99198 
-0.637416 -0.124099 -3.12079 0.442418 -0.189733 -2.25762 1.71135 -0.0825783 -1.65371 
3.07085 0.0738996 -1.45438 4.26394 0.127594 -1.6962 5.19879 0.0867368 -2.20801 
-4.89694 0.688122 -4.15627 -4.38874 1.36871 -3.78833 -3.72389 2.08759 -3.44655 
-2.99654 2.79156 -3.12288 -2.31564 3.4521 -2.5539 -1.61846 4.05724 -1.69892 
-0.834808 4.60787 -1.09192 -0.102436 5.11959 -1.24593 0.419914 5.60299 -2.01022 
-5.02091 -0.504653 -4.58149 -4.75206 -1.16274 -4.36725 -4.33518 -1.916 -3.89406 
-3.68015 -2.7633 -3.6876 -2.89507 -3.61137 -4.08057 -2.18329 -4.37749 -4.74158 
-1.64827 -5.10515 -5.12716 -1.26341 -5.84595 -5.0717 -0.931645 -6.52557 -4.69809 
-6.16261 0.524038 -3.95286 -7.21065 1.04366 -3.54365 -8.34653 1.63408 -3.27144 
-9.34101 2.2315 -2.9865 -10.0757 2.76952 -2.62975 -10.7565 3.26534 -2.44651 
-11.5676 3.77098 -2.53276 -12.2988 4.21767 -2.57587 -12.6109 4.45153 -2.28362 
-6.12209 -0.188777 -4.26134 -6.96386 -0.448503 -4.07139 -7.82764 -0.762741 -3.83787 
-8.627 -1.17959 -3.49515 -9.23502 -1.65783 -3.04836 -9.68939 -2.18387 -2.63841 
-10.0903 -2.81022 -2.30149 -10.3699 -3.49485 -1.8809 -10.4075 -4.08292 -1.28658 
5.62779 0.676851 -2.64053 5.29178 1.48118 -2.42444 4.94021 2.34597 -2.14633 
4.43364 3.14784 -2.08829 3.67014 3.93003 -2.56224 2.80414 4.73386 -3.43895 
2.09499 5.36381 -4.10303 1.59847 5.66867 -4.09872 1.18864 5.8153 -3.54225 
5.79275 -0.494192 -2.44043 5.44681 -1.09422 -2.17711 4.78036 -1.86995 -1.99198 
3.84885 -2.75871 -1.8966 2.9344 -3.57395 -2.00808 2.23417 -4.29106 -2.51496 
1.63626 -5.03864 -3.32592 0.948068 -5.82088 -4.02427 0.171715 -6.51046 -4.28967 
6.51735 0.407357 -3.1237 7.17854 0.906843 -3.39477 7.87206 1.46113 -3.5991 
8.46778 1.95654 -3.92371 8.97403 2.44302 -4.29216 9.49305 3.09672 -4.27358 
9.92955 3.87924 -3.65874 10.0389 4.50017 -2.76519 9.76632 4.77806 -1.98596 
6.61131 -0.332299 -2.95683 7.28923 -0.73708 -3.07658 7.94071 -1.22528 -3.15474 
8.55886 -1.78433 -3.22889 9.2448 -2.34986 -3.18044 10.0444 -2.91798 -2.88691 
10.7346 -3.52841 -2.38152 11.0176 -4.13406 -1.74499 10.8679 -4.62542 -1.02198 
-5.05142 0.0448652 4.54303 -3.85015 0.15087 4.92572 -2.46217 0.290783 5.13029 
-0.932799 0.44353 5.13595 0.611428 0.52562 5.01923 2.02856 0.483467 4.86902 
3.24998 0.370774 4.76165 4.29886 0.274365 4.72363 5.2206 0.211462 4.67182 
-5.80657 0.515485 4.39638 -5.30925 1.11435 4.6509 -4.54501 1.78644 4.82394 
-3.58502 2.60587 4.96947 -2.57618 3.52753 5.15487 -1.584 4.40183 5.30349 
-0.596033 5.21437 5.24044 0.336462 6.06808 4.90573 1.10543 6.93 4.40013 
-5.665 -0.548835 4.0765 -5.13316 -1.07001 3.98251 -4.44814 -1.67105 3.71911 
-3.62308 -2.40286 3.38925 -2.78202 -3.18637 3.23715 -2.06317 -3.9196 3.32842 
-1.48837 -4.63537 3.46246 -0.966012 -5.35909 3.44146 -0.396684 -5.99553 3.24476 
-6.99999 0.205656 3.88357 -8.03414 0.480528 3.80662 -9.14407 0.744652 3.76786 
-10.1943 1.02108 3.46575 -11.0221 1.39431 2.73018 -11.5808 1.91232 1.72581 
-11.9889 2.53585 0.70191 -12.3349 3.20211 -0.233954 -12.528 3.85365 -1.0463 
-6.84632 -0.487058 3.61216 -7.69125 -0.97867 3.1557 -8.69529 -1.47667 2.84806 
-9.77071 -1.97814 2.65523 -10.6303 -2.56673 2.38525 -11.0328 -3.27355 1.91631 
-11.0318 -3.95189 1.29632 -10.8411 -4.40033 0.619003 -10.5741 -4.54854 -0.0409924 
5.79467 0.817296 4.49326 5.42934 1.57872 4.52633 4.94558 2.43298 4.60448 
4.42803 3.32879 4.687 3.96981 4.24215 4.81984 3.60468 5.19887 5.0859 
3.26822 6.13651 5.31196 2.84351 6.88969 5.16709 2.28661 7.3699 4.59448 
5.71611 -0.484723 4.62937 5.40095 -1.19343 4.7258 5.10086 -1.96458 4.77209 
4.65763 -2.74909 4.72495 3.92167 -3.52843 4.56678 3.04524 -4.31181 4.34732 
2.28696 -5.04151 4.09214 1.6431 -5.62758 3.7657 0.96677 -6.07728 3.36711 
6.66021 0.470043 4.13594 7.21751 0.808339 3.56667 7.67241 1.16702 2.91936 
8.14301 1.59331 2.4079 8.67962 2.10375 1.99203 9.08004 2.61565 1.37729 
9.19209 3.07446 0.508877 9.17092 3.5683 -0.326146 9.21126 4.17192 -0.939994 
6.61135 -0.362656 4.26167 7.23287 -0.993065 3.89043 7.90733 -1.66894 3.46183 
8.57163 -2.24607 3.04776 9.09294 -2.69978 2.58399 9.43847 -3.16706 2.00616 
9.75117 -3.72157 1.39956 10.1236 -4.26757 0.842558 10.4318 -4.68837 0.293694 
0.657155 6.60372 -2.687 0.517063 7.33394 -2.27079 0.407561 8.14201 -1.68567 
0.467931 8.74563 -1.02596 0.738871 8.93837 -0.2555 1.05645 8.82511 0.637884 
1.26673 8.62962 1.51719 1.40208 8.4023 2.29965 1.53922 8.07507 3.06115 
1.35963 6.36125 -3.93154 2.10768 6.80908 -4.7147 3.07336 7.20716 -4.82051 
4.12577 7.23179 -4.321 5.1323 6.8677 -3.6356 6.16432 6.52403 -3.03701 
7.25532 6.41041 -2.50765 8.20942 6.2197 -2.02937 8.86839 5.65205 -1.66414 
0.0363859 6.20435 -1.82336 -0.93542 6.36968 -1.16485 -2.23866 6.25802 -0.908009 
-3.85848 5.9242 -0.954704 -5.57357 5.82145 -1.21148 -7.17643 6.07191 -1.567 
-8.69577 6.19021 -1.84062 -10.1737 5.81852 -1.93148 -11.4688 5.1258 -1.87134 
2.47356 7.9741 3.68817 3.17255 7.98766 3.30084 3.77707 7.67085 2.61279 
4.44003 7.19217 1.74539 5.31457 6.74884 0.976166 6.31123 6.39656 0.423761 
7.19156 6.07381 -0.0468948 7.90417 5.71503 -0.541241 8.58465 5.28917 -1.01221 
0.662716 7.38879 3.43534 -0.516449 7.01704 3.05756 -1.89915 6.54436 2.73533 
-3.5276 5.96917 2.32821 -5.32478 5.38811 1.7503 -7.08207 4.98813 1.09308 
-8.66971 4.82425 0.422135 -10.1103 4.7574 -0.306494 -11.401 4.63737 -1.06255 
-0.625776 -7.52126 -3.46532 -0.543977 -7.93259 -2.64868 -0.354613 -8.26137 -1.79828 
-0.175987 -8.4961 -0.949982 -0.0543607 -8.56971 -0.102142 0.0587249 -8.40807 0.678031 
0.167255 -8.02437 1.33207 0.220857 -7.51665 1.91121 0.226933 -6.98416 2.466 
0.396111 -7.06152 -3.57593 1.57965 -6.92645 -2.86434 2.92904 -6.81641 -2.25061 
4.291 -6.90753 -1.88353 5.5175 -7.07801 -1.63666 6.6 -7.02624 -1.33548 
7.66813 -6.65871 -1.00485 8.77616 -6.11645 -0.729238 9.7808 -5.53222 -0.499234 
-1.45394 -7.14596 -4.08483 -2.29235 -7.13932 -3.77498 -3.10503 -7.08093 -3.37186 
-4.00364 -6.9296 -2.99979 -4.99535 -6.50027 -2.5452 -5.9907 -5.764 -1.90875 
-7.00427 -5.02662 -1.29216 -8.10827 -4.60272 -0.924722 -9.23688 -4.48993 -0.758458 
1.4236 -6.65348 2.92669 2.67376 -6.94046 2.94839 3.8401 -7.37413 2.94391 
4.9197 -7.74774 2.80656 6.09306 -7.74558 2.51032 7.35659 -7.33415 2.11429 
8.41574 -6.7573 1.63565 9.15351 -6.1701 1.03873 9.78782 -5.56796 0.36025 
-0.926557 -6.63958 2.78086 -2.07825 -6.79605 2.63871 -3.11842 -6.79654 2.40972 
-4.13143 -6.52679 1.99631 -5.22832 -6.03952 1.48808 -6.33962 -5.51878 1.07479 
-7.36927 -5.1269 0.772588 -8.36199 -4.89466 0.42334 -9.34585 -4.71965 -0.0603612 
10.0299 3.86341 -1.47829 10.8288 2.96001 -1.45241 11.4809 2.17249 -1.30281 
11.7822 1.24756 -1.07375 11.8618 -0.0467849 -0.846779 11.9999 -1.46089 -0.69121 
12.1185 -2.59848 -0.623743 11.8997 -3.44553 -0.581271 11.2849 -4.20601 -0.475974 
-13.3799 3.8364 -1.7594 -14.1049 3.17729 -1.56178 -14.4958 2.28804 -1.20538 
-14.4637 1.10106 -0.950037 -14.024 -0.219989 -0.933958 -13.3764 -1.47662 -1.03187 
-12.7271 -2.6014 -1.07111 -12.0527 -3.52393 -1.00136 -11.2202 -4.1435 -0.838178 
-3.62632 0.726996 -4.33809 -3.04013 1.4343 -3.83382 -2.32908 0.719168 -4.19647 
-2.46 2.13146 -3.2836 -1.82385 1.36651 -3.59246 -1.16659 0.585503 -3.62398 
-1.88531 2.7867 -2.68472 -1.38319 2.0063 -2.90324 -0.736681 1.19052 -3.05022 
-0.0934105 0.449751 -2.79372 -1.19452 3.41521 -1.92396 -0.775402 2.66681 -2.1763 
-0.210764 1.88449 -2.40774 0.463881 1.15533 -2.37768 1.11602 0.509299 -2.00906 
-0.34909 4.03781 -1.32672 0.115098 3.37659 -1.59738 0.643401 2.67611 -1.84766 
1.25371 2.00185 -1.96319 1.87633 1.35412 -1.81863 2.48444 0.703216 -1.54987 
0.422432 4.65951 -1.49694 0.969967 4.14149 -1.71807 1.56729 3.53677 -1.80481 
2.19067 2.89944 -1.78656 2.75784 2.25763 -1.72243 3.26024 1.5524 -1.63268 
3.76491 0.805363 -1.59902 0.910057 5.26329 -2.44773 1.43535 4.93228 -2.74849 
2.05655 4.4534 -2.67098 2.77914 3.80565 -2.26594 3.46743 3.11377 -1.89579 
3.98787 2.38777 -1.80105 4.39169 1.57188 -1.90793 4.79517 0.760988 -2.06792 
-5.87954 1.14927 -3.67249 -6.99638 1.69054 -3.37066 -5.3526 1.84591 -3.45813 
-8.09566 2.29474 -3.25724 -6.40568 2.36959 -3.38999 -4.5343 2.58166 -3.36961 
-8.9708 2.89767 -3.10726 -7.42245 2.94269 -3.40386 -5.47568 3.08612 -3.42309 
-3.65276 3.32279 -3.12422 -9.63615 3.4674 -2.91348 -8.26341 3.54307 -3.27967 
-6.48762 3.61631 -3.33878 -4.54786 3.8173 -3.02187 -2.8976 4.02073 -2.38213 
-10.3123 4.06055 -2.84533 -8.94131 4.20047 -3.08939 -7.37868 4.20004 -3.07172 
-5.5613 4.27462 -2.71819 -3.71993 4.49305 -2.08597 -2.13506 4.63649 -1.40925 
-11.0073 4.65659 -2.79079 -9.54191 4.9347 -2.88925 -8.02792 4.90937 -2.75218 
-6.3841 4.77648 -2.34602 -4.5591 4.87199 -1.7651 -2.77518 5.10971 -1.18566 
-1.27206 5.18742 -0.91956 -11.4505 5.06226 -2.4775 -9.99935 5.56148 -2.5271 
-8.45887 5.6716 -2.36445 -6.89024 5.42093 -1.97669 -5.17447 5.2872 -1.49083 
-3.36898 5.50661 -1.07028 -1.75373 5.73468 -0.893339 -0.497335 5.70969 -1.1844 
-10.3252 5.45232 -1.15171 -8.93723 5.5734 -0.371446 -8.95364 6.16705 -1.17687 
-7.40097 5.59927 0.321928 -7.53691 6.24577 -0.44052 -7.44564 6.449 -1.08124 
-5.7056 5.83603 0.986398 -5.97829 6.34594 0.207026 -6.03661 6.59561 -0.417083 
-5.86718 6.35644 -0.869142 -3.88953 6.42027 1.65944 -4.2635 6.82207 0.87284 
-4.50244 7.02726 0.14699 -4.45379 6.87804 -0.376334 -4.18176 6.43046 -0.730306 
-2.15996 7.10106 2.17372 -2.50325 7.54629 1.48993 -2.86379 7.78369 0.682818 
-3.02446 7.74369 -0.0421239 -2.8632 7.39599 -0.550093 -2.53701 6.84073 -0.828163 
-0.691968 7.6018 2.46559 -0.926138 8.09049 1.8646 -1.25472 8.40719 1.09279 
-1.58464 8.52568 0.225696 -1.68596 8.35657 -0.504345 -1.49083 7.8339 -0.9737 
[...]
POINT_DATA 1002
FIELD FieldData 4
_paraPhi 1 1002 double
6.2831853072 3.1415926536 6.2831853072 3.1415926536 4.7123889804 4.7123889804 1.5707963268 1.5707963268 3.6951670125 
5.7296109483 2.5880182947 0.5535743589 6.2831853072 6.2831853072 6.2831853072 6.2831853072 3.1415926536 3.1415926536 
3.1415926536 3.1415926536 3.1415926536 6.1053039672 5.898798347 5.6768734901 5.4599499503 5.2659633393 5.1032165617 
4.9713148346 4.8656852733 4.7809517865 0.17788134 0.38438696014 0.60631181711 0.82323535693 1.0172219679 1.1799687454 
1.3118704726 1.4175000338 1.5022335207 6.1892828907 6.1070320098 6.035312792 5.9728339911 5.9183214791 5.8706119594 
5.8286879411 5.7916808611 5.7588591896 0.093902416448 0.17615329733 0.2478725152 0.31035131605 0.36486382811 0.41257334776 
0.45449736604 0.4915044461 0.52432611754 3.3194739936 3.5259796137 3.7479044707 3.9648280105 4.1588146215 4.321561399 
4.4534631262 4.5590926874 4.6438261743 2.9637113136 2.7572056934 2.5352808365 2.3183572967 2.1243706857 1.9616239082 
1.829722181 1.7240926197 1.6393591329 3.23549507 3.3177459509 3.3894651688 3.4519439696 3.5064564817 3.5541660013 
3.5960900196 3.6330970997 3.6659187711 3.0476902371 2.9654393563 2.8937201384 2.8312413375 2.7767288255 2.7290193058 
2.6870952876 2.6500882075 2.617266536 6.2831853072 6.2831853072 6.2831853072 6.2831853072 3.1415926536 3.1415926536 
3.1415926536 3.1415926536 3.1415926536 6.1053039672 5.898798347 5.6768734901 5.4599499503 5.2659633393 5.1032165617 
4.9713148346 4.8656852733 4.7809517865 0.17788134 0.38438696014 0.60631181711 0.82323535693 1.0172219679 1.1799687454 
1.3118704726 1.4175000338 1.5022335207 6.1892828907 6.1070320098 6.035312792 5.9728339911 5.9183214791 5.8706119594 
5.8286879411 5.7916808611 5.7588591896 0.093902416448 0.17615329733 0.2478725152 0.31035131605 0.36486382811 0.41257334776 
0.45449736604 0.4915044461 0.52432611754 3.3194739936 3.5259796137 3.7479044707 3.9648280105 4.1588146215 4.321561399 
4.4534631262 4.5590926874 4.6438261743 2.9637113136 2.7572056934 2.5352808365 2.3183572967 2.1243706857 1.9616239082 
1.829722181 1.7240926197 1.6393591329 3.23549507 3.3177459509 3.3894651688 3.4519439696 3.5064564817 3.5541660013 
3.5960900196 3.6330970997 3.6659187711 3.0476902371 2.9654393563 2.8937201384 2.8312413375 2.7767288255 2.7290193058 
2.6870952876 2.6500882075 2.617266536 4.7123889804 4.7123889804 4.7123889804 4.7123889804 4.7123889804 4.7123889804 
4.7123889804 4.7123889804 4.7123889804 4.6087898617 4.4991390697 4.3857031936 4.2712800401 4.1588146215 4.0509635631 
3.94975894 3.8564636551 3.7716124825 4.8159880991 4.9256388911 5.0390747672 5.1534979207 5.2659633393 5.3738143976 
5.4750190208 5.5683143056 5.6531654782 4.6087898617 4.4991390697 4.3857031936 4.2712800401 4.1588146215 4.0509635631 
3.94975894 3.8564636551 3.7716124825 4.8159880991 4.9256388911 5.0390747672 5.1534979207 5.2659633393 5.3738143976 
5.4750190208 5.5683143056 5.6531654782 1.5707963268 1.5707963268 1.5707963268 1.5707963268 1.5707963268 1.5707963268 
1.5707963268 1.5707963268 1.5707963268 1.6743954455 1.7840462375 1.8974821136 2.0119052671 2.1243706857 2.232221744 
2.3334263672 2.426721652 2.5115728246 1.4671972081 1.3575464161 1.24411054 1.1296873865 1.0172219679 0.90937090954 
0.80816628637 0.71487100155 0.63001982895 1.6743954455 1.7840462375 1.8974821136 2.0119052671 2.1243706857 2.232221744 
2.3334263672 2.426721652 2.5115728246 1.4671972081 1.3575464161 1.24411054 1.1296873865 1.0172219679 0.90937090954 
0.80816628637 0.71487100155 0.63001982895 3.6007720849 3.4966939854 3.3839471039 3.2645756454 3.1415926536 3.0186096618 
2.8992382033 2.7864913217 2.6824132222 5.8240058758 5.9280839753 6.0408308569 6.1602023154 6.2831853072 0.12298299178 
0.2423544503 0.35510133185 0.45917943135 6.0560271438 5.7885595667 5.9702140275 5.5125918794 5.6029703303 5.7885595667 
5.2659633393 5.2659633393 5.2659633393 5.2659633393 5.0674903122 5.0120975802 4.9155579264 4.7123889804 4.1588146215 
4.9155579264 4.8353719722 4.7123889804 4.5092200343 4.1588146215 3.6362183941 4.8004512023 4.7123889804 4.5894059886 
4.4126803806 4.1588146215 3.8218076305 3.4545639333 4.7123889804 4.6243267584 4.5092200343 4.3572876485 4.1588146215 
3.9121860814 3.6362183941 3.368750817 6.0174235957 5.9434319871 5.8263323547 5.8809213739 5.7674481418 5.6279784266 
5.8278025282 5.718968232 5.5891129425 5.4372443565 5.7823484065 5.678536687 5.5575666702 5.4192596322 5.2659633393 
5.743164462 5.6444075337 5.5314983644 5.4046708639 5.2659633393 5.1195510325 5.7091357773 5.6152775188 5.5096229709 
5.3926039573 5.2659633393 5.1329233157 4.9978930058 5.6793730533 5.5901633916 5.4910209005 5.3824597928 5.2659633393 
5.1440684722 5.0201624502 4.8979782167 5.5683143056 5.4750190208 5.4750190208 5.3738143976 5.3738143976 5.3738143976 
5.2659633393 5.2659633393 5.2659633393 5.2659633393 5.1534979207 5.1534979207 5.1534979207 5.1534979207 5.1534979207 
5.0390747672 5.0390747672 5.0390747672 5.0390747672 5.0390747672 5.0390747672 4.9256388911 4.9256388911 4.9256388911 
4.9256388911 4.9256388911 4.9256388911 4.9256388911 4.8159880991 4.8159880991 4.8159880991 4.8159880991 4.8159880991 
4.8159880991 4.8159880991 4.8159880991 4.6087898617 4.6087898617 4.4991390697 4.6087898617 4.4991390697 4.3857031936 
4.6087898617 4.4991390697 4.3857031936 4.2712800401 4.6087898617 4.4991390697 4.3857031936 4.2712800401 4.1588146215 
4.6087898617 4.4991390697 4.3857031936 4.2712800401 4.1588146215 4.0509635631 4.6087898617 4.4991390697 4.3857031936 
4.2712800401 4.1588146215 4.0509635631 3.94975894 4.6087898617 4.4991390697 4.3857031936 4.2712800401 4.1588146215 
4.0509635631 3.94975894 3.8564636551 4.526799744 4.4046155105 4.426884955 4.2807094886 4.2918546451 4.3052269283 
4.1588146215 4.1588146215 4.1588146215 4.1588146215 4.042318168 4.0321740035 4.0201070968 4.0055183285 3.9875336042 
3.9337570603 3.9151549899 3.8932795963 3.8672112905 3.8356650183 3.7967995342 3.8346145692 3.809500442 3.7803704271 
3.7462412737 3.7058097288 3.657329819 3.5984456061 3.7454049075 3.7156421835 3.6816134988 3.6424295543 3.5969754326 
3.5438565869 3.4813459737 3.4073543651 3.5642842451 3.4524645613 3.5233842518 3.3320300872 3.403123212 3.4773852225 
3.20576226 3.2746326772 3.348015857 3.4255060145 3.0774230472 3.1415926536 3.2112816139 3.2864685043 3.3668817272 
2.95115522 3.00855263 3.0719036933 3.1415926536 3.2178377658 3.3005964304 2.8307207459 2.8800620952 2.9351694502 
2.9967168029 3.0653475414 3.1415926536 3.225752376 2.718901062 2.7598010554 2.8058000847 2.8576792927 2.91630358 
2.9825888767 3.0574329311 3.1415926536 3.5642842451 3.5233842518 3.4524645613 3.4773852225 3.403123212 3.3320300872 
3.4255060145 3.348015857 3.2746326772 3.20576226 3.3668817272 3.2864685043 3.2112816139 3.1415926536 3.0774230472 
3.3005964304 3.2178377658 3.1415926536 3.0719036933 3.00855263 2.95115522 3.225752376 3.1415926536 3.0653475414 
2.9967168029 2.9351694502 2.8800620952 2.8307207459 3.1415926536 3.0574329311 2.9825888767 2.91630358 2.8576792927 
2.8058000847 2.7598010554 2.718901062 4.526799744 4.426884955 4.4046155105 4.3052269283 4.2918546451 4.2807094886 
4.1588146215 4.1588146215 4.1588146215 4.1588146215 3.9875336042 4.0055183285 4.0201070968 4.0321740035 4.042318168 
3.7967995342 3.8356650183 3.8672112905 3.8932795963 3.9151549899 3.9337570603 3.5984456061 3.657329819 3.7058097288 
3.7462412737 3.7803704271 3.809500442 3.8346145692 3.4073543651 3.4813459737 3.5438565869 3.5969754326 3.6424295543 
3.6816134988 3.7156421835 3.7454049075 4.7123889804 4.8004512023 4.6243267584 4.9155579264 4.7123889804 4.5092200343 
5.0674903122 4.8353719722 4.5894059886 4.3572876485 5.2659633393 5.0120975802 4.7123889804 4.4126803806 4.1588146215 
5.5125918794 5.2659633393 4.9155579264 4.5092200343 4.1588146215 3.9121860814 5.7885595667 5.6029703303 5.2659633393 
4.7123889804 4.1588146215 3.8218076305 3.6362183941 6.0560271438 5.9702140275 5.7885595667 5.2659633393 4.1588146215 
3.6362183941 3.4545639333 3.368750817 0.22715816343 0.49462574053 0.3129712797 0.77059342779 0.68021497688 0.49462574053 
1.0172219679 1.0172219679 1.0172219679 1.0172219679 1.2156949949 1.271087727 1.3676273807 1.5707963268 2.1243706857 
1.3676273807 1.447813335 1.5707963268 1.7739652728 2.1243706857 2.6469669131 1.4827341049 1.5707963268 1.6937793186 
1.8705049266 2.1243706857 2.4613776767 2.8286213739 1.5707963268 1.6588585487 1.7739652728 1.9258976586 2.1243706857 
2.3709992258 2.6469669131 2.9144344902 1.7563855631 1.8785697967 1.8563003522 2.0024758186 1.9913306621 1.9779583789 
2.1243706857 2.1243706857 2.1243706857 2.1243706857 2.2408671392 2.2510113037 2.2630782103 2.2776669786 2.295651703 
2.3494282469 2.3680303173 2.3899057108 2.4159740166 2.4475202889 2.486385773 2.448570738 2.4736848652 2.5028148801 
2.5369440334 2.5773755784 2.6258554882 2.6847397011 2.5377803997 2.5675431237 2.6015718084 2.6407557529 2.6862098746 
2.7393287203 2.8018393335 2.8758309421 1.6743954455 1.6743954455 1.7840462375 1.6743954455 1.7840462375 1.8974821136 
1.6743954455 1.7840462375 1.8974821136 2.0119052671 1.6743954455 1.7840462375 1.8974821136 2.0119052671 2.1243706857 
1.6743954455 1.7840462375 1.8974821136 2.0119052671 2.1243706857 2.232221744 1.6743954455 1.7840462375 1.8974821136 
2.0119052671 2.1243706857 2.232221744 2.3334263672 1.6743954455 1.7840462375 1.8974821136 2.0119052671 2.1243706857 
2.232221744 2.3334263672 2.426721652 1.4671972081 1.3575464161 1.4671972081 1.24411054 1.3575464161 1.4671972081 
1.1296873865 1.24411054 1.3575464161 1.4671972081 1.0172219679 1.1296873865 1.24411054 1.3575464161 1.4671972081 
0.90937090954 1.0172219679 1.1296873865 1.24411054 1.3575464161 1.4671972081 0.80816628637 0.90937090954 1.0172219679 
1.1296873865 1.24411054 1.3575464161 1.4671972081 0.71487100155 0.80816628637 0.90937090954 1.0172219679 1.1296873865 
1.24411054 1.3575464161 1.4671972081 0.60381225391 0.57404952988 0.69302191562 0.54002084522 0.66790778838 0.79216440667 
0.50083690068 0.63877777351 0.77356233629 0.90072551443 0.45538277901 0.60464862014 0.75168694275 0.89058134991 1.0172219679 
0.40226393329 0.56421707518 0.72561863695 0.87851444325 1.0172219679 1.139116835 0.33975332011 0.51573716537 0.69407236469 
0.86392567495 1.0172219679 1.1502619915 1.2630228569 0.26576171152 0.45685295248 0.6552068806 0.84594095064 1.0172219679 
1.1636342747 1.2852923014 1.3852070904 0.22715816343 0.3129712797 0.49462574053 0.49462574053 0.68021497688 0.77059342779 
1.0172219679 1.0172219679 1.0172219679 1.0172219679 2.1243706857 1.5707963268 1.3676273807 1.271087727 1.2156949949 
2.6469669131 2.1243706857 1.7739652728 1.5707963268 1.447813335 1.3676273807 2.8286213739 2.4613776767 2.1243706857 
1.8705049266 1.6937793186 1.5707963268 1.4827341049 2.9144344902 2.6469669131 2.3709992258 2.1243706857 1.9258976586 
1.7739652728 1.6588585487 1.5707963268 1.7563855631 1.8563003522 1.8785697967 1.9779583789 1.9913306621 2.0024758186 
2.1243706857 2.1243706857 2.1243706857 2.1243706857 2.295651703 2.2776669786 2.2630782103 2.2510113037 2.2408671392 
2.486385773 2.4475202889 2.4159740166 2.3899057108 2.3680303173 2.3494282469 2.6847397011 2.6258554882 2.5773755784 
2.5369440334 2.5028148801 2.4736848652 2.448570738 2.8758309421 2.8018393335 2.7393287203 2.6862098746 2.6407557529 
2.6015718084 2.5675431237 2.5377803997 5.8604937156 5.901393709 5.9723133995 5.9473927383 6.0216547488 6.0927478736 
5.9992719463 6.0767621038 6.1501452836 6.2190157008 6.0578962336 6.1383094565 6.2134963469 0 0.064169606361 
6.1241815303 6.206940195 6.2831853072 0.069688960264 0.13304002361 0.19043743361 6.1990255847 0 0.07624511221 
0.14487585072 0.20642320337 0.26153055843 0.3108719077 0 0.084159722458 0.15900377685 0.22528907359 0.28391336087 
0.3357925689 0.38179159818 0.42269159155 5.8604937156 5.9723133995 5.901393709 6.0927478736 6.0216547488 5.9473927383 
6.2190157008 6.1501452836 6.0767621038 5.9992719463 0.064169606361 0 6.2134963469 6.1383094565 6.0578962336 
0.19043743361 0.13304002361 0.069688960264 6.2831853072 6.206940195 6.1241815303 0.3108719077 0.26153055843 0.20642320337 
0.14487585072 0.07624511221 6.2831853072 6.1990255847 0.42269159155 0.38179159818 0.3357925689 0.28391336087 0.22528907359 
0.15900377685 0.084159722458 0 5.6793730533 5.7091357773 5.5901633916 5.743164462 5.6152775188 5.4910209005 
5.7823484065 5.6444075337 5.5096229709 5.3824597928 5.8278025282 5.678536687 5.5314983644 5.3926039573 5.2659633393 
5.8809213739 5.718968232 5.5575666702 5.4046708639 5.2659633393 5.1440684722 5.9434319871 5.7674481418 5.5891129425 
5.4192596322 5.2659633393 5.1329233157 5.0201624502 6.0174235957 5.8263323547 5.6279784266 5.4372443565 5.2659633393 
5.1195510325 4.9978930058 4.8979782167 1.3852070904 1.2852923014 1.2630228569 1.1636342747 1.1502619915 1.139116835 
1.0172219679 1.0172219679 1.0172219679 1.0172219679 0.84594095064 0.86392567495 0.87851444325 0.89058134991 0.90072551443 
0.6552068806 0.69407236469 0.72561863695 0.75168694275 0.77356233629 0.79216440667 0.45685295248 0.51573716537 0.56421707518 
0.60464862014 0.63877777351 0.66790778838 0.69302191562 0.26576171152 0.33975332011 0.40226393329 0.45538277901 0.50083690068 
0.54002084522 0.57404952988 0.60381225391 
_paraPhiHalf 1 1002 double
0 3.1415926536 0 3.1415926536 1.5707963268 1.5707963268 1.5707963268 1.5707963268 2.5880182947 
0.5535743589 2.5880182947 0.5535743589 0 0 0 0 3.1415926536 3.1415926536 
3.1415926536 3.1415926536 3.1415926536 0.17788134 0.38438696014 0.60631181711 0.82323535693 1.0172219679 1.1799687454 
1.3118704726 1.4175000338 1.5022335207 0.17788134 0.38438696014 0.60631181711 0.82323535693 1.0172219679 1.1799687454 
1.3118704726 1.4175000338 1.5022335207 0.093902416448 0.17615329733 0.2478725152 0.31035131605 0.36486382811 0.41257334776 
0.45449736604 0.4915044461 0.52432611754 0.093902416448 0.17615329733 0.2478725152 0.31035131605 0.36486382811 0.41257334776 
0.45449736604 0.4915044461 0.52432611754 2.9637113136 2.7572056934 2.5352808365 2.3183572967 2.1243706857 1.9616239082 
1.829722181 1.7240926197 1.6393591329 2.9637113136 2.7572056934 2.5352808365 2.3183572967 2.1243706857 1.9616239082 
1.829722181 1.7240926197 1.6393591329 3.0476902371 2.9654393563 2.8937201384 2.8312413375 2.7767288255 2.7290193058 
2.6870952876 2.6500882075 2.617266536 3.0476902371 2.9654393563 2.8937201384 2.8312413375 2.7767288255 2.7290193058 
2.6870952876 2.6500882075 2.617266536 0 0 0 0 3.1415926536 3.1415926536 
3.1415926536 3.1415926536 3.1415926536 0.17788134 0.38438696014 0.60631181711 0.82323535693 1.0172219679 1.1799687454 
1.3118704726 1.4175000338 1.5022335207 0.17788134 0.38438696014 0.60631181711 0.82323535693 1.0172219679 1.1799687454 
1.3118704726 1.4175000338 1.5022335207 0.093902416448 0.17615329733 0.2478725152 0.31035131605 0.36486382811 0.41257334776 
0.45449736604 0.4915044461 0.52432611754 0.093902416448 0.17615329733 0.2478725152 0.31035131605 0.36486382811 0.41257334776 
0.45449736604 0.4915044461 0.52432611754 2.9637113136 2.7572056934 2.5352808365 2.3183572967 2.1243706857 1.9616239082 
1.829722181 1.7240926197 1.6393591329 2.9637113136 2.7572056934 2.5352808365 2.3183572967 2.1243706857 1.9616239082 
1.829722181 1.7240926197 1.6393591329 3.0476902371 2.9654393563 2.8937201384 2.8312413375 2.7767288255 2.7290193058 
2.6870952876 2.6500882075 2.617266536 3.0476902371 2.9654393563 2.8937201384 2.8312413375 2.7767288255 2.7290193058 
2.6870952876 2.6500882075 2.617266536 1.5707963268 1.5707963268 1.5707963268 1.5707963268 1.5707963268 1.5707963268 
1.5707963268 1.5707963268 1.5707963268 1.6743954455 1.7840462375 1.8974821136 2.0119052671 2.1243706857 2.232221744 
2.3334263672 2.426721652 2.5115728246 1.4671972081 1.3575464161 1.24411054 1.1296873865 1.0172219679 0.90937090954 
0.80816628637 0.71487100155 0.63001982895 1.6743954455 1.7840462375 1.8974821136 2.0119052671 2.1243706857 2.232221744 
2.3334263672 2.426721652 2.5115728246 1.4671972081 1.3575464161 1.24411054 1.1296873865 1.0172219679 0.90937090954 
0.80816628637 0.71487100155 0.63001982895 1.5707963268 1.5707963268 1.5707963268 1.5707963268 1.5707963268 1.5707963268 
1.5707963268 1.5707963268 1.5707963268 1.6743954455 1.7840462375 1.8974821136 2.0119052671 2.1243706857 2.232221744 
2.3334263672 2.426721652 2.5115728246 1.4671972081 1.3575464161 1.24411054 1.1296873865 1.0172219679 0.90937090954 
0.80816628637 0.71487100155 0.63001982895 1.6743954455 1.7840462375 1.8974821136 2.0119052671 2.1243706857 2.232221744 
2.3334263672 2.426721652 2.5115728246 1.4671972081 1.3575464161 1.24411054 1.1296873865 1.0172219679 0.90937090954 
0.80816628637 0.71487100155 0.63001982895 2.6824132222 2.7864913217 2.8992382033 3.0186096618 3.1415926536 3.0186096618 
2.8992382033 2.7864913217 2.6824132222 0.45917943135 0.35510133185 0.2423544503 0.12298299178 0 0.12298299178 
0.2423544503 0.35510133185 0.45917943135 0.22715816343 0.49462574053 0.3129712797 0.77059342779 0.68021497688 0.49462574053 
1.0172219679 1.0172219679 1.0172219679 1.0172219679 1.2156949949 1.271087727 1.3676273807 1.5707963268 2.1243706857 
1.3676273807 1.447813335 1.5707963268 1.7739652728 2.1243706857 2.6469669131 1.4827341049 1.5707963268 1.6937793186 
1.8705049266 2.1243706857 2.4613776767 2.8286213739 1.5707963268 1.6588585487 1.7739652728 1.9258976586 2.1243706857 
2.3709992258 2.6469669131 2.9144344902 0.26576171152 0.33975332011 0.45685295248 0.40226393329 0.51573716537 0.6552068806 
0.45538277901 0.56421707518 0.69407236469 0.84594095064 0.50083690068 0.60464862014 0.72561863695 0.86392567495 1.0172219679 
0.54002084522 0.63877777351 0.75168694275 0.87851444325 1.0172219679 1.1636342747 0.57404952988 0.66790778838 0.77356233629 
0.89058134991 1.0172219679 1.1502619915 1.2852923014 0.60381225391 0.69302191562 0.79216440667 0.90072551443 1.0172219679 
1.139116835 1.2630228569 1.3852070904 0.71487100155 0.80816628637 0.80816628637 0.90937090954 0.90937090954 0.90937090954 
1.0172219679 1.0172219679 1.0172219679 1.0172219679 1.1296873865 1.1296873865 1.1296873865 1.1296873865 1.1296873865 
1.24411054 1.24411054 1.24411054 1.24411054 1.24411054 1.24411054 1.3575464161 1.3575464161 1.3575464161 
1.3575464161 1.3575464161 1.3575464161 1.3575464161 1.4671972081 1.4671972081 1.4671972081 1.4671972081 1.4671972081 
1.4671972081 1.4671972081 1.4671972081 1.6743954455 1.6743954455 1.7840462375 1.6743954455 1.7840462375 1.8974821136 
1.6743954455 1.7840462375 1.8974821136 2.0119052671 1.6743954455 1.7840462375 1.8974821136 2.0119052671 2.1243706857 
1.6743954455 1.7840462375 1.8974821136 2.0119052671 2.1243706857 2.232221744 1.6743954455 1.7840462375 1.8974821136 
2.0119052671 2.1243706857 2.232221744 2.3334263672 1.6743954455 1.7840462375 1.8974821136 2.0119052671 2.1243706857 
2.232221744 2.3334263672 2.426721652 1.7563855631 1.8785697967 1.8563003522 2.0024758186 1.9913306621 1.9779583789 
2.1243706857 2.1243706857 2.1243706857 2.1243706857 2.2408671392 2.2510113037 2.2630782103 2.2776669786 2.295651703 
2.3494282469 2.3680303173 2.3899057108 2.4159740166 2.4475202889 2.486385773 2.448570738 2.4736848652 2.5028148801 
2.5369440334 2.5773755784 2.6258554882 2.6847397011 2.5377803997 2.5675431237 2.6015718084 2.6407557529 2.6862098746 
2.7393287203 2.8018393335 2.8758309421 2.718901062 2.8307207459 2.7598010554 2.95115522 2.8800620952 2.8058000847 
3.0774230472 3.00855263 2.9351694502 2.8576792927 3.0774230472 3.1415926536 3.0719036933 2.9967168029 2.91630358 
2.95115522 3.00855263 3.0719036933 3.1415926536 3.0653475414 2.9825888767 2.8307207459 2.8800620952 2.9351694502 
2.9967168029 3.0653475414 3.1415926536 3.0574329311 2.718901062 2.7598010554 2.8058000847 2.8576792927 2.91630358 
2.9825888767 3.0574329311 3.1415926536 2.718901062 2.7598010554 2.8307207459 2.8058000847 2.8800620952 2.95115522 
2.8576792927 2.9351694502 3.00855263 3.0774230472 2.91630358 2.9967168029 3.0719036933 3.1415926536 3.0774230472 
2.9825888767 3.0653475414 3.1415926536 3.0719036933 3.00855263 2.95115522 3.0574329311 3.1415926536 3.0653475414 