# vtk DataFile Version 5.1
vtk output
ASCII
DATASET POLYDATA
POINTS 1002 float
-5.08568 -0.184565 -2.17775 4.95418 -0.0680993 -5.17554 -5.10434 -0.197358 3.57993 
5.51818 -0.115363 4.77168 0.293371 6.22677 -3.05183 0.751677 6.54325 3.027 
0.145053 -6.69395 -3.03767 -1.18841 -7.11514 3.39702 8.87603 4.38612 -0.427339 
-10.9349 5.66253 1.06639 9.86761 -3.96214 -0.700724 -9.73907 -4.79791 -0.472874 
-3.97026 -0.0927936 -2.15873 -2.77355 -0.00741928 -2.24701 -1.59145 0.107978 -2.49204 
-0.422503 0.315685 -2.92859 0.715457 0.500921 -3.53321 1.68952 0.434291 -4.24572 
2.46157 0.135117 -4.92419 3.20384 -0.117995 -5.34156 4.0541 -0.159907 -5.38704 
-4.70276 0.392346 -2.29773 -4.18077 0.990901 -2.3578 -3.59278 1.56837 -2.15495 
-2.89327 2.1384 -1.7295 -2.00596 2.78178 -1.45488 -1.1506 3.53272 -1.62554 
-0.670966 4.31388 -2.10392 -0.494653 5.03305 -2.57238 -0.234358 5.66559 -2.88546 
-4.68586 -0.71519 -2.11806 -4.19069 -1.28073 -2.29381 -3.62882 -1.84937 -2.66046 
-3.00694 -2.43708 -2.92064 -2.31493 -3.12705 -2.96674 -1.59446 -3.98341 -3.10785 
-0.951918 -4.91876 -3.49634 -0.467626 -5.72761 -3.77468 -0.127132 -6.29519 -3.59413 
-5.95012 0.101124 -2.30747 -6.76316 0.484643 -2.33944 -7.46994 1.05318 -2.20212 
-8.12349 1.82909 -2.10395 -8.77455 2.66902 -2.2677 -9.38295 3.38552 -2.45309 
-9.91043 3.97142 -2.13995 -10.3674 4.54709 -1.19197 -10.7308 5.14191 0.0222094 
-5.84876 -0.576551 -2.25722 -6.44859 -0.932733 -2.59788 -6.9215 -1.26239 -3.13306 
-7.46217 -1.69407 -3.55531 -8.20136 -2.34985 -3.62987 -8.98888 -3.1512 -3.40034 
-9.56983 -3.87602 -2.94425 -9.85699 -4.38205 -2.23504 -9.89684 -4.66947 -1.34189 
4.63716 0.590158 -5.3793 4.23918 1.33058 -5.47761 3.70887 2.15579 -5.42846 
3.02236 2.96416 -5.40351 2.26065 3.66886 -5.5008 1.59306 4.30464 -5.48078 
1.12935 4.92079 -5.10123 0.830596 5.48346 -4.45031 0.581812 5.9307 -3.73658 
4.67758 -0.810889 -5.07884 4.40471 -1.57842 -4.86075 4.17483 -2.25554 -4.49494 
3.90369 -2.78022 -3.8795 3.43182 -3.26024 -3.00859 2.72042 -3.88126 -2.24728 
1.9137 -4.67387 -2.06401 1.18194 -5.49003 -2.43603 0.596504 -6.18069 -2.88905 
5.64178 0.441902 -4.95136 6.19154 0.886728 -4.65614 6.60677 1.24715 -4.38042 
7.12639 1.65601 -4.05655 7.81833 2.16611 -3.55023 8.36962 2.63289 -2.89505 
8.58521 2.99853 -2.2484 8.65827 3.4015 -1.65596 8.77253 3.90348 -1.05493 
5.72141 -0.447402 -4.9084 6.56741 -0.968585 -4.74878 7.40929 -1.57068 -4.59172 
8.10591 -2.0555 -4.14929 8.60539 -2.35425 -3.35791 9.03676 -2.67268 -2.56771 
9.51194 -3.15439 -2.06708 9.91835 -3.63768 -1.72718 10.0548 -3.91214 -1.29118 
-4.16482 -0.237246 3.84508 -3.11009 -0.289968 4.08127 -1.93331 -0.391402 4.32851 
-0.660682 -0.493959 4.71844 0.62056 -0.520616 5.34756 1.80367 -0.484921 5.97965 
2.83126 -0.450519 6.14678 3.73421 -0.407223 5.73838 4.60656 -0.297859 5.14647 
-4.84503 0.31607 3.80178 -4.47071 0.848618 3.93165 -3.91028 1.49994 3.80038 
-3.26102 2.31822 3.56534 -2.71976 3.14359 3.60749 -2.27104 3.80312 3.92792 
-1.67734 4.40042 4.08371 -0.851724 5.11892 3.84442 0.0252613 5.90015 3.41051 
-4.76464 -0.772244 3.5752 -4.34989 -1.38932 3.65508 -3.85633 -2.04309 3.76657 
-3.31677 -2.75469 3.75268 -2.79795 -3.55982 3.65355 -2.37965 -4.46653 3.72622 
-2.09409 -5.39998 3.97903 -1.86769 -6.20436 4.08796 -1.58093 -6.76612 3.85708 
-5.86804 0.242506 3.35836 -6.70948 0.838984 2.98213 -7.67818 1.5397 2.53445 
-8.75374 2.22914 2.1913 -9.78616 2.89258 2.03682 -10.6071 3.64221 2.03485 
-11.1485 4.48385 2.10114 -11.3903 5.20558 2.06366 -11.3088 5.59908 1.7273 
-5.84501 -0.515656 3.31592 -6.68132 -0.886977 3.17553 -7.47875 -1.27194 3.12084 
-7.99884 -1.66256 2.91036 -8.24543 -2.14131 2.38418 -8.55381 -2.76556 1.73132 
-9.0843 -3.42808 1.20872 -9.58395 -3.98411 0.770389 -9.79677 -4.42147 0.222195 
5.31503 0.395446 4.7223 5.12589 1.02723 4.70119 4.86429 1.80165 4.58085 
4.41221 2.63685 4.30156 3.78148 3.44402 3.99878 3.14129 4.22211 3.84427 
2.6005 4.96576 3.79669 2.07816 5.60946 3.67158 1.45954 6.12373 3.38953 
5.15489 -0.742777 5.03363 4.73222 -1.47776 5.33858 4.10855 -2.36226 5.57722 
3.28225 -3.27284 5.60077 2.50189 -4.00391 5.29793 1.8872 -4.55858 4.72159 
1.21267 -5.14166 4.11903 0.34042 -5.83915 3.72178 -0.534974 -6.53869 3.53436 
6.40801 0.441448 4.58537 7.39172 1.07535 4.4853 8.22432 1.67194 4.17103 
8.68927 2.1588 3.41423 8.88598 2.65494 2.44922 9.10968 3.32414 1.70491 
9.3933 4.04638 1.22354 9.49086 4.5001 0.749275 9.2787 4.5596 0.172002 
6.31542 -0.295261 4.80781 7.24438 -0.51886 4.99628 8.14732 -0.799319 4.99339 
8.83131 -1.15087 4.43847 9.24262 -1.58465 3.43655 9.49246 -2.05487 2.44515 
9.69242 -2.49969 1.64799 9.85304 -2.94649 0.878728 9.92626 -3.44914 0.055866 
0.533879 6.71496 -2.63549 0.786904 7.28145 -2.03095 0.888444 7.9343 -1.25342 
0.772904 8.51544 -0.426689 0.559568 8.71878 0.350447 0.413754 8.44453 1.05335 
0.404112 7.95476 1.65579 0.507803 7.49899 2.15138 0.650543 7.06071 2.59406 
1.20835 6.57222 -3.50694 2.23842 6.78613 -3.7284 3.23501 6.83422 -3.61501 
4.06726 6.70878 -3.23649 4.78436 6.42453 -2.77505 5.55168 5.97583 -2.32068 
6.42879 5.39423 -1.82272 7.33158 4.84943 -1.27835 8.16246 4.51808 -0.791214 
-0.55352 5.98772 -2.28954 -1.74337 5.49148 -1.63466 -3.21474 4.95821 -1.343 
-4.6457 4.86077 -1.47232 -5.79485 5.42477 -1.74692 -6.8037 6.20364 -1.72222 
-7.90673 6.56674 -1.177 -9.07339 6.41013 -0.304582 -10.1219 6.03523 0.520805 
1.77009 6.80771 2.96509 2.68021 7.06207 2.93445 3.55439 7.30307 2.74897 
4.44608 7.35788 2.29246 5.2905 7.02439 1.74173 6.07157 6.3765 1.31615 
6.88839 5.72039 0.959168 7.72661 5.22823 0.528071 8.42106 4.8245 0.0373813 
-0.479134 6.58363 2.86785 -1.87371 6.44939 2.66623 -3.26665 6.01719 2.3275 
-4.59003 5.5825 1.89158 -5.94586 5.72333 1.59196 -7.39633 6.46638 1.57334 
-8.77373 7.0788 1.7041 -9.83942 6.99731 1.75291 -10.5266 6.37965 1.55922 
0.054299 -7.24174 -2.52872 -0.0509423 -7.99247 -1.95014 -0.203216 -8.93688 -1.47426 
-0.441885 -9.76287 -1.10431 -0.702953 -10.0403 -0.589302 -0.862777 -9.65761 0.264622 
-0.939256 -8.92103 1.30212 -1.04444 -8.19465 2.22528 -1.16542 -7.61067 2.90936 
0.758034 -6.75758 -2.28493 1.62063 -6.79918 -1.55975 2.68369 -6.89651 -1.36544 
3.81365 -7.03605 -1.72159 4.96055 -7.0772 -2.05327 6.15742 -6.86514 -1.99254 
7.35194 -6.35014 -1.73708 8.40719 -5.60194 -1.47283 9.24269 -4.76116 -1.13564 
-0.400377 -6.79809 -3.14424 -1.04663 -6.69263 -2.77649 -2.07829 -6.50448 -2.30054 
-3.61593 -6.45471 -2.18164 -5.31785 -6.57413 -2.36824 -6.67374 -6.63595 -2.3897 
-7.59929 -6.44439 -2.03394 -8.37581 -6.0091 -1.477 -9.13246 -5.43264 -0.926679 
-0.350081 -7.04666 2.94862 0.596927 -7.00075 2.55939 1.60422 -7.0125 2.34825 
2.72392 -6.84522 2.15198 3.99195 -6.29435 1.72619 5.33049 -5.5799 1.11721 
6.66187 -5.05236 0.553502 7.93979 -4.71616 0.0989837 9.05122 -4.37613 -0.315226 
-1.91486 -7.33672 3.4464 -2.50571 -7.23682 3.18252 -3.09881 -6.79659 2.57976 
-3.92939 -6.23725 1.84424 -5.00268 -5.79581 1.22413 -6.08174 -5.53672 0.82242 
-7.07333 -5.42116 0.592571 -8.06862 -5.35044 0.380225 -9.02418 -5.17233 0.0300848 
9.47824 3.98293 -0.525393 10.1223 3.36936 -0.62396 10.9031 2.48967 -0.676668 
11.6951 1.43273 -0.697387 12.1391 0.342234 -0.721543 12.0553 -0.686941 -0.728027 
11.6405 -1.61036 -0.688277 11.1271 -2.43481 -0.643344 10.5487 -3.21043 -0.648791 
-11.5124 5.07889 0.742768 -11.9336 4.52113 0.0943455 -11.9501 3.71146 -0.665094 
-11.3156 2.43501 -1.17548 -10.275 0.892409 -1.25733 -9.59985 -0.536967 -1.08303 
-9.6961 -1.77064 -0.898442 -10.1039 -2.92318 -0.751569 -10.1743 -3.97323 -0.600692 
-3.42079 0.518188 -2.25473 -2.78075 1.14186 -2.22128 -2.07888 0.627788 -2.23261 
-2.13163 1.77745 -1.98717 -1.38334 1.28678 -2.15931 -0.818703 0.789042 -2.43573 
-1.41532 2.49263 -1.84173 -0.800424 2.0201 -2.24837 -0.199393 1.48258 -2.56787 
0.27455 1.01104 -3.03311 -0.662068 3.3057 -2.14999 -0.294168 2.8755 -2.83202 
0.155344 2.26303 -3.242 0.665579 1.66312 -3.52621 1.16029 1.09237 -3.94918 
-0.163824 4.10497 -2.80499 0.0898906 3.72867 -3.767 0.353812 3.12112 -4.39369 
0.802617 2.39289 -4.51912 1.35356 1.65749 -4.63641 1.91174 0.901451 -4.88805 
-0.0115943 4.79394 -3.37424 0.260055 4.41678 -4.45768 0.497482 3.86849 -5.31862 
0.924693 3.16479 -5.51308 1.53347 2.35718 -5.37568 2.15985 1.48978 -5.41642 
2.71862 0.637121 -5.50247 0.140121 5.38925 -3.65705 0.411954 4.96692 -4.61318 
0.698007 4.42763 -5.48448 1.1681 3.80222 -5.84468 1.84638 3.08448 -5.71894 
2.56876 2.24914 -5.60124 3.18308 1.3575 -5.65905 3.66577 0.537798 -5.62441 
-5.59207 0.68827 -2.34 -6.43679 1.07953 -2.13339 -5.10405 1.29256 -2.27211 
-7.19964 1.71108 -1.79426 -6.02061 1.71769 -1.96878 -4.52574 1.86099 -1.98495 
-7.90072 2.59333 -1.72588 -6.88578 2.4558 -1.77079 -5.49205 2.331 -1.88299 
-3.73808 2.41068 -1.60744 -8.49616 3.47625 -2.00582 -7.60113 3.44265 -1.96318 
-6.3964 3.16838 -2.11682 -4.68726 2.90848 -1.87689 -2.74437 3.04521 -1.44125 
-8.95025 4.15446 -2.1148 -8.04547 4.3447 -2.25153 -7.02106 4.20535 -2.50399 
-5.58377 3.75106 -2.41021 -3.72411 3.51907 -1.87515 -1.91287 3.80497 -1.58466 
-9.35389 4.7358 -1.59278 -8.32256 5.04177 -2.0876 -7.3082 5.11164 -2.55035 
-6.16488 4.69468 -2.66231 -4.68587 4.19465 -2.27287 -2.96693 4.17718 -1.80139 
-1.46442 4.59703 -1.86252 -9.77292 5.38223 -0.565812 -8.66134 5.71186 -1.337 
-7.53498 5.86097 -2.05087 -6.4775 5.5024 -2.37716 -5.35217 4.85136 -2.19465 
-3.95174 4.55395 -1.80023 -2.411 4.8341 -1.69167 -1.11605 5.32748 -2.11125 
-9.63559 6.90275 0.905047 -8.87072 7.43397 1.08358 -8.51226 7.18796 7.83595e-05 
-7.7611 7.19601 1.15802 -7.74751 7.35544 0.283303 -7.32429 6.9083 -0.795956 
-6.37753 6.45231 1.28705 -6.67437 6.83287 0.628744 -6.60162 6.61922 -0.281231 
-6.22097 6.0304 -1.11218 -4.89401 6.10234 1.58592 -5.25301 6.39481 1.08167 
-5.47365 6.21687 0.318326 -5.38082 5.69169 -0.418398 -5.06167 5.19141 -0.98855 
-3.42839 6.49163 1.97231 -3.64518 6.73054 1.5565 -3.88133 6.53982 0.905039 
-3.97005 5.98191 0.185219 -3.84836 5.41953 -0.381643 -3.59272 5.10908 -0.873364 
-1.98868 7.02442 2.25833 -2.09496 7.41322 1.87591 -2.19653 7.46172 1.33011 
[...]
POINT_DATA 1002
FIELD FieldData 4
_paraPhi 1 1002 double
6.2831853072 3.1415926536 6.2831853072 3.1415926536 4.7123889804 4.7123889804 1.5707963268 1.5707963268 3.6951670125 
5.7296109483 2.5880182947 0.5535743589 6.2831853072 6.2831853072 6.2831853072 6.2831853072 3.1415926536 3.1415926536 
3.1415926536 3.1415926536 3.1415926536 6.1053039672 5.898798347 5.6768734901 5.4599499503 5.2659633393 5.1032165617 
4.9713148346 4.8656852733 4.7809517865 0.17788134 0.38438696014 0.60631181711 0.82323535693 1.0172219679 1.1799687454 
1.3118704726 1.4175000338 1.5022335207 6.1892828907 6.1070320098 6.035312792 5.9728339911 5.9183214791 5.8706119594 
5.8286879411 5.7916808611 5.7588591896 0.093902416448 0.17615329733 0.2478725152 0.31035131605 0.36486382811 0.41257334776 
0.45449736604 0.4915044461 0.52432611754 3.3194739936 3.5259796137 3.7479044707 3.9648280105 4.1588146215 4.321561399 
4.4534631262 4.5590926874 4.6438261743 2.9637113136 2.7572056934 2.5352808365 2.3183572967 2.1243706857 1.9616239082 
1.829722181 1.7240926197 1.6393591329 3.23549507 3.3177459509 3.3894651688 3.4519439696 3.5064564817 3.5541660013 
3.5960900196 3.6330970997 3.6659187711 3.0476902371 2.9654393563 2.8937201384 2.8312413375 2.7767288255 2.7290193058 
2.6870952876 2.6500882075 2.617266536 6.2831853072 6.2831853072 6.2831853072 6.2831853072 3.1415926536 3.1415926536 
3.1415926536 3.1415926536 3.1415926536 6.1053039672 5.898798347 5.6768734901 5.4599499503 5.2659633393 5.1032165617 
4.9713148346 4.8656852733 4.7809517865 0.17788134 0.38438696014 0.60631181711 0.82323535693 1.0172219679 1.1799687454 
1.3118704726 1.4175000338 1.5022335207 6.1892828907 6.1070320098 6.035312792 5.9728339911 5.9183214791 5.8706119594 
5.8286879411 5.7916808611 5.7588591896 0.093902416448 0.17615329733 0.2478725152 0.31035131605 0.36486382811 0.41257334776 
0.45449736604 0.4915044461 0.52432611754 3.3194739936 3.5259796137 3.7479044707 3.9648280105 4.1588146215 4.321561399 
4.4534631262 4.5590926874 4.6438261743 2.9637113136 2.7572056934 2.5352808365 2.3183572967 2.1243706857 1.9616239082 
1.829722181 1.7240926197 1.6393591329 3.23549507 3.3177459509 3.3894651688 3.4519439696 3.5064564817 3.5541660013 
3.5960900196 3.6330970997 3.6659187711 3.0476902371 2.9654393563 2.8937201384 2.8312413375 2.7767288255 2.7290193058 
2.6870952876 2.6500882075 2.617266536 4.7123889804 4.7123889804 4.7123889804 4.7123889804 4.7123889804 4.7123889804 
4.7123889804 4.7123889804 4.7123889804 4.6087898617 4.4991390697 4.3857031936 4.2712800401 4.1588146215 4.0509635631 
3.94975894 3.8564636551 3.7716124825 4.8159880991 4.9256388911 5.0390747672 5.1534979207 5.2659633393 5.3738143976 
5.4750190208 5.5683143056 5.6531654782 4.6087898617 4.4991390697 4.3857031936 4.2712800401 4.1588146215 4.0509635631 
3.94975894 3.8564636551 3.7716124825 4.8159880991 4.9256388911 5.0390747672 5.1534979207 5.2659633393 5.3738143976 
5.4750190208 5.5683143056 5.6531654782 1.5707963268 1.5707963268 1.5707963268 1.5707963268 1.5707963268 1.5707963268 
1.5707963268 1.5707963268 1.5707963268 1.6743954455 1.7840462375 1.8974821136 2.0119052671 2.1243706857 2.232221744 
2.3334263672 2.426721652 2.5115728246 1.4671972081 1.3575464161 1.24411054 1.1296873865 1.0172219679 0.90937090954 
0.80816628637 0.71487100155 0.63001982895 1.6743954455 1.7840462375 1.8974821136 2.0119052671 2.1243706857 2.232221744 
2.3334263672 2.426721652 2.5115728246 1.4671972081 1.3575464161 1.24411054 1.1296873865 1.0172219679 0.90937090954 
0.80816628637 0.71487100155 0.63001982895 3.6007720849 3.4966939854 3.3839471039 3.2645756454 3.1415926536 3.0186096618 
2.8992382033 2.7864913217 2.6824132222 5.8240058758 5.9280839753 6.0408308569 6.1602023154 6.2831853072 0.12298299178 
0.2423544503 0.35510133185 0.45917943135 6.0560271438 5.7885595667 5.9702140275 5.5125918794 5.6029703303 5.7885595667 
5.2659633393 5.2659633393 5.2659633393 5.2659633393 5.0674903122 5.0120975802 4.9155579264 4.7123889804 4.1588146215 
4.9155579264 4.8353719722 4.7123889804 4.5092200343 4.1588146215 3.6362183941 4.8004512023 4.7123889804 4.5894059886 
4.4126803806 4.1588146215 3.8218076305 3.4545639333 4.7123889804 4.6243267584 4.5092200343 4.3572876485 4.1588146215 
3.9121860814 3.6362183941 3.368750817 6.0174235957 5.9434319871 5.8263323547 5.8809213739 5.7674481418 5.6279784266 
5.8278025282 5.718968232 5.5891129425 5.4372443565 5.7823484065 5.678536687 5.5575666702 5.4192596322 5.2659633393 
5.743164462 5.6444075337 5.5314983644 5.4046708639 5.2659633393 5.1195510325 5.7091357773 5.6152775188 5.5096229709 
5.3926039573 5.2659633393 5.1329233157 4.9978930058 5.6793730533 5.5901633916 5.4910209005 5.3824597928 5.2659633393 
5.1440684722 5.0201624502 4.8979782167 5.5683143056 5.4750190208 5.4750190208 5.3738143976 5.3738143976 5.3738143976 
5.2659633393 5.2659633393 5.2659633393 5.2659633393 5.1534979207 5.1534979207 5.1534979207 5.1534979207 5.1534979207 
5.0390747672 5.0390747672 5.0390747672 5.0390747672 5.0390747672 5.0390747672 4.9256388911 4.9256388911 4.9256388911 
4.9256388911 4.9256388911 4.9256388911 4.9256388911 4.8159880991 4.8159880991 4.8159880991 4.8159880991 4.8159880991 
4.8159880991 4.8159880991 4.8159880991 4.6087898617 4.6087898617 4.4991390697 4.6087898617 4.4991390697 4.3857031936 
4.6087898617 4.4991390697 4.3857031936 4.2712800401 4.6087898617 4.4991390697 4.3857031936 4.2712800401 4.1588146215 
4.6087898617 4.4991390697 4.3857031936 4.2712800401 4.1588146215 4.0509635631 4.6087898617 4.4991390697 4.3857031936 
4.2712800401 4.1588146215 4.0509635631 3.94975894 4.6087898617 4.4991390697 4.3857031936 4.2712800401 4.1588146215 
4.0509635631 3.94975894 3.8564636551 4.526799744 4.4046155105 4.426884955 4.2807094886 4.2918546451 4.3052269283 
4.1588146215 4.1588146215 4.1588146215 4.1588146215 4.042318168 4.0321740035 4.0201070968 4.0055183285 3.9875336042 
3.9337570603 3.9151549899 3.8932795963 3.8672112905 3.8356650183 3.7967995342 3.8346145692 3.809500442 3.7803704271 
3.7462412737 3.7058097288 3.657329819 3.5984456061 3.7454049075 3.7156421835 3.6816134988 3.6424295543 3.5969754326 
3.5438565869 3.4813459737 3.4073543651 3.5642842451 3.4524645613 3.5233842518 3.3320300872 3.403123212 3.4773852225 
3.20576226 3.2746326772 3.348015857 3.4255060145 3.0774230472 3.1415926536 3.2112816139 3.2864685043 3.3668817272 
2.95115522 3.00855263 3.0719036933 3.1415926536 3.2178377658 3.3005964304 2.8307207459 2.8800620952 2.9351694502 
2.9967168029 3.0653475414 3.1415926536 3.225752376 2.718901062 2.7598010554 2.8058000847 2.8576792927 2.91630358 
2.9825888767 3.0574329311 3.1415926536 3.5642842451 3.5233842518 3.4524645613 3.4773852225 3.403123212 3.3320300872 
3.4255060145 3.348015857 3.2746326772 3.20576226 3.3668817272 3.2864685043 3.2112816139 3.1415926536 3.0774230472 
3.3005964304 3.2178377658 3.1415926536 3.0719036933 3.00855263 2.95115522 3.225752376 3.1415926536 3.0653475414 
2.9967168029 2.9351694502 2.8800620952 2.8307207459 3.1415926536 3.0574329311 2.9825888767 2.91630358 2.8576792927 
2.8058000847 2.7598010554 2.718901062 4.526799744 4.426884955 4.4046155105 4.3052269283 4.2918546451 4.2807094886 
4.1588146215 4.1588146215 4.1588146215 4.1588146215 3.9875336042 4.0055183285 4.0201070968 4.0321740035 4.042318168 
3.7967995342 3.8356650183 3.8672112905 3.8932795963 3.9151549899 3.9337570603 3.5984456061 3.657329819 3.7058097288 
3.7462412737 3.7803704271 3.809500442 3.8346145692 3.4073543651 3.4813459737 3.5438565869 3.5969754326 3.6424295543 
3.6816134988 3.7156421835 3.7454049075 4.7123889804 4.8004512023 4.6243267584 4.9155579264 4.7123889804 4.5092200343 
5.0674903122 4.8353719722 4.5894059886 4.3572876485 5.2659633393 5.0120975802 4.7123889804 4.4126803806 4.1588146215 
5.5125918794 5.2659633393 4.9155579264 4.5092200343 4.1588146215 3.9121860814 5.7885595667 5.6029703303 5.2659633393 
4.7123889804 4.1588146215 3.8218076305 3.6362183941 6.0560271438 5.9702140275 5.7885595667 5.2659633393 4.1588146215 
3.6362183941 3.4545639333 3.368750817 0.22715816343 0.49462574053 0.3129712797 0.77059342779 0.68021497688 0.49462574053 
1.0172219679 1.0172219679 1.0172219679 1.0172219679 1.2156949949 1.271087727 1.3676273807 1.5707963268 2.1243706857 
1.3676273807 1.447813335 1.5707963268 1.7739652728 2.1243706857 2.6469669131 1.4827341049 1.5707963268 1.6937793186 
1.8705049266 2.1243706857 2.4613776767 2.8286213739 1.5707963268 1.6588585487 1.7739652728 1.9258976586 2.1243706857 
2.3709992258 2.6469669131 2.9144344902 1.7563855631 1.8785697967 1.8563003522 2.0024758186 1.9913306621 1.9779583789 
2.1243706857 2.1243706857 2.1243706857 2.1243706857 2.2408671392 2.2510113037 2.2630782103 2.2776669786 2.295651703 
2.3494282469 2.3680303173 2.3899057108 2.4159740166 2.4475202889 2.486385773 2.448570738 2.4736848652 2.5028148801 
2.5369440334 2.5773755784 2.6258554882 2.6847397011 2.5377803997 2.5675431237 2.6015718084 2.6407557529 2.6862098746 
2.7393287203 2.8018393335 2.8758309421 1.6743954455 1.6743954455 1.7840462375 1.6743954455 1.7840462375 1.8974821136 
1.6743954455 1.7840462375 1.8974821136 2.0119052671 1.6743954455 1.7840462375 1.8974821136 2.0119052671 2.1243706857 
1.6743954455 1.7840462375 1.8974821136 2.0119052671 2.1243706857 2.232221744 1.6743954455 1.7840462375 1.8974821136 
2.0119052671 2.1243706857 2.232221744 2.3334263672 1.6743954455 1.7840462375 1.8974821136 2.0119052671 2.1243706857 
2.232221744 2.3334263672 2.426721652 1.4671972081 1.3575464161 1.4671972081 1.24411054 1.3575464161 1.4671972081 
1.1296873865 1.24411054 1.3575464161 1.4671972081 1.0172219679 1.1296873865 1.24411054 1.3575464161 1.4671972081 
0.90937090954 1.0172219679 1.1296873865 1.24411054 1.3575464161 1.4671972081 0.80816628637 0.90937090954 1.0172219679 
1.1296873865 1.24411054 1.3575464161 1.4671972081 0.71487100155 0.80816628637 0.90937090954 1.0172219679 1.1296873865 
1.24411054 1.3575464161 1.4671972081 0.60381225391 0.57404952988 0.69302191562 0.54002084522 0.66790778838 0.79216440667 
0.50083690068 0.63877777351 0.77356233629 0.90072551443 0.45538277901 0.60464862014 0.75168694275 0.89058134991 1.0172219679 
0.40226393329 0.56421707518 0.72561863695 0.87851444325 1.0172219679 1.139116835 0.33975332011 0.51573716537 0.69407236469 
0.86392567495 1.0172219679 1.1502619915 1.2630228569 0.26576171152 0.45685295248 0.6552068806 0.84594095064 1.0172219679 
1.1636342747 1.2852923014 1.3852070904 0.22715816343 0.3129712797 0.49462574053 0.49462574053 0.68021497688 0.77059342779 
1.0172219679 1.0172219679 1.0172219679 1.0172219679 2.1243706857 1.5707963268 1.3676273807 1.271087727 1.2156949949 
2.6469669131 2.1243706857 1.7739652728 1.5707963268 1.447813335 1.3676273807 2.8286213739 2.4613776767 2.1243706857 
1.8705049266 1.6937793186 1.5707963268 1.4827341049 2.9144344902 2.6469669131 2.3709992258 2.1243706857 1.9258976586 
1.7739652728 1.6588585487 1.5707963268 1.7563855631 1.8563003522 1.8785697967 1.9779583789 1.9913306621 2.0024758186 
2.1243706857 2.1243706857 2.1243706857 2.1243706857 2.295651703 2.2776669786 2.2630782103 2.2510113037 2.2408671392 
2.486385773 2.4475202889 2.4159740166 2.3899057108 2.3680303173 2.3494282469 2.6847397011 2.6258554882 2.5773755784 
2.5369440334 2.5028148801 2.4736848652 2.448570738 2.8758309421 2.8018393335 2.7393287203 2.6862098746 2.6407557529 
2.6015718084 2.5675431237 2.5377803997 5.8604937156 5.901393709 5.9723133995 5.9473927383 6.0216547488 6.0927478736 
5.9992719463 6.0767621038 6.1501452836 6.2190157008 6.0578962336 6.1383094565 6.2134963469 0 0.064169606361 
6.1241815303 6.206940195 6.2831853072 0.069688960264 0.13304002361 0.19043743361 6.1990255847 0 0.07624511221 
0.14487585072 0.20642320337 0.26153055843 0.3108719077 0 0.084159722458 0.15900377685 0.22528907359 0.28391336087 
0.3357925689 0.38179159818 0.42269159155 5.8604937156 5.9723133995 5.901393709 6.0927478736 6.0216547488 5.9473927383 
6.2190157008 6.1501452836 6.0767621038 5.9992719463 0.064169606361 0 6.2134963469 6.1383094565 6.0578962336 
0.19043743361 0.13304002361 0.069688960264 6.2831853072 6.206940195 6.1241815303 0.3108719077 0.26153055843 0.20642320337 
0.14487585072 0.07624511221 6.2831853072 6.1990255847 0.42269159155 0.38179159818 0.3357925689 0.28391336087 0.22528907359 
0.15900377685 0.084159722458 0 5.6793730533 5.7091357773 5.5901633916 5.743164462 5.6152775188 5.4910209005 
5.7823484065 5.6444075337 5.5096229709 5.3824597928 5.8278025282 5.678536687 5.5314983644 5.3926039573 5.2659633393 
5.8809213739 5.718968232 5.5575666702 5.4046708639 5.2659633393 5.1440684722 5.9434319871 5.7674481418 5.5891129425 
5.4192596322 5.2659633393 5.1329233157 5.0201624502 6.0174235957 5.8263323547 5.6279784266 5.4372443565 5.2659633393 
5.1195510325 4.9978930058 4.8979782167 1.3852070904 1.2852923014 1.2630228569 1.1636342747 1.1502619915 1.139116835 
1.0172219679 1.0172219679 1.0172219679 1.0172219679 0.84594095064 0.86392567495 0.87851444325 0.89058134991 0.90072551443 
0.6552068806 0.69407236469 0.72561863695 0.75168694275 0.77356233629 0.79216440667 0.45685295248 0.51573716537 0.56421707518 
0.60464862014 0.63877777351 0.66790778838 0.69302191562 0.26576171152 0.33975332011 0.40226393329 0.45538277901 0.50083690068 
0.54002084522 0.57404952988 0.60381225391 
_paraPhiHalf 1 1002 double
0 3.1415926536 0 3.1415926536 1.5707963268 1.5707963268 1.5707963268 1.5707963268 2.5880182947 
0.5535743589 2.5880182947 0.5535743589 0 0 0 0 3.1415926536 3.1415926536 
3.1415926536 3.1415926536 3.1415926536 0.17788134 0.38438696014 0.60631181711 0.82323535693 1.0172219679 1.1799687454 
1.3118704726 1.4175000338 1.5022335207 0.17788134 0.38438696014 0.60631181711 0.82323535693 1.0172219679 1.1799687454 
1.3118704726 1.4175000338 1.5022335207 0.093902416448 0.17615329733 0.2478725152 0.31035131605 0.36486382811 0.41257334776 
0.45449736604 0.4915044461 0.52432611754 0.093902416448 0.17615329733 0.2478725152 0.31035131605 0.36486382811 0.41257334776 
0.45449736604 0.4915044461 0.52432611754 2.9637113136 2.7572056934 2.5352808365 2.3183572967 2.1243706857 1.9616239082 
1.829722181 1.7240926197 1.6393591329 2.9637113136 2.7572056934 2.5352808365 2.3183572967 2.1243706857 1.9616239082 
1.829722181 1.7240926197 1.6393591329 3.0476902371 2.9654393563 2.8937201384 2.8312413375 2.7767288255 2.7290193058 
2.6870952876 2.6500882075 2.617266536 3.0476902371 2.9654393563 2.8937201384 2.8312413375 2.7767288255 2.7290193058 
2.6870952876 2.6500882075 2.617266536 0 0 0 0 3.1415926536 3.1415926536 
3.1415926536 3.1415926536 3.1415926536 0.17788134 0.38438696014 0.60631181711 0.82323535693 1.0172219679 1.1799687454 
1.3118704726 1.4175000338 1.5022335207 0.17788134 0.38438696014 0.60631181711 0.82323535693 1.0172219679 1.1799687454 
1.3118704726 1.4175000338 1.5022335207 0.093902416448 0.17615329733 0.2478725152 0.31035131605 0.36486382811 0.41257334776 
0.45449736604 0.4915044461 0.52432611754 0.093902416448 0.17615329733 0.2478725152 0.31035131605 0.36486382811 0.41257334776 
0.45449736604 0.4915044461 0.52432611754 2.9637113136 2.7572056934 2.5352808365 2.3183572967 2.1243706857 1.9616239082 
1.829722181 1.7240926197 1.6393591329 2.9637113136 2.7572056934 2.5352808365 2.3183572967 2.1243706857 1.9616239082 
1.829722181 1.7240926197 1.6393591329 3.0476902371 2.9654393563 2.8937201384 2.8312413375 2.7767288255 2.7290193058 
2.6870952876 2.6500882075 2.617266536 3.0476902371 2.9654393563 2.8937201384 2.8312413375 2.7767288255 2.7290193058 
2.6870952876 2.6500882075 2.617266536 1.5707963268 1.5707963268 1.5707963268 1.5707963268 1.5707963268 1.5707963268 
1.5707963268 1.5707963268 1.5707963268 1.6743954455 1.7840462375 1.8974821136 2.0119052671 2.1243706857 2.232221744 
2.3334263672 2.426721652 2.5115728246 1.4671972081 1.3575464161 1.24411054 1.1296873865 1.0172219679 0.90937090954 
0.80816628637 0.71487100155 0.63001982895 1.6743954455 1.7840462375 1.8974821136 2.0119052671 2.1243706857 2.232221744 
2.3334263672 2.426721652 2.5115728246 1.4671972081 1.3575464161 1.24411054 1.1296873865 1.0172219679 0.90937090954 
0.80816628637 0.71487100155 0.63001982895 1.5707963268 1.5707963268 1.5707963268 1.5707963268 1.5707963268 1.5707963268 
1.5707963268 1.5707963268 1.5707963268 1.6743954455 1.7840462375 1.8974821136 2.0119052671 2.1243706857 2.232221744 
2.3334263672 2.426721652 2.5115728246 1.4671972081 1.3575464161 1.24411054 1.1296873865 1.0172219679 0.90937090954 
0.80816628637 0.71487100155 0.63001982895 1.6743954455 1.7840462375 1.8974821136 2.0119052671 2.1243706857 2.232221744 
2.3334263672 2.426721652 2.5115728246 1.4671972081 1.3575464161 1.24411054 1.1296873865 1.0172219679 0.90937090954 
0.80816628637 0.71487100155 0.63001982895 2.6824132222 2.7864913217 2.8992382033 3.0186096618 3.1415926536 3.0186096618 
2.8992382033 2.7864913217 2.6824132222 0.45917943135 0.35510133185 0.2423544503 0.12298299178 0 0.12298299178 
0.2423544503 0.35510133185 0.45917943135 0.22715816343 0.49462574053 0.3129712797 0.77059342779 0.68021497688 0.49462574053 
1.0172219679 1.0172219679 1.0172219679 1.0172219679 1.2156949949 1.271087727 1.3676273807 1.5707963268 2.1243706857 
1.3676273807 1.447813335 1.5707963268 1.7739652728 2.1243706857 2.6469669131 1.4827341049 1.5707963268 1.6937793186 
1.8705049266 2.1243706857 2.4613776767 2.8286213739 1.5707963268 1.6588585487 1.7739652728 1.9258976586 2.1243706857 
2.3709992258 2.6469669131 2.9144344902 0.26576171152 0.33975332011 0.45685295248 0.40226393329 0.51573716537 0.6552068806 
0.45538277901 0.56421707518 0.69407236469 0.84594095064 0.50083690068 0.60464862014 0.72561863695 0.86392567495 1.0172219679 
0.54002084522 0.63877777351 0.75168694275 0.87851444325 1.0172219679 1.1636342747 0.57404952988 0.66790778838 0.77356233629 
0.89058134991 1.0172219679 1.1502619915 1.2852923014 0.60381225391 0.69302191562 0.79216440667 0.90072551443 1.0172219679 
1.139116835 1.2630228569 1.3852070904 0.71487100155 0.80816628637 0.80816628637 0.90937090954 0.90937090954 0.90937090954 
1.0172219679 1.0172219679 1.0172219679 1.0172219679 1.1296873865 1.1296873865 1.1296873865 1.1296873865 1.1296873865 
1.24411054 1.24411054 1.24411054 1.24411054 1.24411054 1.24411054 1.3575464161 1.3575464161 1.3575464161 
1.3575464161 1.3575464161 1.3575464161 1.3575464161 1.4671972081 1.4671972081 1.4671972081 1.4671972081 1.4671972081 
1.4671972081 1.4671972081 1.4671972081 1.6743954455 1.6743954455 1.7840462375 1.6743954455 1.7840462375 1.8974821136 
1.6743954455 1.7840462375 1.8974821136 2.0119052671 1.6743954455 1.7840462375 1.8974821136 2.0119052671 2.1243706857 
1.6743954455 1.7840462375 1.8974821136 2.0119052671 2.1243706857 2.232221744 1.6743954455 1.7840462375 1.8974821136 
2.0119052671 2.1243706857 2.232221744 2.3334263672 1.6743954455 1.7840462375 1.8974821136 2.0119052671 2.1243706857 
2.232221744 2.3334263672 2.426721652 1.7563855631 1.8785697967 1.8563003522 2.0024758186 1.9913306621 1.9779583789 
2.1243706857 2.1243706857 2.1243706857 2.1243706857 2.2408671392 2.2510113037 2.2630782103 2.2776669786 2.295651703 
2.3494282469 2.3680303173 2.3899057108 2.4159740166 2.4475202889 2.486385773 2.448570738 2.4736848652 2.5028148801 
2.5369440334 2.5773755784 2.6258554882 2.6847397011 2.5377803997 2.5675431237 2.6015718084 2.6407557529 2.6862098746 
2.7393287203 2.8018393335 2.8758309421 2.718901062 2.8307207459 2.7598010554 2.95115522 2.8800620952 2.8058000847 
3.0774230472 3.00855263 2.9351694502 2.8576792927 3.0774230472 3.1415926536 3.0719036933 2.9967168029 2.91630358 
2.95115522 3.00855263 3.0719036933 3.1415926536 3.0653475414 2.9825888767 2.8307207459 2.8800620952 2.9351694502 
2.9967168029 3.0653475414 3.1415926536 3.0574329311 2.718901062 2.7598010554 2.8058000847 2.8576792927 2.91630358 
2.9825888767 3.0574329311 3.1415926536 2.718901062 2.7598010554 2.8307207459 2.8058000847 2.8800620952 2.95115522 
2.8576792927 2.9351694502 3.00855263 3.0774230472 2.91630358 2.9967168029 3.0719036933 3.1415926536 3.0774230472 
2.9825888767 3.0653475414 3.1415926536 3.0719036933 3.00855263 2.95115522 3.0574329311 3.1415926536 3.0653475414 