# vtk DataFile Version 5.1
vtk output
ASCII
DATASET POLYDATA
POINTS 100 float
7.17256 26.7835 15.3352 7.17232 26.7968 15.3385 7.17367 26.8321 15.3417 
7.17885 26.8882 15.3441 7.19134 26.9627 15.345 7.21541 27.0529 15.3438 
7.2557 27.1557 15.3393 7.31671 27.2679 15.3308 7.4023 27.3863 15.3175 
7.51529 27.5081 15.2988 7.65714 27.6313 15.2743 7.82781 27.7543 15.2439 
8.02575 27.8763 15.2074 8.24805 27.9974 15.165 8.49067 28.1184 15.117 
8.74889 28.2406 15.0638 9.01766 28.3658 15.0055 9.29204 28.4962 14.9427 
9.56759 28.6338 14.8756 9.84067 28.7807 14.8048 10.1086 28.9386 14.7307 
10.3699 29.109 14.6541 10.6239 29.2926 14.5759 10.871 29.4899 14.497 
11.1123 29.7005 14.4187 11.3493 29.9239 14.3424 11.5837 30.1588 14.2695 
11.8172 30.4037 14.2013 12.0513 30.6571 14.139 12.2871 30.9169 14.0834 
12.5252 31.1812 14.0347 12.7661 31.4483 13.9928 13.0096 31.7162 13.9568 
13.2555 31.9833 13.9253 13.5034 32.2482 13.8965 13.7526 32.5098 13.8683 
14.0028 32.7669 13.8382 14.2534 33.019 13.8041 14.5041 33.2656 13.764 
14.7546 33.5066 13.7166 15.0044 33.7423 13.6611 15.2532 33.9731 13.5974 
15.5005 34.1998 13.5261 15.7455 34.4234 13.4486 15.9877 34.645 13.3666 
16.226 34.866 13.2821 16.4597 35.0876 13.197 16.6882 35.3112 13.113 
16.9108 35.5379 13.0316 17.1275 35.7684 12.9535 17.3383 36.0033 12.8787 
17.5439 36.2427 12.8067 17.7454 36.4862 12.7367 17.944 36.733 12.6671 
18.1414 36.9821 12.5968 18.3393 37.232 12.5245 18.5396 37.4811 12.4493 
18.7437 37.7281 12.3712 18.953 37.9713 12.2905 19.168 38.2098 12.2085 
19.3892 38.4429 12.1269 19.6164 38.6704 12.0481 19.8486 38.8927 11.9747 
20.0849 39.1108 11.909 20.3237 39.3262 11.8534 20.5633 39.5407 11.8096 
20.802 39.7562 11.7786 21.0378 39.9748 11.7605 21.2691 40.1982 11.7548 
21.4944 40.4278 11.7601 21.7124 40.6645 11.7746 21.922 40.9084 11.7961 
22.1223 41.1591 11.8223 22.3126 41.4152 11.851 22.4926 41.675 11.8804 
22.6622 41.9363 11.9091 22.8215 42.1965 11.9362 22.9712 42.453 11.9613 
23.1122 42.7035 11.9843 23.246 42.946 12.0052 23.3744 43.1792 12.0242 
23.4997 43.4021 12.0411 23.6247 43.6147 12.0554 23.752 43.8175 12.0664 
23.8846 44.0114 12.0728 24.0249 44.1978 12.0731 24.1752 44.3778 12.0656 
24.3364 44.5529 12.049 24.5089 44.7237 12.0221 24.6915 44.8904 11.9845 
24.8818 45.0527 11.9365 25.0761 45.2092 11.8794 25.2694 45.3579 11.8154 
25.4558 45.4962 11.7479 25.6288 45.621 11.6804 25.7818 45.729 11.6171 
25.9085 45.817 11.5622 26.0033 45.8821 11.5193 26.062 45.9219 11.4915 
26.0818 45.9351 11.4807 
LINES 2 100
OFFSETS vtktypeint64
0 100 
CONNECTIVITY vtktypeint64
0 1 2 3 4 5 6 7 8 
9 10 11 12 13 14 15 16 17 
18 19 20 21 22 23 24 25 26 
27 28 29 30 31 32 33 34 35 
36 37 38 39 40 41 42 43 44 
45 46 47 48 49 50 51 52 53 
54 55 56 57 58 59 60 61 62 
63 64 65 66 67 68 69 70 71 
72 73 74 75 76 77 78 79 80 
81 82 83 84 85 86 87 88 89 
90 91 92 93 94 95 96 97 98 
99 
POINT_DATA 100
FIELD FieldData 3
_theta 1 100 double
0 0.031733259127 0.063466518254 0.095199777382 0.12693303651 0.15866629564 0.19039955476 0.22213281389 0.25386607302 
0.28559933214 0.31733259127 0.3490658504 0.38079910953 0.41253236865 0.44426562778 0.47599888691 0.50773214603 0.53946540516 
0.57119866429 0.60293192342 0.63466518254 0.66639844167 0.6981317008 0.72986495992 0.76159821905 0.79333147818 0.82506473731 
0.85679799643 0.88853125556 0.92026451469 0.95199777382 0.98373103294 1.0154642921 1.0471975512 1.0789308103 1.1106640695 
1.1423973286 1.1741305877 1.2058638468 1.237597106 1.2693303651 1.3010636242 1.3327968833 1.3645301425 1.3962634016 
1.4279966607 1.4597299198 1.491463179 1.5231964381 1.5549296972 1.5866629564 1.6183962155 1.6501294746 1.6818627337 
1.7135959929 1.745329252 1.7770625111 1.8087957702 1.8405290294 1.8722622885 1.9039955476 1.9357288068 1.9674620659 
1.999195325 2.0309285841 2.0626618433 2.0943951024 2.1261283615 2.1578616206 2.1895948798 2.2213281389 2.253061398 
2.2847946572 2.3165279163 2.3482611754 2.3799944345 2.4117276937 2.4434609528 2.4751942119 2.506927471 2.5386607302 
2.5703939893 2.6021272484 2.6338605076 2.6655937667 2.6973270258 2.7290602849 2.7607935441 2.7925268032 2.8242600623 
2.8559933214 2.8877265806 2.9194598397 2.9511930988 2.982926358 3.0146596171 3.0463928762 3.0781261353 3.1098593945 
3.1415926536 
_radius 1 100 double
3.7261175413e-14 0.31744591915 0.62940056817 0.93086928015 1.2176574472 1.4866128469 1.7357478201 1.9642734324 2.1725764397 
2.3621408377 2.5353957351 2.6954800314 2.8459391219 2.99038809 3.1321808597 3.2741205478 3.4182395487 3.5656688321 
3.716602971 3.870354814 4.02548746 4.1800105883 4.3316267243 4.4780063612 4.6170612065 4.747178439 4.8673807718 
4.9773879697 5.0775723454 5.1688196332 5.2523235895 5.3293538975 5.4010393995 5.4682013122 5.5312560175 5.5901894037 
5.6445910599 5.6937314344 5.7366675297 5.7723670784 5.7998421164 5.8182803511 5.82716035 5.826336758 5.8160840725 
5.7970910433 5.7704030283 5.7373176228 5.6992488945 5.6575841397 5.6135593996 5.5681730545 5.5221425768 5.475894961 
5.4295745597 5.3830566612 5.3359672394 5.2877196017 5.2375789503 5.184755433 5.128512409 5.068268278 5.0036706029 
4.9346275839 4.8612904843 4.7839911466 4.7031534819 4.6192144302 4.532594014 4.4437274869 4.3531230776 4.2613801528 
4.1691267897 4.0768917977 3.9849677698 3.8933241602 3.8016005506 3.709173369 3.6152627773 3.5190358735 3.4196663515 
3.3163284842 3.2081335389 3.0940510256 2.9728765351 2.8432927054 2.7040209779 2.5540099501 2.3925877901 2.2195295165 
2.0350327488 1.8396308812 1.6340872502 1.4193083073 1.1962961655 0.96614114832 0.73004031624 0.48932082923 0.24544733787 
2.5499446041e-14 
_area 1 100 double
0 0.26011045015 1.025926833 2.2592605878 3.9094075331 5.9203660985 8.2307633112 10.773034746 13.478224851 
16.285344365 19.150127475 22.049261229 24.979489862 27.953640334 30.996183824 34.139481924 37.419713132 40.870468075 
44.513179638 48.346252066 52.336962036 56.420165634 60.505429552 64.490905177 68.279938964 71.795902771 74.991735161 
77.852625647 80.392569814 82.647330953 84.666857829 86.509234502 88.236200199 89.908301646 91.577507635 93.277114801 
95.011357725 96.7486848 98.422659754 99.942316023 101.21001576 102.1417826 102.68434172 102.82428966 102.58682991 
102.02440595 101.19983962 100.17175473 98.987887101 97.685878263 96.297881665 94.857948406 93.426354266 92.060585584 
90.658398931 89.135465811 87.485011809 85.73938248 83.964095627 82.14372227 80.211587547 78.125020001 75.865225295 
73.438009 70.870000983 68.20060186 65.472734146 62.725381272 59.990609031 57.296430744 54.673142151 52.157494411 
49.78974523 47.602818684 45.608234419 43.787485722 42.095339226 40.472454638 38.858933928 37.203114365 35.465046795 
33.617027073 31.643208018 29.538462148 27.306834187 24.960752077 22.521270165 20.018223883 17.489043912 14.976177841 
12.524322594 10.178683012 7.9842768743 5.9852654201 4.2234071585 2.735669613 1.5518818008 0.69348618434 0.17388905275 
8.5265128291e-13 
