# vtk DataFile Version 5.1
vtk output
ASCII
DATASET POLYDATA
POINTS 100 float
6.85897 31.3654 13.5889 6.86864 31.3713 13.5861 6.89704 31.3914 13.5826 
6.94374 31.4251 13.5788 7.00805 31.472 13.5755 7.08907 31.5312 13.5732 
7.18576 31.6015 13.5726 7.29696 31.6818 13.5739 7.42153 31.7707 13.577 
7.55836 31.8666 13.5811 7.70644 31.9681 13.5849 7.86495 32.0736 13.5868 
8.03323 32.1818 13.5845 8.21081 32.2915 13.5759 8.39742 32.4018 13.5587 
8.59292 32.512 13.5311 8.79729 32.6218 13.4918 9.01052 32.7314 13.4402 
9.23261 32.8411 13.3767 9.46346 32.9515 13.3023 9.70286 33.0634 13.2191 
9.95045 33.1777 13.1297 10.2057 33.2952 13.0368 10.4681 33.4164 12.9437 
10.7369 33.5418 12.8532 11.0114 33.6713 12.7678 11.291 33.8046 12.6895 
11.5751 33.9409 12.6195 11.8637 34.0791 12.5581 12.1564 34.218 12.505 
12.4536 34.3562 12.4595 12.7555 34.4921 12.4201 13.0625 34.6246 12.3856 
13.3751 34.7526 12.3545 13.6936 34.8756 12.3255 14.018 34.9935 12.2979 
14.3481 35.1064 12.2713 14.6831 35.2153 12.2457 15.0217 35.3214 12.2213 
15.3624 35.426 12.1988 15.7029 35.5308 12.1785 16.0411 35.6373 12.1608 
16.3745 35.7471 12.1458 16.7008 35.8612 12.1331 17.0182 35.9805 12.1217 
17.3251 36.1052 12.1105 17.6208 36.2353 12.0979 17.9055 36.3702 12.0823 
18.1797 36.5091 12.0619 18.445 36.651 12.0354 18.7034 36.7948 12.0023 
18.9572 36.9395 11.9622 19.2087 37.0843 11.9158 19.4601 37.2286 11.8645 
19.7132 37.3724 11.8104 19.969 37.516 11.756 20.2278 37.66 11.7041 
20.4891 37.8054 11.6574 20.7517 37.9533 11.6183 21.0139 38.1049 11.5889 
21.2734 38.2614 11.5703 21.5281 38.4235 11.5628 21.7761 38.5918 11.566 
22.016 38.7664 11.5783 22.2471 38.9469 11.5981 22.4696 39.1322 11.6228 
22.6847 39.321 11.6501 22.8941 39.5116 11.6777 23.1006 39.7018 11.7036 
23.3069 39.8896 11.7268 23.516 40.0728 11.7467 23.7306 40.2495 11.7634 
23.9526 40.418 11.7781 24.1835 40.577 11.7922 24.4233 40.7259 11.8074 
24.6714 40.8643 11.8257 24.926 40.9924 11.8487 25.1846 41.111 11.8775 
25.4445 41.221 11.9125 25.7024 41.3239 11.9534 25.9554 41.4209 11.999 
26.201 41.5138 12.0472 26.4374 41.6037 12.0953 26.6634 41.692 12.1402 
26.879 41.7797 12.1785 27.0844 41.8674 12.2072 27.2808 41.9553 12.2236 
27.4693 42.0435 12.2257 27.651 42.1313 12.2127 27.8267 42.2182 12.1846 
27.9965 42.303 12.1426 28.1597 42.3845 12.0891 28.3148 42.4613 12.0274 
28.4593 42.5319 11.9613 28.5902 42.595 11.8955 28.7041 42.649 11.8342 
28.7975 42.6929 11.7818 28.8672 42.7255 11.742 28.9106 42.746 11.7175 
28.926 42.754 11.7103 
LINES 2 100
OFFSETS vtktypeint64
0 100 
CONNECTIVITY vtktypeint64
0 1 2 3 4 5 6 7 8 
9 10 11 12 13 14 15 16 17 
18 19 20 21 22 23 24 25 26 
27 28 29 30 31 32 33 34 35 
36 37 38 39 40 41 42 43 44 
45 46 47 48 49 50 51 52 53 
54 55 56 57 58 59 60 61 62 
63 64 65 66 67 68 69 70 71 
72 73 74 75 76 77 78 79 80 
81 82 83 84 85 86 87 88 89 
90 91 92 93 94 95 96 97 98 
99 
POINT_DATA 100
FIELD FieldData 3
_theta 1 100 double
0 0.031733259127 0.063466518254 0.095199777382 0.12693303651 0.15866629564 0.19039955476 0.22213281389 0.25386607302 
0.28559933214 0.31733259127 0.3490658504 0.38079910953 0.41253236865 0.44426562778 0.47599888691 0.50773214603 0.53946540516 
0.57119866429 0.60293192342 0.63466518254 0.66639844167 0.6981317008 0.72986495992 0.76159821905 0.79333147818 0.82506473731 
0.85679799643 0.88853125556 0.92026451469 0.95199777382 0.98373103294 1.0154642921 1.0471975512 1.0789308103 1.1106640695 
1.1423973286 1.1741305877 1.2058638468 1.237597106 1.2693303651 1.3010636242 1.3327968833 1.3645301425 1.3962634016 
1.4279966607 1.4597299198 1.491463179 1.5231964381 1.5549296972 1.5866629564 1.6183962155 1.6501294746 1.6818627337 
1.7135959929 1.745329252 1.7770625111 1.8087957702 1.8405290294 1.8722622885 1.9039955476 1.9357288068 1.9674620659 
1.999195325 2.0309285841 2.0626618433 2.0943951024 2.1261283615 2.1578616206 2.1895948798 2.2213281389 2.253061398 
2.2847946572 2.3165279163 2.3482611754 2.3799944345 2.4117276937 2.4434609528 2.4751942119 2.506927471 2.5386607302 
2.5703939893 2.6021272484 2.6338605076 2.6655937667 2.6973270258 2.7290602849 2.7607935441 2.7925268032 2.8242600623 
2.8559933214 2.8877265806 2.9194598397 2.9511930988 2.982926358 3.0146596171 3.0463928762 3.0781261353 3.1098593945 
3.1415926536 
_radius 1 100 double
4.0894805527e-14 0.28750767133 0.57329751336 0.85569916874 1.1331378533 1.4041421044 1.6673345499 1.921422582 2.1652075162 
2.3976241808 2.6178116566 2.8252047646 3.0196281977 3.2013723259 3.3712316572 3.530492463 3.6808628471 3.8243443596 
3.9630493408 4.098975314 4.2337586368 4.3684416131 4.5032945866 4.6377324029 4.7703516475 4.8990935822 5.0215131667 
5.1351140858 5.2376990846 5.3276856673 5.4043461424 5.4679432188 5.5197448812 5.5619150039 5.5972899184 5.6290656991 
5.6604344159 5.6942169391 5.7325416294 5.7766105181 5.8265790158 5.8815564802 5.9397181264 5.9985067901 6.054896898 
6.105692165 6.1478309946 6.1786761871 6.1962661119 6.1995035587 6.188259319 6.1633733117 6.1265469069 6.0801334917 
6.0268481824 5.9694312553 5.9103109976 5.8513149515 5.7934703723 5.7369178319 5.6809428871 5.6241147153 5.5645092047 
5.4999868123 5.4284918143 5.3483386593 5.2584525924 5.1585358295 5.0491382326 4.9316231605 4.8080337783 4.6808791887 
4.5528690048 4.426626885 4.3044094685 4.1878519056 4.0777597902 3.97397093 3.8753142199 3.7796882884 3.6842639314 
3.5857855896 3.4809212241 3.366599699 3.2402837688 3.1001485843 2.9451597277 2.7750625878 2.5903030045 2.3918998525 
2.1812888472 1.9601567294 1.7302848418 1.4934174803 1.2511627622 1.0049262026 0.75587440612 0.50492852901 0.25279003811 
6.473080277e-14 
_area 1 100 double
0 0.25144485309 1.0006063989 2.2317852229 3.9182750371 6.021821163 8.4925248928 11.269915588 14.285833321 
17.469280034 20.752688329 24.078497025 27.404778625 30.7089111 33.988726576 37.261046412 40.557898442 43.920846009 
47.393773407 51.014498906 54.805930445 58.767998558 62.872058194 67.05947843 71.245342606 75.326865471 79.195148915 
82.748549206 85.905857091 88.61742578 90.872440229 92.70097046 94.170389839 95.376875447 96.433451475 97.456106044 
98.549380968 99.793185 101.23335459 102.87865262 104.70523527 106.6662833 108.7018377 110.74437514 112.71894748 
114.54003557 116.10866373 117.31356275 118.04053821 118.19235214 117.71497016 116.62028106 114.99584003 112.98899079 
110.72895899 108.30181281 105.80176437 103.31537036 100.90037111 98.580110332 96.347262835 94.1714225 92.006964838 
89.799589734 87.492194795 85.031886628 82.378741844 79.514368316 76.446844432 73.209730104 69.855840041 66.448900957 
63.056153097 59.74293382 56.568323605 53.580439798 50.810826435 48.268572939 45.93559822 43.76508947 41.685407851 
39.610775931 37.45691219 35.156612746 32.670310592 29.989550599 27.134360197 24.147102953 21.085456944 18.016148451 
15.009852063 12.136973944 9.4639665574 7.0500664223 4.9446483195 3.1856129595 1.7992182522 0.80145388855 0.20057614914 
1.7053025658e-13 
