# vtk DataFile Version 5.1
vtk output
ASCII
DATASET POLYDATA
POINTS 1002 float
12.9852 34.7559 11.8562 21.7868 41.4022 8.63957 12.1675 39.5069 19.8345 
21.604 43.6423 15.303 14.0841 44.3248 8.75241 12.4589 46.8829 14.3758 
23.1189 33.1937 13.8215 21.3517 37.0309 20.4742 23.0725 50.0352 8.25133 
5.91656 38.2557 15.0023 28.67 42.5251 15.0201 10.9657 30.9665 17.6975 
14.0144 35.2438 11.5507 15.0669 35.6039 11.0155 16.1128 35.9165 10.3556 
17.0656 36.4085 9.80626 17.8694 37.2647 9.53039 18.5945 38.3861 9.46546 
19.3608 39.4683 9.42422 20.1975 40.31 9.26947 21.0349 40.9219 8.98178 
12.8494 35.3568 11.5789 12.7759 35.9569 11.1993 12.8067 36.6595 10.8182 
12.8887 37.5561 10.4745 12.9511 38.6087 10.1238 13.0568 39.7249 9.77758 
13.2957 40.8918 9.50136 13.6058 42.1104 9.27283 13.8737 43.293 9.02149 
13.8078 34.4312 11.9054 14.714 34.0023 11.8789 15.7504 33.5494 11.8413 
17.0009 33.2348 11.91 18.4008 33.0891 12.1123 19.7143 32.9693 12.369 
20.7877 32.828 12.6378 21.6645 32.7912 12.9544 22.434 32.9334 13.3516 
11.7986 34.5677 11.8989 10.4906 34.4274 11.9419 9.15849 34.4565 12.0459 
7.9492 34.6278 12.1982 7.0302 34.8354 12.3762 6.48371 35.126 12.6414 
6.20508 35.6769 13.0882 6.02263 36.5185 13.718 5.90004 37.4539 14.4074 
12.382 33.9171 12.0063 11.6581 32.8586 11.9657 10.9166 31.7867 11.9192 
10.3376 31.056 12.2188 10.0129 30.8577 13.0341 9.89842 30.9847 14.1134 
9.95552 31.0807 15.1107 10.1876 31.0327 15.9823 10.5525 30.9581 16.8475 
21.1249 41.8715 8.46066 20.3922 42.381 8.28645 19.5787 42.7907 8.0243 
18.6745 43.0305 7.69247 17.7653 43.1765 7.44838 16.9422 43.3566 7.44911 
16.1694 43.6178 7.69386 15.4011 43.9135 8.05011 14.6889 44.1673 8.40863 
21.9702 40.7209 9.1181 22.1075 40.0508 9.72491 22.1971 39.3181 10.3917 
22.3417 38.3685 10.9372 22.632 37.1648 11.2874 22.9747 35.935 11.619 
23.1934 34.9465 12.0955 23.2458 34.2298 12.6664 23.204 33.6676 13.2414 
22.0972 42.1429 8.14218 22.4059 42.963 7.59922 22.6879 43.8977 7.1241 
22.9034 45.037 6.86582 23.0523 46.3774 6.76928 23.1833 47.7167 6.61643 
23.3086 48.8075 6.45634 23.3659 49.5373 6.63401 23.2893 49.9213 7.30399 
22.5886 41.463 8.65351 23.3113 41.6656 8.98376 23.9122 41.9785 9.67371 
24.5118 42.2459 10.4607 25.2822 42.3913 11.098 26.1693 42.4793 11.6991 
26.9453 42.5366 12.4679 27.5501 42.5309 13.3559 28.1081 42.5002 14.2196 
12.8144 40.1779 19.6818 13.5958 40.8629 19.3323 14.511 41.4473 18.7399 
15.5199 41.8449 17.9826 16.5845 42.1868 17.3127 17.6803 42.6845 16.9359 
18.7711 43.2567 16.7271 19.813 43.6134 16.3897 20.7679 43.6778 15.8523 
12.0578 40.4197 19.7464 12.0339 41.3513 19.5953 12.0201 42.209 19.2438 
11.9775 42.9778 18.5899 11.952 43.7747 17.8178 11.9805 44.687 17.2461 
12.0356 45.5786 16.8354 12.1079 46.23 16.2479 12.2389 46.6142 15.3643 
12.8016 39.0101 19.7851 13.6249 38.5058 19.5599 14.5391 38.0288 19.1521 
15.5201 37.5755 18.6071 16.6995 37.174 18.1301 18.0312 36.9266 18.0922 
19.1672 36.8842 18.6722 19.9459 36.9512 19.5569 20.596 37.0074 20.2379 
11.4709 39.3743 19.7537 10.7395 39.159 19.4716 9.92929 38.8383 19.0609 
9.08569 38.4655 18.5502 8.33759 38.1575 17.9214 7.70877 37.9946 17.2606 
7.10454 37.9707 16.709 6.53223 38.0431 16.2406 6.11646 38.1595 15.6974 
11.9231 38.5144 19.9332 11.6926 37.4341 20.0029 11.4251 36.2845 19.9889 
11.1237 35.053 19.9263 10.8807 33.7402 19.9257 10.7514 32.4963 19.9664 
10.6853 31.5899 19.8315 10.6573 31.1355 19.347 10.7329 30.9939 18.5689 
20.8152 44.1665 15.1897 19.8444 44.6506 15.0186 18.7603 45.0194 14.8007 
17.7215 45.3854 14.66 16.787 45.9062 14.6857 15.8669 46.5069 14.807 
14.9143 46.949 14.8858 13.9929 47.1175 14.8412 13.1664 47.0654 14.6601 
21.8003 43.155 15.7253 21.9911 42.6364 16.1645 22.281 41.95 16.5853 
22.5989 41.0149 17.0023 22.692 40.0534 17.5645 22.4553 39.4175 18.4286 
22.0684 39.0807 19.4561 21.7315 38.6585 20.2499 21.4986 37.9321 20.5621 
21.8878 44.0301 14.7765 22.0658 44.647 14.3304 22.1972 45.4417 13.8662 
22.3836 46.2777 13.187 22.6431 47.1384 12.3419 22.9207 48.0768 11.6209 
23.1776 48.9723 11.0658 23.3507 49.6113 10.383 23.3312 49.9361 9.39707 
22.556 43.3858 15.1467 23.583 43.3646 15.2471 24.692 43.6429 15.6644 
25.9495 44.0652 16.3021 27.4278 44.3773 16.9424 28.9378 44.3878 17.2663 
29.9564 44.0444 17.0292 30.0984 43.481 16.3465 29.5151 42.9293 15.5923 
13.8721 44.9278 8.84513 13.6848 45.4265 9.05806 13.4855 45.8605 9.43009 
13.1797 46.3351 9.9411 12.7423 46.8436 10.5447 12.3202 47.2013 11.2161 
12.0945 47.2634 11.9469 12.0971 47.1144 12.7322 12.2439 46.9525 13.5581 
14.6618 45.2017 8.26007 15.3507 46.0766 7.73042 16.2114 46.9381 7.17019 
17.2123 47.8048 6.58819 18.1509 48.6876 6.05773 18.9058 49.4689 5.76412 
19.7008 49.945 5.89931 20.786 50.0863 6.48442 22.0267 50.071 7.34572 
13.3693 43.7821 9.30424 12.5305 43.0868 9.98462 11.4864 42.2336 10.7237 
10.206 41.3264 11.2757 8.79536 40.6205 11.506 7.50165 40.2769 11.6957 
6.57283 40.0915 12.2454 6.07964 39.7162 13.1724 5.91006 39.053 14.1734 
13.2378 47.2521 13.5594 14.2878 47.5575 12.7292 15.5683 47.9032 12.0056 
16.8976 48.4556 11.4118 18.0794 49.1773 10.8942 19.0849 49.7568 10.404 
20.0513 49.9947 9.89653 21.0909 50.0248 9.33579 22.1505 50.0358 8.75644 
11.6634 46.3859 14.6039 10.885 45.7444 14.7414 10.1023 45.0485 14.8157 
9.32324 44.1971 14.8162 8.59206 43.067 14.736 7.90069 41.8898 14.6878 
7.20051 40.9884 14.7826 6.55064 40.2578 14.9458 6.10152 39.3733 15.0317 
23.4373 33.1364 14.6048 23.6599 33.1649 15.584 23.6845 33.3731 16.6126 
23.525 33.8605 17.4662 23.3263 34.5379 18.0426 23.1594 35.1388 18.479 
22.9021 35.5562 18.9927 22.4425 35.9525 19.622 21.8659 36.4643 20.1852 
23.8096 33.8118 13.9824 24.3983 34.6221 14.2455 24.8209 35.6612 14.5877 
25.176 36.8363 14.8533 25.6023 38.0591 14.941 26.0679 39.3344 14.9605 
26.5097 40.549 15.0249 27.0519 41.4694 15.0776 27.8138 42.0628 15.0592 
22.5666 32.5619 14.1286 21.9271 31.908 14.4609 21.1718 31.3643 14.8198 
20.1716 31.0784 15.2246 18.8006 30.9997 15.642 17.0807 30.95 15.9943 
15.2092 30.9004 16.2864 13.4612 30.9205 16.6352 12.0352 30.9714 17.1227 
22.3881 37.6369 20.5294 23.7061 38.1823 20.4365 25.1351 38.5262 20.2424 
26.3561 38.7764 19.8379 27.1589 39.3129 19.0853 27.6354 40.2908 18.1123 
28.0137 41.3292 17.2117 28.3688 42.0025 16.4751 28.6124 42.3175 15.7777 
20.731 36.0978 20.1761 20.0595 35.291 19.7388 19.2589 34.6882 19.151 
18.3108 34.0803 18.4891 17.2106 33.2763 18.0284 15.9166 32.4305 18.0047 
14.4939 31.7905 18.2437 13.1439 31.3781 18.3365 11.9837 31.112 18.1119 
23.965 49.9196 8.54456 24.4553 49.4368 8.88493 24.6456 48.2969 9.32957 
25.0071 46.7452 10.0114 25.8974 45.5137 10.9473 27.1467 44.8876 11.9538 
28.2835 44.4054 12.8714 28.9434 43.7302 13.695 29.0235 43.0364 14.4294 
5.95415 36.9301 15.3803 6.01196 35.5391 15.7562 5.93653 34.245 16.1968 
5.64431 33.08 16.696 5.38727 32.0638 17.1499 5.69641 31.3279 17.4806 
6.79041 30.9549 17.6885 8.29249 30.8561 17.7819 9.72794 30.8906 17.77 
13.9066 35.8422 11.1607 13.8748 36.5 10.7262 15.0104 36.2774 10.5938 
13.9243 37.3566 10.3439 15.0208 37.1065 10.212 16.0852 36.7446 9.99426 
13.955 38.438 9.99541 15.0393 38.1848 9.89033 16.0851 37.7812 9.69812 
17.0167 37.4044 9.49531 13.9452 39.5949 9.62199 14.9853 39.4057 9.53242 
16.0389 39.0113 9.38142 16.9791 38.5641 9.1784 17.8055 38.3489 9.16229 
14.0329 40.7251 9.26746 14.9514 40.5669 9.10699 15.9573 40.2525 8.94163 
16.9199 39.8167 8.76505 17.7819 39.5218 8.73901 18.5772 39.4619 8.99663 
14.2622 41.8756 8.97699 15.0658 41.6565 8.70791 15.9653 41.3834 8.44732 
16.8847 41.035 8.25644 17.7774 40.7498 8.26408 18.6164 40.6109 8.52347 
19.4153 40.502 8.91453 14.5076 43.0574 8.7011 15.2571 42.7794 8.37043 
16.0728 42.4851 8.03166 16.91 42.1991 7.79343 17.7825 41.9763 7.80406 
18.6675 41.8219 8.07728 19.5046 41.6264 8.45154 20.2909 41.3069 8.76013 
11.6884 35.2622 11.6621 10.4609 35.2883 11.7795 11.6751 35.9758 11.3448 
9.20444 35.4813 11.928 10.5056 36.1617 11.5393 11.7493 36.7932 11.0263 
7.99431 35.7211 12.0237 9.21921 36.4688 11.6779 10.5689 37.0911 11.2564 
11.852 37.7651 10.6994 7.01191 35.9749 12.0788 7.91158 36.778 11.6637 
9.23165 37.4686 11.3568 10.7104 38.1161 10.94 12.013 38.8601 10.3492 
6.39803 36.4474 12.2703 6.88773 37.1937 11.6365 7.9587 37.8736 11.3142 
9.51864 38.5353 11.0961 11.0848 39.2534 10.6608 12.3246 40.0588 10.0514 
6.08005 37.2655 12.7468 6.32676 37.9207 11.8624 7.09054 38.4472 11.3488 
8.50053 38.9931 11.1953 10.1896 39.6957 10.987 11.6472 40.5193 10.469 
12.733 41.3529 9.82695 5.92259 38.2347 13.4496 6.10952 38.8694 12.4279 
6.69018 39.2559 11.6633 7.8402 39.5754 11.3645 9.39933 40.1302 11.2672 
10.937 40.9584 10.9195 12.1611 41.8509 10.271 13.0927 42.6434 9.58868 
6.16813 40.1395 14.1516 6.71533 40.944 14.045 6.5222 40.6876 13.1331 
7.45319 41.7069 13.9245 7.23927 41.4651 13.0825 7.27696 40.9649 12.2789 
8.25499 42.7427 13.901 8.09114 42.3849 13.058 8.13519 41.8758 12.3196 
8.37625 41.2273 11.8093 9.0785 43.9072 13.9438 8.98437 43.5356 13.0667 
9.02185 43.0325 12.3174 9.22143 42.4057 11.8124 9.63716 41.8041 11.5192 
9.89594 44.8587 13.9287 9.85824 44.6045 13.0354 9.92381 44.2378 12.2511 
10.067 43.7244 11.6662 10.3876 43.1663 11.2911 10.9118 42.6792 11.0152 
10.6685 45.6251 13.8388 10.6312 45.4941 12.9394 10.754 45.2913 12.1382 
10.9549 44.936 11.4713 11.2232 44.4694 10.9497 11.6132 44.0143 10.5587 
12.0886 43.5805 10.2504 11.4288 46.3522 13.7189 11.3317 46.3562 12.834 
11.4329 46.3091 12.0294 11.7177 46.0779 11.3197 12.0812 45.6594 10.6919 
12.4313 45.2013 10.1584 12.7582 44.7854 9.75056 13.0751 44.3366 9.47628 
14.5085 45.8333 8.39791 14.395 46.3675 8.71649 15.2719 46.7425 7.98229 
14.1993 46.8877 9.19459 15.1737 47.3367 8.43867 16.2026 47.6403 7.55691 
13.8051 47.4653 9.76701 14.9098 47.9171 8.98551 16.075 48.253 8.14028 
17.2245 48.5237 7.10607 13.327 47.9616 10.4291 14.5052 48.4412 9.5869 
15.7977 48.7335 8.76389 17.0769 49.0526 7.85453 18.1276 49.3592 6.75904 
13.0269 48.1147 11.1873 14.2099 48.6862 10.3314 15.5597 48.9785 9.47115 
16.8975 49.2944 8.67387 18.0229 49.7123 7.77745 18.897 49.9774 6.74158 
[...]
POINT_DATA 1002
FIELD FieldData 4
_paraPhi 1 1002 double
6.2831853072 3.1415926536 6.2831853072 3.1415926536 4.7123889804 4.7123889804 1.5707963268 1.5707963268 3.6951670125 
5.7296109483 2.5880182947 0.5535743589 6.2831853072 6.2831853072 6.2831853072 6.2831853072 3.1415926536 3.1415926536 
3.1415926536 3.1415926536 3.1415926536 6.1053039672 5.898798347 5.6768734901 5.4599499503 5.2659633393 5.1032165617 
4.9713148346 4.8656852733 4.7809517865 0.17788134 0.38438696014 0.60631181711 0.82323535693 1.0172219679 1.1799687454 
1.3118704726 1.4175000338 1.5022335207 6.1892828907 6.1070320098 6.035312792 5.9728339911 5.9183214791 5.8706119594 
5.8286879411 5.7916808611 5.7588591896 0.093902416448 0.17615329733 0.2478725152 0.31035131605 0.36486382811 0.41257334776 
0.45449736604 0.4915044461 0.52432611754 3.3194739936 3.5259796137 3.7479044707 3.9648280105 4.1588146215 4.321561399 
4.4534631262 4.5590926874 4.6438261743 2.9637113136 2.7572056934 2.5352808365 2.3183572967 2.1243706857 1.9616239082 
1.829722181 1.7240926197 1.6393591329 3.23549507 3.3177459509 3.3894651688 3.4519439696 3.5064564817 3.5541660013 
3.5960900196 3.6330970997 3.6659187711 3.0476902371 2.9654393563 2.8937201384 2.8312413375 2.7767288255 2.7290193058 
2.6870952876 2.6500882075 2.617266536 6.2831853072 6.2831853072 6.2831853072 6.2831853072 3.1415926536 3.1415926536 
3.1415926536 3.1415926536 3.1415926536 6.1053039672 5.898798347 5.6768734901 5.4599499503 5.2659633393 5.1032165617 
4.9713148346 4.8656852733 4.7809517865 0.17788134 0.38438696014 0.60631181711 0.82323535693 1.0172219679 1.1799687454 
1.3118704726 1.4175000338 1.5022335207 6.1892828907 6.1070320098 6.035312792 5.9728339911 5.9183214791 5.8706119594 
5.8286879411 5.7916808611 5.7588591896 0.093902416448 0.17615329733 0.2478725152 0.31035131605 0.36486382811 0.41257334776 
0.45449736604 0.4915044461 0.52432611754 3.3194739936 3.5259796137 3.7479044707 3.9648280105 4.1588146215 4.321561399 
4.4534631262 4.5590926874 4.6438261743 2.9637113136 2.7572056934 2.5352808365 2.3183572967 2.1243706857 1.9616239082 
1.829722181 1.7240926197 1.6393591329 3.23549507 3.3177459509 3.3894651688 3.4519439696 3.5064564817 3.5541660013 
3.5960900196 3.6330970997 3.6659187711 3.0476902371 2.9654393563 2.8937201384 2.8312413375 2.7767288255 2.7290193058 
2.6870952876 2.6500882075 2.617266536 4.7123889804 4.7123889804 4.7123889804 4.7123889804 4.7123889804 4.7123889804 
4.7123889804 4.7123889804 4.7123889804 4.6087898617 4.4991390697 4.3857031936 4.2712800401 4.1588146215 4.0509635631 
3.94975894 3.8564636551 3.7716124825 4.8159880991 4.9256388911 5.0390747672 5.1534979207 5.2659633393 5.3738143976 
5.4750190208 5.5683143056 5.6531654782 4.6087898617 4.4991390697 4.3857031936 4.2712800401 4.1588146215 4.0509635631 
3.94975894 3.8564636551 3.7716124825 4.8159880991 4.9256388911 5.0390747672 5.1534979207 5.2659633393 5.3738143976 
5.4750190208 5.5683143056 5.6531654782 1.5707963268 1.5707963268 1.5707963268 1.5707963268 1.5707963268 1.5707963268 
1.5707963268 1.5707963268 1.5707963268 1.6743954455 1.7840462375 1.8974821136 2.0119052671 2.1243706857 2.232221744 
2.3334263672 2.426721652 2.5115728246 1.4671972081 1.3575464161 1.24411054 1.1296873865 1.0172219679 0.90937090954 
0.80816628637 0.71487100155 0.63001982895 1.6743954455 1.7840462375 1.8974821136 2.0119052671 2.1243706857 2.232221744 
2.3334263672 2.426721652 2.5115728246 1.4671972081 1.3575464161 1.24411054 1.1296873865 1.0172219679 0.90937090954 
0.80816628637 0.71487100155 0.63001982895 3.6007720849 3.4966939854 3.3839471039 3.2645756454 3.1415926536 3.0186096618 
2.8992382033 2.7864913217 2.6824132222 5.8240058758 5.9280839753 6.0408308569 6.1602023154 6.2831853072 0.12298299178 
0.2423544503 0.35510133185 0.45917943135 6.0560271438 5.7885595667 5.9702140275 5.5125918794 5.6029703303 5.7885595667 
5.2659633393 5.2659633393 5.2659633393 5.2659633393 5.0674903122 5.0120975802 4.9155579264 4.7123889804 4.1588146215 
4.9155579264 4.8353719722 4.7123889804 4.5092200343 4.1588146215 3.6362183941 4.8004512023 4.7123889804 4.5894059886 
4.4126803806 4.1588146215 3.8218076305 3.4545639333 4.7123889804 4.6243267584 4.5092200343 4.3572876485 4.1588146215 
3.9121860814 3.6362183941 3.368750817 6.0174235957 5.9434319871 5.8263323547 5.8809213739 5.7674481418 5.6279784266 
5.8278025282 5.718968232 5.5891129425 5.4372443565 5.7823484065 5.678536687 5.5575666702 5.4192596322 5.2659633393 
5.743164462 5.6444075337 5.5314983644 5.4046708639 5.2659633393 5.1195510325 5.7091357773 5.6152775188 5.5096229709 
5.3926039573 5.2659633393 5.1329233157 4.9978930058 5.6793730533 5.5901633916 5.4910209005 5.3824597928 5.2659633393 
5.1440684722 5.0201624502 4.8979782167 5.5683143056 5.4750190208 5.4750190208 5.3738143976 5.3738143976 5.3738143976 
5.2659633393 5.2659633393 5.2659633393 5.2659633393 5.1534979207 5.1534979207 5.1534979207 5.1534979207 5.1534979207 
5.0390747672 5.0390747672 5.0390747672 5.0390747672 5.0390747672 5.0390747672 4.9256388911 4.9256388911 4.9256388911 
4.9256388911 4.9256388911 4.9256388911 4.9256388911 4.8159880991 4.8159880991 4.8159880991 4.8159880991 4.8159880991 
4.8159880991 4.8159880991 4.8159880991 4.6087898617 4.6087898617 4.4991390697 4.6087898617 4.4991390697 4.3857031936 
4.6087898617 4.4991390697 4.3857031936 4.2712800401 4.6087898617 4.4991390697 4.3857031936 4.2712800401 4.1588146215 
4.6087898617 4.4991390697 4.3857031936 4.2712800401 4.1588146215 4.0509635631 4.6087898617 4.4991390697 4.3857031936 
4.2712800401 4.1588146215 4.0509635631 3.94975894 4.6087898617 4.4991390697 4.3857031936 4.2712800401 4.1588146215 
4.0509635631 3.94975894 3.8564636551 4.526799744 4.4046155105 4.426884955 4.2807094886 4.2918546451 4.3052269283 
4.1588146215 4.1588146215 4.1588146215 4.1588146215 4.042318168 4.0321740035 4.0201070968 4.0055183285 3.9875336042 
3.9337570603 3.9151549899 3.8932795963 3.8672112905 3.8356650183 3.7967995342 3.8346145692 3.809500442 3.7803704271 
3.7462412737 3.7058097288 3.657329819 3.5984456061 3.7454049075 3.7156421835 3.6816134988 3.6424295543 3.5969754326 
3.5438565869 3.4813459737 3.4073543651 3.5642842451 3.4524645613 3.5233842518 3.3320300872 3.403123212 3.4773852225 
3.20576226 3.2746326772 3.348015857 3.4255060145 3.0774230472 3.1415926536 3.2112816139 3.2864685043 3.3668817272 
2.95115522 3.00855263 3.0719036933 3.1415926536 3.2178377658 3.3005964304 2.8307207459 2.8800620952 2.9351694502 
2.9967168029 3.0653475414 3.1415926536 3.225752376 2.718901062 2.7598010554 2.8058000847 2.8576792927 2.91630358 
2.9825888767 3.0574329311 3.1415926536 3.5642842451 3.5233842518 3.4524645613 3.4773852225 3.403123212 3.3320300872 
3.4255060145 3.348015857 3.2746326772 3.20576226 3.3668817272 3.2864685043 3.2112816139 3.1415926536 3.0774230472 
3.3005964304 3.2178377658 3.1415926536 3.0719036933 3.00855263 2.95115522 3.225752376 3.1415926536 3.0653475414 
2.9967168029 2.9351694502 2.8800620952 2.8307207459 3.1415926536 3.0574329311 2.9825888767 2.91630358 2.8576792927 
2.8058000847 2.7598010554 2.718901062 4.526799744 4.426884955 4.4046155105 4.3052269283 4.2918546451 4.2807094886 
4.1588146215 4.1588146215 4.1588146215 4.1588146215 3.9875336042 4.0055183285 4.0201070968 4.0321740035 4.042318168 
3.7967995342 3.8356650183 3.8672112905 3.8932795963 3.9151549899 3.9337570603 3.5984456061 3.657329819 3.7058097288 
3.7462412737 3.7803704271 3.809500442 3.8346145692 3.4073543651 3.4813459737 3.5438565869 3.5969754326 3.6424295543 
3.6816134988 3.7156421835 3.7454049075 4.7123889804 4.8004512023 4.6243267584 4.9155579264 4.7123889804 4.5092200343 
5.0674903122 4.8353719722 4.5894059886 4.3572876485 5.2659633393 5.0120975802 4.7123889804 4.4126803806 4.1588146215 
5.5125918794 5.2659633393 4.9155579264 4.5092200343 4.1588146215 3.9121860814 5.7885595667 5.6029703303 5.2659633393 
4.7123889804 4.1588146215 3.8218076305 3.6362183941 6.0560271438 5.9702140275 5.7885595667 5.2659633393 4.1588146215 
3.6362183941 3.4545639333 3.368750817 0.22715816343 0.49462574053 0.3129712797 0.77059342779 0.68021497688 0.49462574053 
1.0172219679 1.0172219679 1.0172219679 1.0172219679 1.2156949949 1.271087727 1.3676273807 1.5707963268 2.1243706857 
1.3676273807 1.447813335 1.5707963268 1.7739652728 2.1243706857 2.6469669131 1.4827341049 1.5707963268 1.6937793186 
1.8705049266 2.1243706857 2.4613776767 2.8286213739 1.5707963268 1.6588585487 1.7739652728 1.9258976586 2.1243706857 
2.3709992258 2.6469669131 2.9144344902 1.7563855631 1.8785697967 1.8563003522 2.0024758186 1.9913306621 1.9779583789 
2.1243706857 2.1243706857 2.1243706857 2.1243706857 2.2408671392 2.2510113037 2.2630782103 2.2776669786 2.295651703 
2.3494282469 2.3680303173 2.3899057108 2.4159740166 2.4475202889 2.486385773 2.448570738 2.4736848652 2.5028148801 
2.5369440334 2.5773755784 2.6258554882 2.6847397011 2.5377803997 2.5675431237 2.6015718084 2.6407557529 2.6862098746 
2.7393287203 2.8018393335 2.8758309421 1.6743954455 1.6743954455 1.7840462375 1.6743954455 1.7840462375 1.8974821136 
1.6743954455 1.7840462375 1.8974821136 2.0119052671 1.6743954455 1.7840462375 1.8974821136 2.0119052671 2.1243706857 
1.6743954455 1.7840462375 1.8974821136 2.0119052671 2.1243706857 2.232221744 1.6743954455 1.7840462375 1.8974821136 
2.0119052671 2.1243706857 2.232221744 2.3334263672 1.6743954455 1.7840462375 1.8974821136 2.0119052671 2.1243706857 
2.232221744 2.3334263672 2.426721652 1.4671972081 1.3575464161 1.4671972081 1.24411054 1.3575464161 1.4671972081 
1.1296873865 1.24411054 1.3575464161 1.4671972081 1.0172219679 1.1296873865 1.24411054 1.3575464161 1.4671972081 
0.90937090954 1.0172219679 1.1296873865 1.24411054 1.3575464161 1.4671972081 0.80816628637 0.90937090954 1.0172219679 
1.1296873865 1.24411054 1.3575464161 1.4671972081 0.71487100155 0.80816628637 0.90937090954 1.0172219679 1.1296873865 
1.24411054 1.3575464161 1.4671972081 0.60381225391 0.57404952988 0.69302191562 0.54002084522 0.66790778838 0.79216440667 
0.50083690068 0.63877777351 0.77356233629 0.90072551443 0.45538277901 0.60464862014 0.75168694275 0.89058134991 1.0172219679 
0.40226393329 0.56421707518 0.72561863695 0.87851444325 1.0172219679 1.139116835 0.33975332011 0.51573716537 0.69407236469 
0.86392567495 1.0172219679 1.1502619915 1.2630228569 0.26576171152 0.45685295248 0.6552068806 0.84594095064 1.0172219679 
1.1636342747 1.2852923014 1.3852070904 0.22715816343 0.3129712797 0.49462574053 0.49462574053 0.68021497688 0.77059342779 
1.0172219679 1.0172219679 1.0172219679 1.0172219679 2.1243706857 1.5707963268 1.3676273807 1.271087727 1.2156949949 
2.6469669131 2.1243706857 1.7739652728 1.5707963268 1.447813335 1.3676273807 2.8286213739 2.4613776767 2.1243706857 
1.8705049266 1.6937793186 1.5707963268 1.4827341049 2.9144344902 2.6469669131 2.3709992258 2.1243706857 1.9258976586 
1.7739652728 1.6588585487 1.5707963268 1.7563855631 1.8563003522 1.8785697967 1.9779583789 1.9913306621 2.0024758186 
2.1243706857 2.1243706857 2.1243706857 2.1243706857 2.295651703 2.2776669786 2.2630782103 2.2510113037 2.2408671392 
2.486385773 2.4475202889 2.4159740166 2.3899057108 2.3680303173 2.3494282469 2.6847397011 2.6258554882 2.5773755784 
2.5369440334 2.5028148801 2.4736848652 2.448570738 2.8758309421 2.8018393335 2.7393287203 2.6862098746 2.6407557529 
2.6015718084 2.5675431237 2.5377803997 5.8604937156 5.901393709 5.9723133995 5.9473927383 6.0216547488 6.0927478736 
5.9992719463 6.0767621038 6.1501452836 6.2190157008 6.0578962336 6.1383094565 6.2134963469 0 0.064169606361 
6.1241815303 6.206940195 6.2831853072 0.069688960264 0.13304002361 0.19043743361 6.1990255847 0 0.07624511221 
0.14487585072 0.20642320337 0.26153055843 0.3108719077 0 0.084159722458 0.15900377685 0.22528907359 0.28391336087 
0.3357925689 0.38179159818 0.42269159155 5.8604937156 5.9723133995 5.901393709 6.0927478736 6.0216547488 5.9473927383 
6.2190157008 6.1501452836 6.0767621038 5.9992719463 0.064169606361 0 6.2134963469 6.1383094565 6.0578962336 
0.19043743361 0.13304002361 0.069688960264 6.2831853072 6.206940195 6.1241815303 0.3108719077 0.26153055843 0.20642320337 
0.14487585072 0.07624511221 6.2831853072 6.1990255847 0.42269159155 0.38179159818 0.3357925689 0.28391336087 0.22528907359 
0.15900377685 0.084159722458 0 5.6793730533 5.7091357773 5.5901633916 5.743164462 5.6152775188 5.4910209005 
5.7823484065 5.6444075337 5.5096229709 5.3824597928 5.8278025282 5.678536687 5.5314983644 5.3926039573 5.2659633393 
5.8809213739 5.718968232 5.5575666702 5.4046708639 5.2659633393 5.1440684722 5.9434319871 5.7674481418 5.5891129425 
5.4192596322 5.2659633393 5.1329233157 5.0201624502 6.0174235957 5.8263323547 5.6279784266 5.4372443565 5.2659633393 
5.1195510325 4.9978930058 4.8979782167 1.3852070904 1.2852923014 1.2630228569 1.1636342747 1.1502619915 1.139116835 
1.0172219679 1.0172219679 1.0172219679 1.0172219679 0.84594095064 0.86392567495 0.87851444325 0.89058134991 0.90072551443 
0.6552068806 0.69407236469 0.72561863695 0.75168694275 0.77356233629 0.79216440667 0.45685295248 0.51573716537 0.56421707518 
0.60464862014 0.63877777351 0.66790778838 0.69302191562 0.26576171152 0.33975332011 0.40226393329 0.45538277901 0.50083690068 
0.54002084522 0.57404952988 0.60381225391 
_paraPhiHalf 1 1002 double
0 3.1415926536 0 3.1415926536 1.5707963268 1.5707963268 1.5707963268 1.5707963268 2.5880182947 
0.5535743589 2.5880182947 0.5535743589 0 0 0 0 3.1415926536 3.1415926536 
3.1415926536 3.1415926536 3.1415926536 0.17788134 0.38438696014 0.60631181711 0.82323535693 1.0172219679 1.1799687454 
1.3118704726 1.4175000338 1.5022335207 0.17788134 0.38438696014 0.60631181711 0.82323535693 1.0172219679 1.1799687454 
1.3118704726 1.4175000338 1.5022335207 0.093902416448 0.17615329733 0.2478725152 0.31035131605 0.36486382811 0.41257334776 
0.45449736604 0.4915044461 0.52432611754 0.093902416448 0.17615329733 0.2478725152 0.31035131605 0.36486382811 0.41257334776 
0.45449736604 0.4915044461 0.52432611754 2.9637113136 2.7572056934 2.5352808365 2.3183572967 2.1243706857 1.9616239082 
1.829722181 1.7240926197 1.6393591329 2.9637113136 2.7572056934 2.5352808365 2.3183572967 2.1243706857 1.9616239082 
1.829722181 1.7240926197 1.6393591329 3.0476902371 2.9654393563 2.8937201384 2.8312413375 2.7767288255 2.7290193058 
2.6870952876 2.6500882075 2.617266536 3.0476902371 2.9654393563 2.8937201384 2.8312413375 2.7767288255 2.7290193058 
2.6870952876 2.6500882075 2.617266536 0 0 0 0 3.1415926536 3.1415926536 
3.1415926536 3.1415926536 3.1415926536 0.17788134 0.38438696014 0.60631181711 0.82323535693 1.0172219679 1.1799687454 
1.3118704726 1.4175000338 1.5022335207 0.17788134 0.38438696014 0.60631181711 0.82323535693 1.0172219679 1.1799687454 
1.3118704726 1.4175000338 1.5022335207 0.093902416448 0.17615329733 0.2478725152 0.31035131605 0.36486382811 0.41257334776 
0.45449736604 0.4915044461 0.52432611754 0.093902416448 0.17615329733 0.2478725152 0.31035131605 0.36486382811 0.41257334776 
0.45449736604 0.4915044461 0.52432611754 2.9637113136 2.7572056934 2.5352808365 2.3183572967 2.1243706857 1.9616239082 
1.829722181 1.7240926197 1.6393591329 2.9637113136 2.7572056934 2.5352808365 2.3183572967 2.1243706857 1.9616239082 
1.829722181 1.7240926197 1.6393591329 3.0476902371 2.9654393563 2.8937201384 2.8312413375 2.7767288255 2.7290193058 
2.6870952876 2.6500882075 2.617266536 3.0476902371 2.9654393563 2.8937201384 2.8312413375 2.7767288255 2.7290193058 
2.6870952876 2.6500882075 2.617266536 1.5707963268 1.5707963268 1.5707963268 1.5707963268 1.5707963268 1.5707963268 
1.5707963268 1.5707963268 1.5707963268 1.6743954455 1.7840462375 1.8974821136 2.0119052671 2.1243706857 2.232221744 
2.3334263672 2.426721652 2.5115728246 1.4671972081 1.3575464161 1.24411054 1.1296873865 1.0172219679 0.90937090954 
0.80816628637 0.71487100155 0.63001982895 1.6743954455 1.7840462375 1.8974821136 2.0119052671 2.1243706857 2.232221744 
2.3334263672 2.426721652 2.5115728246 1.4671972081 1.3575464161 1.24411054 1.1296873865 1.0172219679 0.90937090954 
0.80816628637 0.71487100155 0.63001982895 1.5707963268 1.5707963268 1.5707963268 1.5707963268 1.5707963268 1.5707963268 
1.5707963268 1.5707963268 1.5707963268 1.6743954455 1.7840462375 1.8974821136 2.0119052671 2.1243706857 2.232221744 
2.3334263672 2.426721652 2.5115728246 1.4671972081 1.3575464161 1.24411054 1.1296873865 1.0172219679 0.90937090954 
0.80816628637 0.71487100155 0.63001982895 1.6743954455 1.7840462375 1.8974821136 2.0119052671 2.1243706857 2.232221744 
2.3334263672 2.426721652 2.5115728246 1.4671972081 1.3575464161 1.24411054 1.1296873865 1.0172219679 0.90937090954 
0.80816628637 0.71487100155 0.63001982895 2.6824132222 2.7864913217 2.8992382033 3.0186096618 3.1415926536 3.0186096618 
2.8992382033 2.7864913217 2.6824132222 0.45917943135 0.35510133185 0.2423544503 0.12298299178 0 0.12298299178 
0.2423544503 0.35510133185 0.45917943135 0.22715816343 0.49462574053 0.3129712797 0.77059342779 0.68021497688 0.49462574053 
1.0172219679 1.0172219679 1.0172219679 1.0172219679 1.2156949949 1.271087727 1.3676273807 1.5707963268 2.1243706857 
1.3676273807 1.447813335 1.5707963268 1.7739652728 2.1243706857 2.6469669131 1.4827341049 1.5707963268 1.6937793186 
1.8705049266 2.1243706857 2.4613776767 2.8286213739 1.5707963268 1.6588585487 1.7739652728 1.9258976586 2.1243706857 
2.3709992258 2.6469669131 2.9144344902 0.26576171152 0.33975332011 0.45685295248 0.40226393329 0.51573716537 0.6552068806 
0.45538277901 0.56421707518 0.69407236469 0.84594095064 0.50083690068 0.60464862014 0.72561863695 0.86392567495 1.0172219679 
0.54002084522 0.63877777351 0.75168694275 0.87851444325 1.0172219679 1.1636342747 0.57404952988 0.66790778838 0.77356233629 
0.89058134991 1.0172219679 1.1502619915 1.2852923014 0.60381225391 0.69302191562 0.79216440667 0.90072551443 1.0172219679 
1.139116835 1.2630228569 1.3852070904 0.71487100155 0.80816628637 0.80816628637 0.90937090954 0.90937090954 0.90937090954 
1.0172219679 1.0172219679 1.0172219679 1.0172219679 1.1296873865 1.1296873865 1.1296873865 1.1296873865 1.1296873865 
1.24411054 1.24411054 1.24411054 1.24411054 1.24411054 1.24411054 1.3575464161 1.3575464161 1.3575464161 
1.3575464161 1.3575464161 1.3575464161 1.3575464161 1.4671972081 1.4671972081 1.4671972081 1.4671972081 1.4671972081 
1.4671972081 1.4671972081 1.4671972081 1.6743954455 1.6743954455 1.7840462375 1.6743954455 1.7840462375 1.8974821136 
1.6743954455 1.7840462375 1.8974821136 2.0119052671 1.6743954455 1.7840462375 1.8974821136 2.0119052671 2.1243706857 
1.6743954455 1.7840462375 1.8974821136 2.0119052671 2.1243706857 2.232221744 1.6743954455 1.7840462375 1.8974821136 
2.0119052671 2.1243706857 2.232221744 2.3334263672 1.6743954455 1.7840462375 1.8974821136 2.0119052671 2.1243706857 
2.232221744 2.3334263672 2.426721652 1.7563855631 1.8785697967 1.8563003522 2.0024758186 1.9913306621 1.9779583789 
2.1243706857 2.1243706857 2.1243706857 2.1243706857 2.2408671392 2.2510113037 2.2630782103 2.2776669786 2.295651703 
2.3494282469 2.3680303173 2.3899057108 2.4159740166 2.4475202889 2.486385773 2.448570738 2.4736848652 2.5028148801 
2.5369440334 2.5773755784 2.6258554882 2.6847397011 2.5377803997 2.5675431237 2.6015718084 2.6407557529 2.6862098746 
2.7393287203 2.8018393335 2.8758309421 2.718901062 2.8307207459 2.7598010554 2.95115522 2.8800620952 2.8058000847 
3.0774230472 3.00855263 2.9351694502 2.8576792927 3.0774230472 3.1415926536 3.0719036933 2.9967168029 2.91630358 
2.95115522 3.00855263 3.0719036933 3.1415926536 3.0653475414 2.9825888767 2.8307207459 2.8800620952 2.9351694502 
2.9967168029 3.0653475414 3.1415926536 3.0574329311 2.718901062 2.7598010554 2.8058000847 2.8576792927 2.91630358 
2.9825888767 3.0574329311 3.1415926536 2.718901062 2.7598010554 2.8307207459 2.8058000847 2.8800620952 2.95115522 
2.8576792927 2.9351694502 3.00855263 3.0774230472 2.91630358 2.9967168029 3.0719036933 3.1415926536 3.0774230472 
2.9825888767 3.0653475414 3.1415926536 3.0719036933 3.00855263 2.95115522 3.0574329311 3.1415926536 3.0653475414 