# vtk DataFile Version 5.1
vtk output
ASCII
DATASET POLYDATA
POINTS 1002 float
11.7262 37.2068 16.3326 20.6861 43.5529 15.2446 15.3634 32.7262 9.24485 
23.0038 40.0371 9.19072 20.6202 36.4471 19.7026 22.7461 32.6406 14.6253 
12.0986 45.4064 10.6999 15.5237 41.3628 6.02907 27.827 42.3056 15.8773 
11.4176 29.9232 16.9378 22.7162 48.1418 9.10233 7.05499 36.2744 9.95792 
12.3227 38.0792 16.4939 12.9185 39.2184 16.8353 13.7032 40.3645 16.9915 
14.7993 41.0714 16.5905 16.0622 41.2368 15.7982 17.2366 41.3139 15.1771 
18.2343 41.7169 14.9882 19.112 42.3764 15.0607 19.9223 43.0289 15.1772 
12.1216 36.8986 16.6601 12.7524 36.7009 17.0721 13.6971 36.6512 17.4546 
14.8431 36.5949 17.5932 16.0169 36.3397 17.4011 17.19 36.012 17.1328 
18.3548 35.9389 17.2109 19.3639 36.1549 17.8197 20.0979 36.3889 18.7672 
11.7565 38.0306 16.1054 11.7027 38.8467 15.83 11.6138 39.6192 15.3405 
11.5882 40.5126 14.7029 11.6152 41.6621 14.1683 11.6133 42.8755 13.7429 
11.615 43.8263 13.1608 11.7141 44.454 12.3376 11.9009 44.9357 11.4601 
11.2091 36.2934 16.6107 10.5994 35.454 17.0999 10.1598 34.6581 17.4704 
10.0611 33.7845 17.4376 10.118 32.7538 17.2937 10.0736 31.6723 17.5607 
10.0297 30.7725 18.0917 10.2514 30.2086 18.2411 10.7702 29.964 17.7584 
11.0802 37.0034 16.182 10.2913 36.8617 16.0418 9.39451 36.7245 15.7182 
8.55098 36.6164 15.1556 7.89644 36.6443 14.5521 7.41153 36.7994 13.9677 
7.04618 36.895 13.1434 6.84298 36.7916 11.9905 6.85318 36.5402 10.8197 
20.8596 43.1373 15.7314 21.0632 42.618 16.1444 21.2679 41.9129 16.5 
21.4266 41.0041 16.9148 21.4819 40.0644 17.4726 21.3843 39.3033 18.1258 
21.1559 38.6778 18.7668 20.9036 37.9924 19.2931 20.7214 37.2081 19.6161 
20.101 43.619 14.6452 19.5414 43.6331 13.9297 18.8638 43.6402 13.2026 
17.9161 43.7316 12.5941 16.7384 43.9878 12.1815 15.5503 44.3846 11.9523 
14.4998 44.8089 11.8143 13.5764 45.156 11.6194 12.7605 45.3656 11.247 
21.6488 43.725 15.5417 22.8109 43.7867 15.7255 23.9798 43.8209 15.8671 
24.9857 43.9703 16.1512 25.939 44.2104 16.647 27.0229 44.2779 17.0865 
28.031 43.9826 17.1127 28.5183 43.4338 16.7258 28.3579 42.8443 16.2347 
21.0533 44.098 14.9229 21.4293 44.7 14.5677 21.802 45.3187 14.1735 
22.1125 45.8911 13.6726 22.2963 46.432 13.0778 22.3736 46.9899 12.5109 
22.4323 47.5059 11.9501 22.5247 47.8758 11.1956 22.6343 48.0779 10.1846 
16.1258 33.2362 9.15164 16.931 33.8837 9.1258 17.7976 34.5339 9.04764 
18.7064 35.1685 8.90049 19.5651 35.9422 8.86912 20.3099 36.9036 9.04747 
21 37.8677 9.23579 21.7076 38.6855 9.25783 22.4009 39.3861 9.19353 
15.9665 32.3314 9.53389 16.6734 31.992 9.91381 17.5201 31.8129 10.4131 
18.4773 31.7426 10.9959 19.4784 31.5906 11.5707 20.4471 31.3617 12.1 
21.2772 31.3403 12.6506 21.8957 31.676 13.2822 22.3497 32.1876 13.9635 
15.2649 33.3657 8.82703 15.1715 33.9981 8.30382 15.0542 34.6762 7.78434 
14.9308 35.4948 7.36529 14.8589 36.4713 7.00699 14.8712 37.5069 6.6246 
14.9684 38.4999 6.26551 15.14 39.4463 6.04634 15.3451 40.3968 5.99021 
14.9656 32.0761 9.55614 14.5476 31.4479 9.86768 14.0709 30.8344 10.2244 
13.497 30.26 10.7577 12.8619 29.9017 11.5882 12.2737 29.896 12.6508 
11.821 30.0629 13.7489 11.5351 30.1191 14.8052 11.4121 30.0247 15.8735 
14.4621 32.773 9.25811 13.3876 32.9134 9.40363 12.2406 33.072 9.55233 
11.178 33.2589 9.61813 10.2345 33.5838 9.68637 9.32192 34.0447 9.80229 
8.4446 34.5132 9.83092 7.73606 34.9831 9.74047 7.2822 35.5666 9.72843 
23.1534 39.3532 9.64879 23.2917 38.5655 10.1208 23.4179 37.6756 10.5571 
23.5116 36.7301 11.0312 23.5315 35.8291 11.6445 23.4531 35.0506 12.3258 
23.305 34.3663 12.9377 23.1355 33.7117 13.4925 22.9567 33.1091 14.0622 
22.4653 40.281 8.76425 21.8687 40.5222 8.36647 21.286 40.76 7.87318 
20.7609 40.9541 7.19584 20.2261 41.059 6.50798 19.5119 41.1277 6.10639 
18.5202 41.2438 6.00983 17.3772 41.3685 5.99921 16.3291 41.409 5.97935 
23.6264 40.2929 9.60431 24.1682 40.5749 10.2142 24.6399 40.8725 10.9319 
25.13 41.2035 11.7225 25.6332 41.5937 12.6829 26.0498 41.9796 13.7387 
26.4197 42.2274 14.5571 26.8859 42.2997 15.0164 27.42 42.2933 15.3742 
23.2353 40.8753 8.97463 23.4666 41.8091 8.78762 23.7095 42.7973 8.59252 
23.8915 43.8123 8.38811 23.9065 44.8752 8.26443 23.8045 45.9664 8.25779 
23.7177 46.9411 8.29178 23.5939 47.6357 8.37773 23.2666 48.0113 8.63951 
20.9217 35.9144 20.0653 21.3407 35.328 20.0715 21.8443 34.8029 19.7217 
22.3768 34.2823 19.1412 22.8403 33.6676 18.453 23.0892 33.1042 17.7228 
23.079 32.8034 16.9746 22.9466 32.7144 16.1969 22.8342 32.6708 15.3935 
21.124 36.8788 20.5075 21.747 37.3981 20.994 22.7057 38.012 20.8867 
23.9926 38.6459 20.3164 25.2692 39.2359 19.7364 26.2143 39.831 19.2876 
26.8364 40.4945 18.6584 27.2899 41.179 17.7077 27.626 41.7945 16.6928 
20.1771 35.7783 19.1267 19.515 35.0768 18.5617 18.5605 34.1715 18.1215 
17.3223 33.0261 17.9008 15.9922 31.8831 17.9956 14.8401 30.994 18.3303 
13.9206 30.3861 18.5469 13.0748 30.0189 18.3322 12.2176 29.8866 17.72 
23.3445 33.2543 14.9147 23.9884 33.9862 15.1807 24.5962 35.0234 15.4453 
25.2308 36.2235 15.6903 25.9515 37.2108 15.8713 26.559 37.995 16.0043 
26.8335 38.9621 16.1151 26.9427 40.1915 16.1439 27.242 41.3774 16.042 
22.246 31.9943 14.7303 21.6824 31.3455 14.7791 20.9962 30.7844 14.8825 
20.0711 30.3802 15.1624 18.7807 30.1337 15.5397 17.1584 29.9962 15.7944 
15.4597 29.9247 15.9212 13.9259 29.8988 16.1382 12.5967 29.9024 16.5267 
11.8883 45.6535 9.83285 11.7882 45.7675 8.86495 11.897 45.6133 7.95287 
12.2808 45.2023 7.31587 12.9304 44.6585 7.03751 13.7093 44.0345 6.94121 
14.3968 43.3294 6.78182 14.8744 42.6088 6.50048 15.2098 41.9485 6.21015 
12.7003 45.8974 10.4239 13.4743 46.3267 10.189 14.5472 46.6151 9.9325 
15.9651 46.7915 9.64339 17.4591 47.0465 9.37236 18.663 47.4689 9.14318 
19.5993 47.8837 8.96515 20.5715 48.1141 8.88992 21.6707 48.1745 8.94876 
11.4798 44.9268 10.515 11.058 44.1185 10.3946 10.8414 42.9756 10.4127 
10.6016 41.6434 10.5031 10.0355 40.4195 10.5111 9.1421 39.5364 10.3834 
8.23581 38.8905 10.1955 7.57631 38.1724 10.0268 7.20271 37.2559 9.93151 
16.131 42.4678 6.00948 16.8918 43.7051 5.98117 17.857 44.8711 5.89195 
18.8645 45.8028 5.6189 19.6793 46.5568 5.21723 20.3007 47.2419 5.0732 
20.9004 47.785 5.54834 21.5383 48.0767 6.59332 22.1561 48.1595 7.87533 
14.7378 40.6979 6.13717 13.8277 40.0815 6.28243 12.7041 39.5668 6.38144 
11.4902 39.1106 6.47489 10.4304 38.6114 6.81811 9.59085 38.0462 7.50726 
8.8381 37.494 8.2523 8.10514 37.0225 8.81755 7.47835 36.6292 9.32086 
28.3966 43.0541 15.3591 28.9166 43.7839 14.8333 29.0041 44.5653 14.2647 
28.4588 45.375 13.6508 27.4927 46.1287 13.0105 26.4631 46.8108 12.3158 
25.5103 47.4061 11.5434 24.587 47.827 10.7346 23.6493 48.0449 9.92155 
10.2326 29.9773 16.5705 9.01493 29.946 16.0033 7.9248 29.8481 15.2523 
7.18843 29.9679 14.4004 6.91246 30.6477 13.5827 6.93258 31.8435 12.8587 
6.96875 33.1739 12.1339 6.92432 34.3712 11.3373 6.91388 35.3982 10.5664 
12.8401 37.851 16.8258 13.6242 37.6739 17.1363 13.6175 39.0269 17.0722 
14.6709 37.552 17.3195 14.5894 38.7763 17.1506 14.6323 40.0475 16.9823 
15.857 37.3245 17.2658 15.7594 38.4946 17.1175 15.7772 39.6361 16.8595 
15.894 40.5484 16.3917 17.1247 36.9265 17.0533 17.0617 38.1011 17.0342 
17.0428 39.2564 16.8582 17.0732 40.1103 16.3676 17.1437 40.7293 15.7313 
18.4276 36.6474 17.0307 18.461 37.6758 17.0297 18.4148 38.8705 17.0136 
18.3027 39.8665 16.6697 18.2073 40.5459 16.0485 18.1873 41.1156 15.4581 
19.5433 36.7399 17.5328 19.7139 37.5285 17.3687 19.7505 38.5513 17.309 
19.5879 39.6347 17.0919 19.3366 40.5398 16.5918 19.1561 41.2295 16.0156 
19.0947 41.8224 15.5262 20.2786 37.0313 18.5188 20.5142 37.7297 18.1983 
20.7006 38.5003 17.8845 20.7012 39.3926 17.5332 20.5136 40.3719 17.0635 
20.275 41.2788 16.5495 20.0932 42.0007 16.098 19.9832 42.5632 15.6665 
11.6673 35.9948 17.0386 11.2 35.2457 17.5794 12.4745 35.8905 17.5276 
10.9376 34.4705 17.8395 12.2307 35.1968 17.9824 13.6443 35.9066 17.8698 
10.9066 33.4373 17.7254 12.0781 34.2812 18.0629 13.5635 35.1132 18.1111 
14.9295 35.7884 17.8367 10.908 32.2051 17.813 11.9455 32.9957 18.0147 
13.359 33.9609 18.0645 14.8714 34.8353 17.8875 16.1257 35.4786 17.5073 
10.909 31.1127 18.3821 11.8395 31.6936 18.3908 13.0602 32.5834 18.1546 
14.5876 33.6324 17.8514 16.0624 34.568 17.5641 17.2827 35.2912 17.305 
11.1145 30.3954 18.8175 11.9673 30.7847 18.9561 12.9571 31.4694 18.5833 
14.3 32.457 18.0201 15.8589 33.5894 17.6543 17.277 34.609 17.5316 
18.4283 35.424 17.5774 11.599 30.0285 18.5442 12.4317 30.2866 18.9828 
13.2832 30.8 18.8486 14.3643 31.597 18.3023 15.7707 32.6746 17.8397 
17.2458 33.8568 17.7401 18.4871 34.8747 17.9239 19.4216 35.6714 18.2846 
13.5237 29.8603 17.2199 15.0126 29.8564 16.7699 14.5034 30.0215 17.7494 
16.6358 29.9006 16.5562 16.0982 30.0099 17.2923 15.4633 30.4286 17.969 
18.1979 30.1064 16.4121 17.6631 30.0928 17.1129 17.1013 30.4415 17.6442 
16.489 31.125 17.9563 19.4819 30.5535 16.1017 18.9758 30.5011 16.9396 
18.5555 30.6467 17.5622 18.1166 31.2823 17.9046 17.6657 32.1826 17.986 
20.4966 31.1368 15.7447 20.0606 31.2048 16.6114 19.7602 31.2263 17.395 
19.4967 31.6593 17.9556 19.1855 32.5148 18.216 18.8528 33.4332 18.2414 
21.3822 31.687 15.5615 21.109 31.8641 16.3481 20.9271 31.9267 17.1365 
20.7431 32.2331 17.8679 20.4774 32.9199 18.4053 20.1543 33.7528 18.6863 
19.8224 34.4998 18.7326 22.1746 32.1753 15.5008 22.1225 32.3151 16.2642 
22.1075 32.4254 17.0079 22 32.7313 17.7554 21.7052 33.3223 18.4562 
21.2935 34.0108 19.0106 20.8725 34.658 19.3436 20.4923 35.2611 19.3885 
21.5554 36.2288 20.7203 22.135 35.6308 20.4653 22.3832 36.7263 20.9275 
22.7536 35.1884 19.8656 23.0721 36.1975 20.3969 23.4882 37.4173 20.551 
23.3153 34.718 19.1397 23.6307 35.8278 19.6619 24.0876 36.9583 19.9023 
24.7129 38.1258 19.9137 23.7182 34.1014 18.3849 24.0311 35.3779 18.9142 
24.4097 36.5908 19.1902 25.0819 37.6418 19.3149 25.7812 38.7129 19.3858 
23.8466 33.5711 17.577 24.2755 34.8192 18.1082 24.611 36.1749 18.434 
25.2269 37.22 18.5954 25.9972 38.1419 18.7397 26.5484 39.2684 18.8166 
23.7263 33.3216 16.6957 24.3108 34.3765 17.1647 24.7476 35.7413 17.5159 
[...]
POINT_DATA 1002
FIELD FieldData 4
_paraPhi 1 1002 double
6.2831853072 3.1415926536 6.2831853072 3.1415926536 4.7123889804 4.7123889804 1.5707963268 1.5707963268 3.6951670125 
5.7296109483 2.5880182947 0.5535743589 6.2831853072 6.2831853072 6.2831853072 6.2831853072 3.1415926536 3.1415926536 
3.1415926536 3.1415926536 3.1415926536 6.1053039672 5.898798347 5.6768734901 5.4599499503 5.2659633393 5.1032165617 
4.9713148346 4.8656852733 4.7809517865 0.17788134 0.38438696014 0.60631181711 0.82323535693 1.0172219679 1.1799687454 
1.3118704726 1.4175000338 1.5022335207 6.1892828907 6.1070320098 6.035312792 5.9728339911 5.9183214791 5.8706119594 
5.8286879411 5.7916808611 5.7588591896 0.093902416448 0.17615329733 0.2478725152 0.31035131605 0.36486382811 0.41257334776 
0.45449736604 0.4915044461 0.52432611754 3.3194739936 3.5259796137 3.7479044707 3.9648280105 4.1588146215 4.321561399 
4.4534631262 4.5590926874 4.6438261743 2.9637113136 2.7572056934 2.5352808365 2.3183572967 2.1243706857 1.9616239082 
1.829722181 1.7240926197 1.6393591329 3.23549507 3.3177459509 3.3894651688 3.4519439696 3.5064564817 3.5541660013 
3.5960900196 3.6330970997 3.6659187711 3.0476902371 2.9654393563 2.8937201384 2.8312413375 2.7767288255 2.7290193058 
2.6870952876 2.6500882075 2.617266536 6.2831853072 6.2831853072 6.2831853072 6.2831853072 3.1415926536 3.1415926536 
3.1415926536 3.1415926536 3.1415926536 6.1053039672 5.898798347 5.6768734901 5.4599499503 5.2659633393 5.1032165617 
4.9713148346 4.8656852733 4.7809517865 0.17788134 0.38438696014 0.60631181711 0.82323535693 1.0172219679 1.1799687454 
1.3118704726 1.4175000338 1.5022335207 6.1892828907 6.1070320098 6.035312792 5.9728339911 5.9183214791 5.8706119594 
5.8286879411 5.7916808611 5.7588591896 0.093902416448 0.17615329733 0.2478725152 0.31035131605 0.36486382811 0.41257334776 
0.45449736604 0.4915044461 0.52432611754 3.3194739936 3.5259796137 3.7479044707 3.9648280105 4.1588146215 4.321561399 
4.4534631262 4.5590926874 4.6438261743 2.9637113136 2.7572056934 2.5352808365 2.3183572967 2.1243706857 1.9616239082 
1.829722181 1.7240926197 1.6393591329 3.23549507 3.3177459509 3.3894651688 3.4519439696 3.5064564817 3.5541660013 
3.5960900196 3.6330970997 3.6659187711 3.0476902371 2.9654393563 2.8937201384 2.8312413375 2.7767288255 2.7290193058 
2.6870952876 2.6500882075 2.617266536 4.7123889804 4.7123889804 4.7123889804 4.7123889804 4.7123889804 4.7123889804 
4.7123889804 4.7123889804 4.7123889804 4.6087898617 4.4991390697 4.3857031936 4.2712800401 4.1588146215 4.0509635631 
3.94975894 3.8564636551 3.7716124825 4.8159880991 4.9256388911 5.0390747672 5.1534979207 5.2659633393 5.3738143976 
5.4750190208 5.5683143056 5.6531654782 4.6087898617 4.4991390697 4.3857031936 4.2712800401 4.1588146215 4.0509635631 
3.94975894 3.8564636551 3.7716124825 4.8159880991 4.9256388911 5.0390747672 5.1534979207 5.2659633393 5.3738143976 
5.4750190208 5.5683143056 5.6531654782 1.5707963268 1.5707963268 1.5707963268 1.5707963268 1.5707963268 1.5707963268 
1.5707963268 1.5707963268 1.5707963268 1.6743954455 1.7840462375 1.8974821136 2.0119052671 2.1243706857 2.232221744 
2.3334263672 2.426721652 2.5115728246 1.4671972081 1.3575464161 1.24411054 1.1296873865 1.0172219679 0.90937090954 
0.80816628637 0.71487100155 0.63001982895 1.6743954455 1.7840462375 1.8974821136 2.0119052671 2.1243706857 2.232221744 
2.3334263672 2.426721652 2.5115728246 1.4671972081 1.3575464161 1.24411054 1.1296873865 1.0172219679 0.90937090954 
0.80816628637 0.71487100155 0.63001982895 3.6007720849 3.4966939854 3.3839471039 3.2645756454 3.1415926536 3.0186096618 
2.8992382033 2.7864913217 2.6824132222 5.8240058758 5.9280839753 6.0408308569 6.1602023154 6.2831853072 0.12298299178 
0.2423544503 0.35510133185 0.45917943135 6.0560271438 5.7885595667 5.9702140275 5.5125918794 5.6029703303 5.7885595667 
5.2659633393 5.2659633393 5.2659633393 5.2659633393 5.0674903122 5.0120975802 4.9155579264 4.7123889804 4.1588146215 
4.9155579264 4.8353719722 4.7123889804 4.5092200343 4.1588146215 3.6362183941 4.8004512023 4.7123889804 4.5894059886 
4.4126803806 4.1588146215 3.8218076305 3.4545639333 4.7123889804 4.6243267584 4.5092200343 4.3572876485 4.1588146215 
3.9121860814 3.6362183941 3.368750817 6.0174235957 5.9434319871 5.8263323547 5.8809213739 5.7674481418 5.6279784266 
5.8278025282 5.718968232 5.5891129425 5.4372443565 5.7823484065 5.678536687 5.5575666702 5.4192596322 5.2659633393 
5.743164462 5.6444075337 5.5314983644 5.4046708639 5.2659633393 5.1195510325 5.7091357773 5.6152775188 5.5096229709 
5.3926039573 5.2659633393 5.1329233157 4.9978930058 5.6793730533 5.5901633916 5.4910209005 5.3824597928 5.2659633393 
5.1440684722 5.0201624502 4.8979782167 5.5683143056 5.4750190208 5.4750190208 5.3738143976 5.3738143976 5.3738143976 
5.2659633393 5.2659633393 5.2659633393 5.2659633393 5.1534979207 5.1534979207 5.1534979207 5.1534979207 5.1534979207 
5.0390747672 5.0390747672 5.0390747672 5.0390747672 5.0390747672 5.0390747672 4.9256388911 4.9256388911 4.9256388911 
4.9256388911 4.9256388911 4.9256388911 4.9256388911 4.8159880991 4.8159880991 4.8159880991 4.8159880991 4.8159880991 
4.8159880991 4.8159880991 4.8159880991 4.6087898617 4.6087898617 4.4991390697 4.6087898617 4.4991390697 4.3857031936 
4.6087898617 4.4991390697 4.3857031936 4.2712800401 4.6087898617 4.4991390697 4.3857031936 4.2712800401 4.1588146215 
4.6087898617 4.4991390697 4.3857031936 4.2712800401 4.1588146215 4.0509635631 4.6087898617 4.4991390697 4.3857031936 
4.2712800401 4.1588146215 4.0509635631 3.94975894 4.6087898617 4.4991390697 4.3857031936 4.2712800401 4.1588146215 
4.0509635631 3.94975894 3.8564636551 4.526799744 4.4046155105 4.426884955 4.2807094886 4.2918546451 4.3052269283 
4.1588146215 4.1588146215 4.1588146215 4.1588146215 4.042318168 4.0321740035 4.0201070968 4.0055183285 3.9875336042 
3.9337570603 3.9151549899 3.8932795963 3.8672112905 3.8356650183 3.7967995342 3.8346145692 3.809500442 3.7803704271 
3.7462412737 3.7058097288 3.657329819 3.5984456061 3.7454049075 3.7156421835 3.6816134988 3.6424295543 3.5969754326 
3.5438565869 3.4813459737 3.4073543651 3.5642842451 3.4524645613 3.5233842518 3.3320300872 3.403123212 3.4773852225 
3.20576226 3.2746326772 3.348015857 3.4255060145 3.0774230472 3.1415926536 3.2112816139 3.2864685043 3.3668817272 
2.95115522 3.00855263 3.0719036933 3.1415926536 3.2178377658 3.3005964304 2.8307207459 2.8800620952 2.9351694502 
2.9967168029 3.0653475414 3.1415926536 3.225752376 2.718901062 2.7598010554 2.8058000847 2.8576792927 2.91630358 
2.9825888767 3.0574329311 3.1415926536 3.5642842451 3.5233842518 3.4524645613 3.4773852225 3.403123212 3.3320300872 
3.4255060145 3.348015857 3.2746326772 3.20576226 3.3668817272 3.2864685043 3.2112816139 3.1415926536 3.0774230472 
3.3005964304 3.2178377658 3.1415926536 3.0719036933 3.00855263 2.95115522 3.225752376 3.1415926536 3.0653475414 
2.9967168029 2.9351694502 2.8800620952 2.8307207459 3.1415926536 3.0574329311 2.9825888767 2.91630358 2.8576792927 
2.8058000847 2.7598010554 2.718901062 4.526799744 4.426884955 4.4046155105 4.3052269283 4.2918546451 4.2807094886 
4.1588146215 4.1588146215 4.1588146215 4.1588146215 3.9875336042 4.0055183285 4.0201070968 4.0321740035 4.042318168 
3.7967995342 3.8356650183 3.8672112905 3.8932795963 3.9151549899 3.9337570603 3.5984456061 3.657329819 3.7058097288 
3.7462412737 3.7803704271 3.809500442 3.8346145692 3.4073543651 3.4813459737 3.5438565869 3.5969754326 3.6424295543 
3.6816134988 3.7156421835 3.7454049075 4.7123889804 4.8004512023 4.6243267584 4.9155579264 4.7123889804 4.5092200343 
5.0674903122 4.8353719722 4.5894059886 4.3572876485 5.2659633393 5.0120975802 4.7123889804 4.4126803806 4.1588146215 
5.5125918794 5.2659633393 4.9155579264 4.5092200343 4.1588146215 3.9121860814 5.7885595667 5.6029703303 5.2659633393 
4.7123889804 4.1588146215 3.8218076305 3.6362183941 6.0560271438 5.9702140275 5.7885595667 5.2659633393 4.1588146215 
3.6362183941 3.4545639333 3.368750817 0.22715816343 0.49462574053 0.3129712797 0.77059342779 0.68021497688 0.49462574053 
1.0172219679 1.0172219679 1.0172219679 1.0172219679 1.2156949949 1.271087727 1.3676273807 1.5707963268 2.1243706857 
1.3676273807 1.447813335 1.5707963268 1.7739652728 2.1243706857 2.6469669131 1.4827341049 1.5707963268 1.6937793186 
1.8705049266 2.1243706857 2.4613776767 2.8286213739 1.5707963268 1.6588585487 1.7739652728 1.9258976586 2.1243706857 
2.3709992258 2.6469669131 2.9144344902 1.7563855631 1.8785697967 1.8563003522 2.0024758186 1.9913306621 1.9779583789 
2.1243706857 2.1243706857 2.1243706857 2.1243706857 2.2408671392 2.2510113037 2.2630782103 2.2776669786 2.295651703 
2.3494282469 2.3680303173 2.3899057108 2.4159740166 2.4475202889 2.486385773 2.448570738 2.4736848652 2.5028148801 
2.5369440334 2.5773755784 2.6258554882 2.6847397011 2.5377803997 2.5675431237 2.6015718084 2.6407557529 2.6862098746 
2.7393287203 2.8018393335 2.8758309421 1.6743954455 1.6743954455 1.7840462375 1.6743954455 1.7840462375 1.8974821136 
1.6743954455 1.7840462375 1.8974821136 2.0119052671 1.6743954455 1.7840462375 1.8974821136 2.0119052671 2.1243706857 
1.6743954455 1.7840462375 1.8974821136 2.0119052671 2.1243706857 2.232221744 1.6743954455 1.7840462375 1.8974821136 
2.0119052671 2.1243706857 2.232221744 2.3334263672 1.6743954455 1.7840462375 1.8974821136 2.0119052671 2.1243706857 
2.232221744 2.3334263672 2.426721652 1.4671972081 1.3575464161 1.4671972081 1.24411054 1.3575464161 1.4671972081 
1.1296873865 1.24411054 1.3575464161 1.4671972081 1.0172219679 1.1296873865 1.24411054 1.3575464161 1.4671972081 
0.90937090954 1.0172219679 1.1296873865 1.24411054 1.3575464161 1.4671972081 0.80816628637 0.90937090954 1.0172219679 
1.1296873865 1.24411054 1.3575464161 1.4671972081 0.71487100155 0.80816628637 0.90937090954 1.0172219679 1.1296873865 
1.24411054 1.3575464161 1.4671972081 0.60381225391 0.57404952988 0.69302191562 0.54002084522 0.66790778838 0.79216440667 
0.50083690068 0.63877777351 0.77356233629 0.90072551443 0.45538277901 0.60464862014 0.75168694275 0.89058134991 1.0172219679 
0.40226393329 0.56421707518 0.72561863695 0.87851444325 1.0172219679 1.139116835 0.33975332011 0.51573716537 0.69407236469 
0.86392567495 1.0172219679 1.1502619915 1.2630228569 0.26576171152 0.45685295248 0.6552068806 0.84594095064 1.0172219679 
1.1636342747 1.2852923014 1.3852070904 0.22715816343 0.3129712797 0.49462574053 0.49462574053 0.68021497688 0.77059342779 
1.0172219679 1.0172219679 1.0172219679 1.0172219679 2.1243706857 1.5707963268 1.3676273807 1.271087727 1.2156949949 
2.6469669131 2.1243706857 1.7739652728 1.5707963268 1.447813335 1.3676273807 2.8286213739 2.4613776767 2.1243706857 
1.8705049266 1.6937793186 1.5707963268 1.4827341049 2.9144344902 2.6469669131 2.3709992258 2.1243706857 1.9258976586 
1.7739652728 1.6588585487 1.5707963268 1.7563855631 1.8563003522 1.8785697967 1.9779583789 1.9913306621 2.0024758186 
2.1243706857 2.1243706857 2.1243706857 2.1243706857 2.295651703 2.2776669786 2.2630782103 2.2510113037 2.2408671392 
2.486385773 2.4475202889 2.4159740166 2.3899057108 2.3680303173 2.3494282469 2.6847397011 2.6258554882 2.5773755784 
2.5369440334 2.5028148801 2.4736848652 2.448570738 2.8758309421 2.8018393335 2.7393287203 2.6862098746 2.6407557529 
2.6015718084 2.5675431237 2.5377803997 5.8604937156 5.901393709 5.9723133995 5.9473927383 6.0216547488 6.0927478736 
5.9992719463 6.0767621038 6.1501452836 6.2190157008 6.0578962336 6.1383094565 6.2134963469 0 0.064169606361 
6.1241815303 6.206940195 6.2831853072 0.069688960264 0.13304002361 0.19043743361 6.1990255847 0 0.07624511221 
0.14487585072 0.20642320337 0.26153055843 0.3108719077 0 0.084159722458 0.15900377685 0.22528907359 0.28391336087 
0.3357925689 0.38179159818 0.42269159155 5.8604937156 5.9723133995 5.901393709 6.0927478736 6.0216547488 5.9473927383 
6.2190157008 6.1501452836 6.0767621038 5.9992719463 0.064169606361 0 6.2134963469 6.1383094565 6.0578962336 
0.19043743361 0.13304002361 0.069688960264 6.2831853072 6.206940195 6.1241815303 0.3108719077 0.26153055843 0.20642320337 
0.14487585072 0.07624511221 6.2831853072 6.1990255847 0.42269159155 0.38179159818 0.3357925689 0.28391336087 0.22528907359 
0.15900377685 0.084159722458 0 5.6793730533 5.7091357773 5.5901633916 5.743164462 5.6152775188 5.4910209005 
5.7823484065 5.6444075337 5.5096229709 5.3824597928 5.8278025282 5.678536687 5.5314983644 5.3926039573 5.2659633393 
5.8809213739 5.718968232 5.5575666702 5.4046708639 5.2659633393 5.1440684722 5.9434319871 5.7674481418 5.5891129425 
5.4192596322 5.2659633393 5.1329233157 5.0201624502 6.0174235957 5.8263323547 5.6279784266 5.4372443565 5.2659633393 
5.1195510325 4.9978930058 4.8979782167 1.3852070904 1.2852923014 1.2630228569 1.1636342747 1.1502619915 1.139116835 
1.0172219679 1.0172219679 1.0172219679 1.0172219679 0.84594095064 0.86392567495 0.87851444325 0.89058134991 0.90072551443 
0.6552068806 0.69407236469 0.72561863695 0.75168694275 0.77356233629 0.79216440667 0.45685295248 0.51573716537 0.56421707518 
0.60464862014 0.63877777351 0.66790778838 0.69302191562 0.26576171152 0.33975332011 0.40226393329 0.45538277901 0.50083690068 
0.54002084522 0.57404952988 0.60381225391 
_paraPhiHalf 1 1002 double
0 3.1415926536 0 3.1415926536 1.5707963268 1.5707963268 1.5707963268 1.5707963268 2.5880182947 
0.5535743589 2.5880182947 0.5535743589 0 0 0 0 3.1415926536 3.1415926536 
3.1415926536 3.1415926536 3.1415926536 0.17788134 0.38438696014 0.60631181711 0.82323535693 1.0172219679 1.1799687454 
1.3118704726 1.4175000338 1.5022335207 0.17788134 0.38438696014 0.60631181711 0.82323535693 1.0172219679 1.1799687454 
1.3118704726 1.4175000338 1.5022335207 0.093902416448 0.17615329733 0.2478725152 0.31035131605 0.36486382811 0.41257334776 
0.45449736604 0.4915044461 0.52432611754 0.093902416448 0.17615329733 0.2478725152 0.31035131605 0.36486382811 0.41257334776 
0.45449736604 0.4915044461 0.52432611754 2.9637113136 2.7572056934 2.5352808365 2.3183572967 2.1243706857 1.9616239082 
1.829722181 1.7240926197 1.6393591329 2.9637113136 2.7572056934 2.5352808365 2.3183572967 2.1243706857 1.9616239082 
1.829722181 1.7240926197 1.6393591329 3.0476902371 2.9654393563 2.8937201384 2.8312413375 2.7767288255 2.7290193058 
2.6870952876 2.6500882075 2.617266536 3.0476902371 2.9654393563 2.8937201384 2.8312413375 2.7767288255 2.7290193058 
2.6870952876 2.6500882075 2.617266536 0 0 0 0 3.1415926536 3.1415926536 
3.1415926536 3.1415926536 3.1415926536 0.17788134 0.38438696014 0.60631181711 0.82323535693 1.0172219679 1.1799687454 
1.3118704726 1.4175000338 1.5022335207 0.17788134 0.38438696014 0.60631181711 0.82323535693 1.0172219679 1.1799687454 
1.3118704726 1.4175000338 1.5022335207 0.093902416448 0.17615329733 0.2478725152 0.31035131605 0.36486382811 0.41257334776 
0.45449736604 0.4915044461 0.52432611754 0.093902416448 0.17615329733 0.2478725152 0.31035131605 0.36486382811 0.41257334776 
0.45449736604 0.4915044461 0.52432611754 2.9637113136 2.7572056934 2.5352808365 2.3183572967 2.1243706857 1.9616239082 
1.829722181 1.7240926197 1.6393591329 2.9637113136 2.7572056934 2.5352808365 2.3183572967 2.1243706857 1.9616239082 
1.829722181 1.7240926197 1.6393591329 3.0476902371 2.9654393563 2.8937201384 2.8312413375 2.7767288255 2.7290193058 
2.6870952876 2.6500882075 2.617266536 3.0476902371 2.9654393563 2.8937201384 2.8312413375 2.7767288255 2.7290193058 
2.6870952876 2.6500882075 2.617266536 1.5707963268 1.5707963268 1.5707963268 1.5707963268 1.5707963268 1.5707963268 
1.5707963268 1.5707963268 1.5707963268 1.6743954455 1.7840462375 1.8974821136 2.0119052671 2.1243706857 2.232221744 
2.3334263672 2.426721652 2.5115728246 1.4671972081 1.3575464161 1.24411054 1.1296873865 1.0172219679 0.90937090954 
0.80816628637 0.71487100155 0.63001982895 1.6743954455 1.7840462375 1.8974821136 2.0119052671 2.1243706857 2.232221744 
2.3334263672 2.426721652 2.5115728246 1.4671972081 1.3575464161 1.24411054 1.1296873865 1.0172219679 0.90937090954 
0.80816628637 0.71487100155 0.63001982895 1.5707963268 1.5707963268 1.5707963268 1.5707963268 1.5707963268 1.5707963268 
1.5707963268 1.5707963268 1.5707963268 1.6743954455 1.7840462375 1.8974821136 2.0119052671 2.1243706857 2.232221744 
2.3334263672 2.426721652 2.5115728246 1.4671972081 1.3575464161 1.24411054 1.1296873865 1.0172219679 0.90937090954 
0.80816628637 0.71487100155 0.63001982895 1.6743954455 1.7840462375 1.8974821136 2.0119052671 2.1243706857 2.232221744 
2.3334263672 2.426721652 2.5115728246 1.4671972081 1.3575464161 1.24411054 1.1296873865 1.0172219679 0.90937090954 
0.80816628637 0.71487100155 0.63001982895 2.6824132222 2.7864913217 2.8992382033 3.0186096618 3.1415926536 3.0186096618 
2.8992382033 2.7864913217 2.6824132222 0.45917943135 0.35510133185 0.2423544503 0.12298299178 0 0.12298299178 
0.2423544503 0.35510133185 0.45917943135 0.22715816343 0.49462574053 0.3129712797 0.77059342779 0.68021497688 0.49462574053 
1.0172219679 1.0172219679 1.0172219679 1.0172219679 1.2156949949 1.271087727 1.3676273807 1.5707963268 2.1243706857 
1.3676273807 1.447813335 1.5707963268 1.7739652728 2.1243706857 2.6469669131 1.4827341049 1.5707963268 1.6937793186 
1.8705049266 2.1243706857 2.4613776767 2.8286213739 1.5707963268 1.6588585487 1.7739652728 1.9258976586 2.1243706857 
2.3709992258 2.6469669131 2.9144344902 0.26576171152 0.33975332011 0.45685295248 0.40226393329 0.51573716537 0.6552068806 
0.45538277901 0.56421707518 0.69407236469 0.84594095064 0.50083690068 0.60464862014 0.72561863695 0.86392567495 1.0172219679 
0.54002084522 0.63877777351 0.75168694275 0.87851444325 1.0172219679 1.1636342747 0.57404952988 0.66790778838 0.77356233629 
0.89058134991 1.0172219679 1.1502619915 1.2852923014 0.60381225391 0.69302191562 0.79216440667 0.90072551443 1.0172219679 
1.139116835 1.2630228569 1.3852070904 0.71487100155 0.80816628637 0.80816628637 0.90937090954 0.90937090954 0.90937090954 
1.0172219679 1.0172219679 1.0172219679 1.0172219679 1.1296873865 1.1296873865 1.1296873865 1.1296873865 1.1296873865 
1.24411054 1.24411054 1.24411054 1.24411054 1.24411054 1.24411054 1.3575464161 1.3575464161 1.3575464161 
1.3575464161 1.3575464161 1.3575464161 1.3575464161 1.4671972081 1.4671972081 1.4671972081 1.4671972081 1.4671972081 
1.4671972081 1.4671972081 1.4671972081 1.6743954455 1.6743954455 1.7840462375 1.6743954455 1.7840462375 1.8974821136 
1.6743954455 1.7840462375 1.8974821136 2.0119052671 1.6743954455 1.7840462375 1.8974821136 2.0119052671 2.1243706857 
1.6743954455 1.7840462375 1.8974821136 2.0119052671 2.1243706857 2.232221744 1.6743954455 1.7840462375 1.8974821136 
2.0119052671 2.1243706857 2.232221744 2.3334263672 1.6743954455 1.7840462375 1.8974821136 2.0119052671 2.1243706857 
2.232221744 2.3334263672 2.426721652 1.7563855631 1.8785697967 1.8563003522 2.0024758186 1.9913306621 1.9779583789 
2.1243706857 2.1243706857 2.1243706857 2.1243706857 2.2408671392 2.2510113037 2.2630782103 2.2776669786 2.295651703 
2.3494282469 2.3680303173 2.3899057108 2.4159740166 2.4475202889 2.486385773 2.448570738 2.4736848652 2.5028148801 
2.5369440334 2.5773755784 2.6258554882 2.6847397011 2.5377803997 2.5675431237 2.6015718084 2.6407557529 2.6862098746 
2.7393287203 2.8018393335 2.8758309421 2.718901062 2.8307207459 2.7598010554 2.95115522 2.8800620952 2.8058000847 
3.0774230472 3.00855263 2.9351694502 2.8576792927 3.0774230472 3.1415926536 3.0719036933 2.9967168029 2.91630358 
2.95115522 3.00855263 3.0719036933 3.1415926536 3.0653475414 2.9825888767 2.8307207459 2.8800620952 2.9351694502 
2.9967168029 3.0653475414 3.1415926536 3.0574329311 2.718901062 2.7598010554 2.8058000847 2.8576792927 2.91630358 
2.9825888767 3.0574329311 3.1415926536 2.718901062 2.7598010554 2.8307207459 2.8058000847 2.8800620952 2.95115522 
2.8576792927 2.9351694502 3.00855263 3.0774230472 2.91630358 2.9967168029 3.0719036933 3.1415926536 3.0774230472 
2.9825888767 3.0653475414 3.1415926536 3.0719036933 3.00855263 2.95115522 3.0574329311 3.1415926536 3.0653475414 