# vtk DataFile Version 5.1
vtk output
ASCII
DATASET POLYDATA
POINTS 1002 float
13.4005 34.3156 9.07027 20.8773 41.3149 7.12842 13.2191 36.7984 17.3791 
20.7379 43.2219 14.9379 12.7888 43.0558 7.49116 12.2131 44.6091 13.9066 
23.3188 32.4975 10.4959 22.4702 35.3063 16.3258 20.1099 49.1178 9.63053 
6.89174 36.1988 12.8503 27.1342 41.8984 12.378 13.6371 30.1801 14.5781 
14.1661 34.8839 8.89567 15.041 35.5161 8.63693 15.9107 36.2022 8.29256 
16.658 36.9257 7.94891 17.3566 37.6396 7.65077 18.1976 38.3108 7.33657 
19.1602 38.9883 7.01213 19.9949 39.7385 6.82755 20.5456 40.541 6.88634 
13.1547 35.0676 9.08513 12.9391 35.917 9.00035 12.7233 36.8477 8.73506 
12.5651 37.8035 8.44091 12.498 38.757 8.28893 12.397 39.7735 8.13503 
12.2167 40.848 7.79136 12.1639 41.8043 7.42938 12.3927 42.5158 7.32608 
14.2079 33.9378 8.99115 15.1601 33.5908 9.00389 16.1675 33.309 9.06512 
17.2598 33.0334 9.02752 18.5271 32.7018 8.88813 19.8443 32.427 8.89074 
20.9527 32.3625 9.19283 21.8167 32.4458 9.66266 22.5847 32.5051 10.1131 
12.5455 34.22 9.24718 11.7396 34.1324 9.48068 10.9447 34.0991 9.83245 
10.1022 34.1816 10.3181 9.2657 34.354 10.8136 8.54869 34.5433 11.174 
7.95438 34.7899 11.4513 7.4349 35.1871 11.8179 7.04633 35.7005 12.3193 
13.1569 33.5262 9.19935 12.961 32.705 9.46891 12.786 31.8742 9.82665 
12.5792 31.0636 10.1117 12.3856 30.373 10.4076 12.3693 29.9674 11.0399 
12.611 29.9207 12.036 12.9915 30.0853 13.0558 13.3488 30.2135 13.8853 
20.1615 41.8331 6.97185 19.3925 42.3494 6.84679 18.6236 42.6993 6.6453 
17.7785 42.8293 6.27521 16.7296 42.8572 5.91411 15.5903 42.9142 5.90014 
14.6544 43.0068 6.27128 13.9909 43.0746 6.74732 13.413 43.087 7.1424 
21.371 40.3991 7.17542 21.8205 39.5887 7.36633 22.2023 38.8117 7.69872 
22.5444 37.791 8.03962 22.8536 36.5112 8.30522 23.0521 35.378 8.63389 
23.0964 34.6081 9.16115 23.0923 33.9596 9.75431 23.1683 33.2256 10.2037 
20.7214 42.3855 7.32685 20.5995 43.4782 7.44998 20.6147 44.5644 7.37659 
20.7562 45.6814 7.23594 20.8499 46.7729 7.31733 20.767 47.6893 7.66894 
20.59 48.3726 8.08075 20.4384 48.8439 8.47982 20.2978 49.0918 8.98326 
21.4745 41.5001 7.46346 22.1453 41.7095 7.8368 22.9171 41.886 8.17908 
23.694 41.9784 8.53235 24.2986 42.0075 9.06699 24.7172 42.0446 9.85882 
25.1619 42.1014 10.7195 25.7823 42.1102 11.408 26.4953 42.0296 11.9084 
13.6516 37.4258 17.584 14.2484 38.0432 17.7225 15.0468 38.7959 17.6833 
15.8979 39.6981 17.3589 16.671 40.5006 16.7552 17.471 41.0016 16.0288 
18.4156 41.3521 15.3931 19.3776 41.8263 14.9996 20.1621 42.4898 14.8769 
12.8 37.3543 17.2572 12.3871 38.064 17.1608 12.0178 39.0494 17.049 
11.7262 40.1547 16.8434 11.5683 41.0796 16.4647 11.5883 41.7834 15.9169 
11.7437 42.4684 15.318 11.9317 43.2264 14.7845 12.0874 43.9729 14.3303 
13.9104 36.594 17.6874 14.6679 36.186 17.9932 15.4302 35.6514 18.0377 
16.1162 35.2727 17.5634 16.792 35.2015 16.7122 17.7214 35.2542 16.0298 
19.0259 35.238 15.8719 20.444 35.2005 16.0733 21.6264 35.2319 16.2829 
12.5256 36.4001 17.0796 11.7091 35.9099 16.7934 10.7765 35.5148 16.502 
9.82835 35.4054 16.1634 8.98232 35.5359 15.7647 8.27258 35.6765 15.3165 
7.68643 35.7374 14.8054 7.24173 35.8202 14.2047 6.97378 35.9897 13.5305 
13.2039 35.9404 17.3212 13.0626 34.8799 17.2131 12.7388 33.7895 17.049 
12.3214 32.8201 16.9459 11.9954 31.8638 17.0173 11.9216 30.8479 17.0892 
12.157 30.0857 16.8229 12.6206 29.8672 16.1574 13.152 30.021 15.336 
20.0854 43.24 14.405 19.3779 43.3313 14.0812 18.5731 43.6953 14.1093 
17.6619 44.2433 14.3066 16.6598 44.6462 14.4274 15.558 44.7904 14.4858 
14.4202 44.8494 14.5439 13.4356 44.8945 14.4908 12.7241 44.826 14.2491 
21.1128 42.6678 15.4148 21.5299 42.0101 15.7776 21.8954 41.2544 15.9515 
22.1759 40.3841 16.132 22.3697 39.4218 16.539 22.4309 38.4935 16.9972 
22.3849 37.681 17.1477 22.3691 36.9053 16.9517 22.4307 36.0943 16.6287 
20.8661 44.034 14.739 21.0577 44.9288 14.6102 21.2541 45.8481 14.452 
21.3361 46.7643 14.0973 21.3034 47.63 13.5712 21.2705 48.3162 13.0345 
21.2257 48.7334 12.4332 21.0186 48.9459 11.5965 20.6053 49.0622 10.5856 
21.468 43.5568 15.3144 22.3251 43.613 15.4371 23.3688 43.4053 15.2087 
24.4739 43.2177 14.9409 25.4069 43.1917 14.9191 26.1142 43.1099 14.8752 
26.6998 42.8191 14.3936 27.1388 42.4624 13.5769 27.2922 42.1702 12.8389 
12.6239 43.3422 7.94798 12.4094 43.6768 8.51065 12.1374 44.114 9.01339 
11.8156 44.5977 9.42561 11.5034 44.9585 10.001 11.3444 45.0847 10.9251 
11.4375 45.0305 11.9691 11.7019 44.9099 12.8085 11.9826 44.7728 13.4097 
13.5525 43.7087 7.48656 14.0929 44.7114 7.3179 14.3839 46.0165 6.94868 
14.7203 47.2475 6.64948 15.3847 48.0608 6.76756 16.2818 48.5062 7.27819 
17.1859 48.7967 7.86634 18.094 48.991 8.39322 19.0857 49.0812 8.95796 
11.7971 42.7027 7.72194 10.7561 42.2926 8.08125 9.89131 41.7418 8.63765 
9.22584 41.0667 9.30699 8.57395 40.3632 9.93688 7.8789 39.6492 10.4985 
7.31385 38.8477 11.0667 7.00463 37.9463 11.6688 6.89977 37.0351 12.273 
12.6708 45.2859 13.6044 13.2823 45.7947 13.0979 14.0592 46.2479 12.4894 
14.9017 46.9361 11.9677 15.6823 47.846 11.6011 16.398 48.5357 11.2801 
17.1882 48.7805 10.8818 18.1466 48.8463 10.4056 19.1807 48.9788 9.95514 
11.6376 43.9188 13.7819 10.886 43.2261 13.6875 9.89165 42.7033 13.7386 
8.85446 42.2259 13.8232 8.13225 41.4513 13.7101 7.78987 40.3174 13.4203 
7.54153 39.1295 13.1882 7.22361 38.0924 13.0827 6.96152 37.1435 12.9912 
23.8458 32.1317 10.963 24.2472 31.989 11.6661 24.3795 32.1478 12.5844 
24.2584 32.4933 13.5457 24.0137 32.8586 14.3797 23.7325 33.2389 15.0222 
23.4446 33.7239 15.4809 23.1627 34.296 15.8138 22.8545 34.846 16.0911 
23.9443 32.9253 10.6515 24.5767 33.5208 10.7404 25.1253 34.3988 10.8363 
25.5242 35.5081 10.9851 25.8268 36.6878 11.2073 26.1461 37.8822 11.5435 
26.5206 39.1045 11.9427 26.8849 40.2556 12.2342 27.1214 41.1954 12.3449 
22.9917 31.8456 10.4904 22.4457 31.2696 10.5293 21.5446 30.8939 10.817 
20.4041 30.7147 11.3533 19.3 30.5331 11.91 18.2716 30.23 12.3907 
17.1407 29.988 12.9132 15.8954 29.99 13.5085 14.6973 30.1261 14.0792 
23.1484 35.9063 16.3627 23.8509 36.6066 16.1875 24.6615 37.2732 15.8861 
25.5203 37.8145 15.6154 26.348 38.3593 15.3739 27.1514 39.0997 14.9776 
27.8021 39.9758 14.3365 28.0176 40.7631 13.5878 27.7204 41.3773 12.9147 
21.9105 34.5457 16.027 21.0992 33.8289 15.6891 20.2238 33.0131 15.5044 
19.6063 31.9455 15.6864 19.1998 30.7994 16.117 18.5077 30.0071 16.3263 
17.2838 29.7591 16.0469 15.8568 29.8601 15.495 14.6161 30.0455 14.9807 
21.2456 49.152 9.98843 22.3202 49.0137 10.3858 23.2388 48.6315 10.6577 
23.9724 48.0382 10.7915 24.5564 47.2204 10.9471 25.0345 46.1023 11.2097 
25.4778 44.7932 11.5097 25.9926 43.5848 11.7992 26.5903 42.641 12.092 
6.9436 35.0522 13.1128 7.00285 33.7393 13.4092 6.96167 32.3428 13.7072 
6.85694 31.0854 13.9371 7.08208 30.2105 14.0924 8.02622 29.8213 14.2554 
9.52462 29.8302 14.4485 11.0788 30.0166 14.588 12.4347 30.1633 14.6204 
13.9216 35.6978 8.83875 13.6801 36.5936 8.62626 14.7948 36.3665 8.4473 
13.4802 37.5617 8.29641 14.527 37.3034 8.15408 15.6403 37.0819 8.00605 
13.3887 38.5798 8.06345 14.3365 38.3561 7.89612 15.358 38.0897 7.75875 
16.3803 37.8451 7.66146 13.315 39.6326 7.93185 14.2379 39.4829 7.72688 
15.1894 39.2571 7.58564 16.1628 38.9561 7.47735 17.1549 38.6224 7.37875 
13.1305 40.6929 7.66481 14.0725 40.5607 7.45464 15.0682 40.4149 7.28217 
16.0827 40.1968 7.21966 17.0725 39.8538 7.15861 18.0921 39.4074 7.05487 
12.9828 41.6581 7.2842 13.8479 41.5002 7.04011 14.8528 41.368 6.77097 
15.9841 41.2663 6.69489 17.0678 41.103 6.78923 18.0524 40.7475 6.83082 
19.0312 40.2286 6.79484 13.0954 42.4403 7.07608 13.8021 42.3132 6.75335 
14.6599 42.1726 6.35601 15.7734 42.0865 6.13868 16.9574 42.0599 6.27918 
17.9765 41.9489 6.55959 18.8629 41.5983 6.71241 19.729 41.0612 6.77234 
12.34 35.017 9.25986 11.5663 34.993 9.46966 12.1277 35.9537 9.14838 
10.7286 35.0685 9.81564 11.2968 36.056 9.35997 11.8687 36.9848 8.89865 
9.80978 35.257 10.2902 10.3805 36.2646 9.73759 10.9649 37.1975 9.19479 
11.6771 37.987 8.69412 8.96382 35.4647 10.7084 9.48843 36.5019 10.1819 
10.0752 37.4648 9.61782 10.7646 38.2384 9.05842 11.5798 38.968 8.55779 
8.27378 35.6843 10.9839 8.746 36.7004 10.5083 9.32802 37.6993 9.99469 
9.95661 38.5281 9.42591 10.6532 39.2691 8.82079 11.4302 40.0643 8.26001 
7.66981 36.0406 11.2786 8.0797 36.9829 10.7709 8.66085 37.9471 10.2731 
9.28015 38.8217 9.73161 9.85737 39.6196 9.08721 10.4916 40.4256 8.39965 
11.2844 41.1931 7.8282 7.16723 36.5421 11.7297 7.44723 37.4423 11.1525 
7.94947 38.3456 10.6027 8.5918 39.186 10.0638 9.19559 39.9785 9.45443 
9.7506 40.7715 8.74128 10.4563 41.5108 8.06816 11.3944 42.0935 7.60068 
6.89688 38.1108 12.3909 7.05241 39.2267 12.4911 6.9316 39.1464 11.7452 
7.29819 40.3985 12.6648 7.04394 40.3452 11.8464 7.26038 40.0681 11.1018 
7.6594 41.5339 12.9732 7.4052 41.4528 12.0492 7.50933 41.1912 11.1909 
7.96581 40.7889 10.5036 8.31626 42.3911 13.2505 8.0505 42.36 12.3299 
8.13553 42.1328 11.3397 8.45491 41.7866 10.5622 8.83693 41.4139 9.91817 
9.31193 42.9222 13.3159 8.93652 43.0301 12.5278 8.95892 42.9384 11.4841 
9.24739 42.6641 10.6112 9.50312 42.3255 9.9698 9.66319 42.0217 9.3053 
10.3908 43.4142 13.2768 9.93077 43.6063 12.6069 9.77835 43.6928 11.5971 
9.9963 43.5501 10.6249 10.2986 43.204 9.98509 10.4492 42.8325 9.42888 
10.5412 42.5448 8.73139 11.2915 44.0708 13.3145 10.8813 44.245 12.6893 
10.5956 44.4042 11.7525 10.6333 44.4063 10.7034 10.9288 44.1342 9.95118 
11.2252 43.6799 9.48497 11.4152 43.2577 8.95119 11.5802 42.9549 8.28477 
13.3662 44.1252 7.92723 13.0695 44.599 8.38716 13.8247 45.2882 7.66118 
12.7372 45.0815 8.82087 13.5337 45.8081 8.06794 14.1056 46.6307 7.28995 
12.4477 45.4383 9.36818 13.3413 46.1332 8.6477 13.9781 47.0342 7.88692 
14.5378 47.7446 7.2413 12.2525 45.5962 10.2357 13.2295 46.2161 9.52596 
13.9866 47.1468 8.81389 14.5269 48.0391 8.19997 15.231 48.4547 7.70246 
12.2087 45.6175 11.326 13.1398 46.1866 10.6367 13.9695 47.0582 9.96346 
14.5454 48.1107 9.38249 15.1322 48.7577 8.87772 16.0414 48.8608 8.35801 
[...]
POINT_DATA 1002
FIELD FieldData 4
_paraPhi 1 1002 double
6.2831853072 3.1415926536 6.2831853072 3.1415926536 4.7123889804 4.7123889804 1.5707963268 1.5707963268 3.6951670125 
5.7296109483 2.5880182947 0.5535743589 6.2831853072 6.2831853072 6.2831853072 6.2831853072 3.1415926536 3.1415926536 
3.1415926536 3.1415926536 3.1415926536 6.1053039672 5.898798347 5.6768734901 5.4599499503 5.2659633393 5.1032165617 
4.9713148346 4.8656852733 4.7809517865 0.17788134 0.38438696014 0.60631181711 0.82323535693 1.0172219679 1.1799687454 
1.3118704726 1.4175000338 1.5022335207 6.1892828907 6.1070320098 6.035312792 5.9728339911 5.9183214791 5.8706119594 
5.8286879411 5.7916808611 5.7588591896 0.093902416448 0.17615329733 0.2478725152 0.31035131605 0.36486382811 0.41257334776 
0.45449736604 0.4915044461 0.52432611754 3.3194739936 3.5259796137 3.7479044707 3.9648280105 4.1588146215 4.321561399 
4.4534631262 4.5590926874 4.6438261743 2.9637113136 2.7572056934 2.5352808365 2.3183572967 2.1243706857 1.9616239082 
1.829722181 1.7240926197 1.6393591329 3.23549507 3.3177459509 3.3894651688 3.4519439696 3.5064564817 3.5541660013 
3.5960900196 3.6330970997 3.6659187711 3.0476902371 2.9654393563 2.8937201384 2.8312413375 2.7767288255 2.7290193058 
2.6870952876 2.6500882075 2.617266536 6.2831853072 6.2831853072 6.2831853072 6.2831853072 3.1415926536 3.1415926536 
3.1415926536 3.1415926536 3.1415926536 6.1053039672 5.898798347 5.6768734901 5.4599499503 5.2659633393 5.1032165617 
4.9713148346 4.8656852733 4.7809517865 0.17788134 0.38438696014 0.60631181711 0.82323535693 1.0172219679 1.1799687454 
1.3118704726 1.4175000338 1.5022335207 6.1892828907 6.1070320098 6.035312792 5.9728339911 5.9183214791 5.8706119594 
5.8286879411 5.7916808611 5.7588591896 0.093902416448 0.17615329733 0.2478725152 0.31035131605 0.36486382811 0.41257334776 
0.45449736604 0.4915044461 0.52432611754 3.3194739936 3.5259796137 3.7479044707 3.9648280105 4.1588146215 4.321561399 
4.4534631262 4.5590926874 4.6438261743 2.9637113136 2.7572056934 2.5352808365 2.3183572967 2.1243706857 1.9616239082 
1.829722181 1.7240926197 1.6393591329 3.23549507 3.3177459509 3.3894651688 3.4519439696 3.5064564817 3.5541660013 
3.5960900196 3.6330970997 3.6659187711 3.0476902371 2.9654393563 2.8937201384 2.8312413375 2.7767288255 2.7290193058 
2.6870952876 2.6500882075 2.617266536 4.7123889804 4.7123889804 4.7123889804 4.7123889804 4.7123889804 4.7123889804 
4.7123889804 4.7123889804 4.7123889804 4.6087898617 4.4991390697 4.3857031936 4.2712800401 4.1588146215 4.0509635631 
3.94975894 3.8564636551 3.7716124825 4.8159880991 4.9256388911 5.0390747672 5.1534979207 5.2659633393 5.3738143976 
5.4750190208 5.5683143056 5.6531654782 4.6087898617 4.4991390697 4.3857031936 4.2712800401 4.1588146215 4.0509635631 
3.94975894 3.8564636551 3.7716124825 4.8159880991 4.9256388911 5.0390747672 5.1534979207 5.2659633393 5.3738143976 
5.4750190208 5.5683143056 5.6531654782 1.5707963268 1.5707963268 1.5707963268 1.5707963268 1.5707963268 1.5707963268 
1.5707963268 1.5707963268 1.5707963268 1.6743954455 1.7840462375 1.8974821136 2.0119052671 2.1243706857 2.232221744 
2.3334263672 2.426721652 2.5115728246 1.4671972081 1.3575464161 1.24411054 1.1296873865 1.0172219679 0.90937090954 
0.80816628637 0.71487100155 0.63001982895 1.6743954455 1.7840462375 1.8974821136 2.0119052671 2.1243706857 2.232221744 
2.3334263672 2.426721652 2.5115728246 1.4671972081 1.3575464161 1.24411054 1.1296873865 1.0172219679 0.90937090954 
0.80816628637 0.71487100155 0.63001982895 3.6007720849 3.4966939854 3.3839471039 3.2645756454 3.1415926536 3.0186096618 
2.8992382033 2.7864913217 2.6824132222 5.8240058758 5.9280839753 6.0408308569 6.1602023154 6.2831853072 0.12298299178 
0.2423544503 0.35510133185 0.45917943135 6.0560271438 5.7885595667 5.9702140275 5.5125918794 5.6029703303 5.7885595667 
5.2659633393 5.2659633393 5.2659633393 5.2659633393 5.0674903122 5.0120975802 4.9155579264 4.7123889804 4.1588146215 
4.9155579264 4.8353719722 4.7123889804 4.5092200343 4.1588146215 3.6362183941 4.8004512023 4.7123889804 4.5894059886 
4.4126803806 4.1588146215 3.8218076305 3.4545639333 4.7123889804 4.6243267584 4.5092200343 4.3572876485 4.1588146215 
3.9121860814 3.6362183941 3.368750817 6.0174235957 5.9434319871 5.8263323547 5.8809213739 5.7674481418 5.6279784266 
5.8278025282 5.718968232 5.5891129425 5.4372443565 5.7823484065 5.678536687 5.5575666702 5.4192596322 5.2659633393 
5.743164462 5.6444075337 5.5314983644 5.4046708639 5.2659633393 5.1195510325 5.7091357773 5.6152775188 5.5096229709 
5.3926039573 5.2659633393 5.1329233157 4.9978930058 5.6793730533 5.5901633916 5.4910209005 5.3824597928 5.2659633393 
5.1440684722 5.0201624502 4.8979782167 5.5683143056 5.4750190208 5.4750190208 5.3738143976 5.3738143976 5.3738143976 
5.2659633393 5.2659633393 5.2659633393 5.2659633393 5.1534979207 5.1534979207 5.1534979207 5.1534979207 5.1534979207 
5.0390747672 5.0390747672 5.0390747672 5.0390747672 5.0390747672 5.0390747672 4.9256388911 4.9256388911 4.9256388911 
4.9256388911 4.9256388911 4.9256388911 4.9256388911 4.8159880991 4.8159880991 4.8159880991 4.8159880991 4.8159880991 
4.8159880991 4.8159880991 4.8159880991 4.6087898617 4.6087898617 4.4991390697 4.6087898617 4.4991390697 4.3857031936 
4.6087898617 4.4991390697 4.3857031936 4.2712800401 4.6087898617 4.4991390697 4.3857031936 4.2712800401 4.1588146215 
4.6087898617 4.4991390697 4.3857031936 4.2712800401 4.1588146215 4.0509635631 4.6087898617 4.4991390697 4.3857031936 
4.2712800401 4.1588146215 4.0509635631 3.94975894 4.6087898617 4.4991390697 4.3857031936 4.2712800401 4.1588146215 
4.0509635631 3.94975894 3.8564636551 4.526799744 4.4046155105 4.426884955 4.2807094886 4.2918546451 4.3052269283 
4.1588146215 4.1588146215 4.1588146215 4.1588146215 4.042318168 4.0321740035 4.0201070968 4.0055183285 3.9875336042 
3.9337570603 3.9151549899 3.8932795963 3.8672112905 3.8356650183 3.7967995342 3.8346145692 3.809500442 3.7803704271 
3.7462412737 3.7058097288 3.657329819 3.5984456061 3.7454049075 3.7156421835 3.6816134988 3.6424295543 3.5969754326 
3.5438565869 3.4813459737 3.4073543651 3.5642842451 3.4524645613 3.5233842518 3.3320300872 3.403123212 3.4773852225 
3.20576226 3.2746326772 3.348015857 3.4255060145 3.0774230472 3.1415926536 3.2112816139 3.2864685043 3.3668817272 
2.95115522 3.00855263 3.0719036933 3.1415926536 3.2178377658 3.3005964304 2.8307207459 2.8800620952 2.9351694502 
2.9967168029 3.0653475414 3.1415926536 3.225752376 2.718901062 2.7598010554 2.8058000847 2.8576792927 2.91630358 
2.9825888767 3.0574329311 3.1415926536 3.5642842451 3.5233842518 3.4524645613 3.4773852225 3.403123212 3.3320300872 
3.4255060145 3.348015857 3.2746326772 3.20576226 3.3668817272 3.2864685043 3.2112816139 3.1415926536 3.0774230472 
3.3005964304 3.2178377658 3.1415926536 3.0719036933 3.00855263 2.95115522 3.225752376 3.1415926536 3.0653475414 
2.9967168029 2.9351694502 2.8800620952 2.8307207459 3.1415926536 3.0574329311 2.9825888767 2.91630358 2.8576792927 
2.8058000847 2.7598010554 2.718901062 4.526799744 4.426884955 4.4046155105 4.3052269283 4.2918546451 4.2807094886 
4.1588146215 4.1588146215 4.1588146215 4.1588146215 3.9875336042 4.0055183285 4.0201070968 4.0321740035 4.042318168 
3.7967995342 3.8356650183 3.8672112905 3.8932795963 3.9151549899 3.9337570603 3.5984456061 3.657329819 3.7058097288 
3.7462412737 3.7803704271 3.809500442 3.8346145692 3.4073543651 3.4813459737 3.5438565869 3.5969754326 3.6424295543 
3.6816134988 3.7156421835 3.7454049075 4.7123889804 4.8004512023 4.6243267584 4.9155579264 4.7123889804 4.5092200343 
5.0674903122 4.8353719722 4.5894059886 4.3572876485 5.2659633393 5.0120975802 4.7123889804 4.4126803806 4.1588146215 
5.5125918794 5.2659633393 4.9155579264 4.5092200343 4.1588146215 3.9121860814 5.7885595667 5.6029703303 5.2659633393 
4.7123889804 4.1588146215 3.8218076305 3.6362183941 6.0560271438 5.9702140275 5.7885595667 5.2659633393 4.1588146215 
3.6362183941 3.4545639333 3.368750817 0.22715816343 0.49462574053 0.3129712797 0.77059342779 0.68021497688 0.49462574053 
1.0172219679 1.0172219679 1.0172219679 1.0172219679 1.2156949949 1.271087727 1.3676273807 1.5707963268 2.1243706857 
1.3676273807 1.447813335 1.5707963268 1.7739652728 2.1243706857 2.6469669131 1.4827341049 1.5707963268 1.6937793186 
1.8705049266 2.1243706857 2.4613776767 2.8286213739 1.5707963268 1.6588585487 1.7739652728 1.9258976586 2.1243706857 
2.3709992258 2.6469669131 2.9144344902 1.7563855631 1.8785697967 1.8563003522 2.0024758186 1.9913306621 1.9779583789 
2.1243706857 2.1243706857 2.1243706857 2.1243706857 2.2408671392 2.2510113037 2.2630782103 2.2776669786 2.295651703 
2.3494282469 2.3680303173 2.3899057108 2.4159740166 2.4475202889 2.486385773 2.448570738 2.4736848652 2.5028148801 
2.5369440334 2.5773755784 2.6258554882 2.6847397011 2.5377803997 2.5675431237 2.6015718084 2.6407557529 2.6862098746 
2.7393287203 2.8018393335 2.8758309421 1.6743954455 1.6743954455 1.7840462375 1.6743954455 1.7840462375 1.8974821136 
1.6743954455 1.7840462375 1.8974821136 2.0119052671 1.6743954455 1.7840462375 1.8974821136 2.0119052671 2.1243706857 
1.6743954455 1.7840462375 1.8974821136 2.0119052671 2.1243706857 2.232221744 1.6743954455 1.7840462375 1.8974821136 
2.0119052671 2.1243706857 2.232221744 2.3334263672 1.6743954455 1.7840462375 1.8974821136 2.0119052671 2.1243706857 
2.232221744 2.3334263672 2.426721652 1.4671972081 1.3575464161 1.4671972081 1.24411054 1.3575464161 1.4671972081 
1.1296873865 1.24411054 1.3575464161 1.4671972081 1.0172219679 1.1296873865 1.24411054 1.3575464161 1.4671972081 
0.90937090954 1.0172219679 1.1296873865 1.24411054 1.3575464161 1.4671972081 0.80816628637 0.90937090954 1.0172219679 
1.1296873865 1.24411054 1.3575464161 1.4671972081 0.71487100155 0.80816628637 0.90937090954 1.0172219679 1.1296873865 
1.24411054 1.3575464161 1.4671972081 0.60381225391 0.57404952988 0.69302191562 0.54002084522 0.66790778838 0.79216440667 
0.50083690068 0.63877777351 0.77356233629 0.90072551443 0.45538277901 0.60464862014 0.75168694275 0.89058134991 1.0172219679 
0.40226393329 0.56421707518 0.72561863695 0.87851444325 1.0172219679 1.139116835 0.33975332011 0.51573716537 0.69407236469 
0.86392567495 1.0172219679 1.1502619915 1.2630228569 0.26576171152 0.45685295248 0.6552068806 0.84594095064 1.0172219679 
1.1636342747 1.2852923014 1.3852070904 0.22715816343 0.3129712797 0.49462574053 0.49462574053 0.68021497688 0.77059342779 
1.0172219679 1.0172219679 1.0172219679 1.0172219679 2.1243706857 1.5707963268 1.3676273807 1.271087727 1.2156949949 
2.6469669131 2.1243706857 1.7739652728 1.5707963268 1.447813335 1.3676273807 2.8286213739 2.4613776767 2.1243706857 
1.8705049266 1.6937793186 1.5707963268 1.4827341049 2.9144344902 2.6469669131 2.3709992258 2.1243706857 1.9258976586 
1.7739652728 1.6588585487 1.5707963268 1.7563855631 1.8563003522 1.8785697967 1.9779583789 1.9913306621 2.0024758186 
2.1243706857 2.1243706857 2.1243706857 2.1243706857 2.295651703 2.2776669786 2.2630782103 2.2510113037 2.2408671392 
2.486385773 2.4475202889 2.4159740166 2.3899057108 2.3680303173 2.3494282469 2.6847397011 2.6258554882 2.5773755784 
2.5369440334 2.5028148801 2.4736848652 2.448570738 2.8758309421 2.8018393335 2.7393287203 2.6862098746 2.6407557529 
2.6015718084 2.5675431237 2.5377803997 5.8604937156 5.901393709 5.9723133995 5.9473927383 6.0216547488 6.0927478736 
5.9992719463 6.0767621038 6.1501452836 6.2190157008 6.0578962336 6.1383094565 6.2134963469 0 0.064169606361 
6.1241815303 6.206940195 6.2831853072 0.069688960264 0.13304002361 0.19043743361 6.1990255847 0 0.07624511221 
0.14487585072 0.20642320337 0.26153055843 0.3108719077 0 0.084159722458 0.15900377685 0.22528907359 0.28391336087 
0.3357925689 0.38179159818 0.42269159155 5.8604937156 5.9723133995 5.901393709 6.0927478736 6.0216547488 5.9473927383 
6.2190157008 6.1501452836 6.0767621038 5.9992719463 0.064169606361 0 6.2134963469 6.1383094565 6.0578962336 
0.19043743361 0.13304002361 0.069688960264 6.2831853072 6.206940195 6.1241815303 0.3108719077 0.26153055843 0.20642320337 
0.14487585072 0.07624511221 6.2831853072 6.1990255847 0.42269159155 0.38179159818 0.3357925689 0.28391336087 0.22528907359 
0.15900377685 0.084159722458 0 5.6793730533 5.7091357773 5.5901633916 5.743164462 5.6152775188 5.4910209005 
5.7823484065 5.6444075337 5.5096229709 5.3824597928 5.8278025282 5.678536687 5.5314983644 5.3926039573 5.2659633393 
5.8809213739 5.718968232 5.5575666702 5.4046708639 5.2659633393 5.1440684722 5.9434319871 5.7674481418 5.5891129425 
5.4192596322 5.2659633393 5.1329233157 5.0201624502 6.0174235957 5.8263323547 5.6279784266 5.4372443565 5.2659633393 
5.1195510325 4.9978930058 4.8979782167 1.3852070904 1.2852923014 1.2630228569 1.1636342747 1.1502619915 1.139116835 
1.0172219679 1.0172219679 1.0172219679 1.0172219679 0.84594095064 0.86392567495 0.87851444325 0.89058134991 0.90072551443 
0.6552068806 0.69407236469 0.72561863695 0.75168694275 0.77356233629 0.79216440667 0.45685295248 0.51573716537 0.56421707518 
0.60464862014 0.63877777351 0.66790778838 0.69302191562 0.26576171152 0.33975332011 0.40226393329 0.45538277901 0.50083690068 
0.54002084522 0.57404952988 0.60381225391 
_paraPhiHalf 1 1002 double
0 3.1415926536 0 3.1415926536 1.5707963268 1.5707963268 1.5707963268 1.5707963268 2.5880182947 
0.5535743589 2.5880182947 0.5535743589 0 0 0 0 3.1415926536 3.1415926536 
3.1415926536 3.1415926536 3.1415926536 0.17788134 0.38438696014 0.60631181711 0.82323535693 1.0172219679 1.1799687454 
1.3118704726 1.4175000338 1.5022335207 0.17788134 0.38438696014 0.60631181711 0.82323535693 1.0172219679 1.1799687454 
1.3118704726 1.4175000338 1.5022335207 0.093902416448 0.17615329733 0.2478725152 0.31035131605 0.36486382811 0.41257334776 
0.45449736604 0.4915044461 0.52432611754 0.093902416448 0.17615329733 0.2478725152 0.31035131605 0.36486382811 0.41257334776 
0.45449736604 0.4915044461 0.52432611754 2.9637113136 2.7572056934 2.5352808365 2.3183572967 2.1243706857 1.9616239082 
1.829722181 1.7240926197 1.6393591329 2.9637113136 2.7572056934 2.5352808365 2.3183572967 2.1243706857 1.9616239082 
1.829722181 1.7240926197 1.6393591329 3.0476902371 2.9654393563 2.8937201384 2.8312413375 2.7767288255 2.7290193058 
2.6870952876 2.6500882075 2.617266536 3.0476902371 2.9654393563 2.8937201384 2.8312413375 2.7767288255 2.7290193058 
2.6870952876 2.6500882075 2.617266536 0 0 0 0 3.1415926536 3.1415926536 
3.1415926536 3.1415926536 3.1415926536 0.17788134 0.38438696014 0.60631181711 0.82323535693 1.0172219679 1.1799687454 
1.3118704726 1.4175000338 1.5022335207 0.17788134 0.38438696014 0.60631181711 0.82323535693 1.0172219679 1.1799687454 
1.3118704726 1.4175000338 1.5022335207 0.093902416448 0.17615329733 0.2478725152 0.31035131605 0.36486382811 0.41257334776 
0.45449736604 0.4915044461 0.52432611754 0.093902416448 0.17615329733 0.2478725152 0.31035131605 0.36486382811 0.41257334776 
0.45449736604 0.4915044461 0.52432611754 2.9637113136 2.7572056934 2.5352808365 2.3183572967 2.1243706857 1.9616239082 
1.829722181 1.7240926197 1.6393591329 2.9637113136 2.7572056934 2.5352808365 2.3183572967 2.1243706857 1.9616239082 
1.829722181 1.7240926197 1.6393591329 3.0476902371 2.9654393563 2.8937201384 2.8312413375 2.7767288255 2.7290193058 
2.6870952876 2.6500882075 2.617266536 3.0476902371 2.9654393563 2.8937201384 2.8312413375 2.7767288255 2.7290193058 
2.6870952876 2.6500882075 2.617266536 1.5707963268 1.5707963268 1.5707963268 1.5707963268 1.5707963268 1.5707963268 
1.5707963268 1.5707963268 1.5707963268 1.6743954455 1.7840462375 1.8974821136 2.0119052671 2.1243706857 2.232221744 
2.3334263672 2.426721652 2.5115728246 1.4671972081 1.3575464161 1.24411054 1.1296873865 1.0172219679 0.90937090954 
0.80816628637 0.71487100155 0.63001982895 1.6743954455 1.7840462375 1.8974821136 2.0119052671 2.1243706857 2.232221744 
2.3334263672 2.426721652 2.5115728246 1.4671972081 1.3575464161 1.24411054 1.1296873865 1.0172219679 0.90937090954 
0.80816628637 0.71487100155 0.63001982895 1.5707963268 1.5707963268 1.5707963268 1.5707963268 1.5707963268 1.5707963268 
1.5707963268 1.5707963268 1.5707963268 1.6743954455 1.7840462375 1.8974821136 2.0119052671 2.1243706857 2.232221744 
2.3334263672 2.426721652 2.5115728246 1.4671972081 1.3575464161 1.24411054 1.1296873865 1.0172219679 0.90937090954 
0.80816628637 0.71487100155 0.63001982895 1.6743954455 1.7840462375 1.8974821136 2.0119052671 2.1243706857 2.232221744 
2.3334263672 2.426721652 2.5115728246 1.4671972081 1.3575464161 1.24411054 1.1296873865 1.0172219679 0.90937090954 
0.80816628637 0.71487100155 0.63001982895 2.6824132222 2.7864913217 2.8992382033 3.0186096618 3.1415926536 3.0186096618 
2.8992382033 2.7864913217 2.6824132222 0.45917943135 0.35510133185 0.2423544503 0.12298299178 0 0.12298299178 
0.2423544503 0.35510133185 0.45917943135 0.22715816343 0.49462574053 0.3129712797 0.77059342779 0.68021497688 0.49462574053 
1.0172219679 1.0172219679 1.0172219679 1.0172219679 1.2156949949 1.271087727 1.3676273807 1.5707963268 2.1243706857 
1.3676273807 1.447813335 1.5707963268 1.7739652728 2.1243706857 2.6469669131 1.4827341049 1.5707963268 1.6937793186 
1.8705049266 2.1243706857 2.4613776767 2.8286213739 1.5707963268 1.6588585487 1.7739652728 1.9258976586 2.1243706857 
2.3709992258 2.6469669131 2.9144344902 0.26576171152 0.33975332011 0.45685295248 0.40226393329 0.51573716537 0.6552068806 
0.45538277901 0.56421707518 0.69407236469 0.84594095064 0.50083690068 0.60464862014 0.72561863695 0.86392567495 1.0172219679 
0.54002084522 0.63877777351 0.75168694275 0.87851444325 1.0172219679 1.1636342747 0.57404952988 0.66790778838 0.77356233629 
0.89058134991 1.0172219679 1.1502619915 1.2852923014 0.60381225391 0.69302191562 0.79216440667 0.90072551443 1.0172219679 
1.139116835 1.2630228569 1.3852070904 0.71487100155 0.80816628637 0.80816628637 0.90937090954 0.90937090954 0.90937090954 
1.0172219679 1.0172219679 1.0172219679 1.0172219679 1.1296873865 1.1296873865 1.1296873865 1.1296873865 1.1296873865 
1.24411054 1.24411054 1.24411054 1.24411054 1.24411054 1.24411054 1.3575464161 1.3575464161 1.3575464161 
1.3575464161 1.3575464161 1.3575464161 1.3575464161 1.4671972081 1.4671972081 1.4671972081 1.4671972081 1.4671972081 
1.4671972081 1.4671972081 1.4671972081 1.6743954455 1.6743954455 1.7840462375 1.6743954455 1.7840462375 1.8974821136 
1.6743954455 1.7840462375 1.8974821136 2.0119052671 1.6743954455 1.7840462375 1.8974821136 2.0119052671 2.1243706857 
1.6743954455 1.7840462375 1.8974821136 2.0119052671 2.1243706857 2.232221744 1.6743954455 1.7840462375 1.8974821136 
2.0119052671 2.1243706857 2.232221744 2.3334263672 1.6743954455 1.7840462375 1.8974821136 2.0119052671 2.1243706857 
2.232221744 2.3334263672 2.426721652 1.7563855631 1.8785697967 1.8563003522 2.0024758186 1.9913306621 1.9779583789 
2.1243706857 2.1243706857 2.1243706857 2.1243706857 2.2408671392 2.2510113037 2.2630782103 2.2776669786 2.295651703 
2.3494282469 2.3680303173 2.3899057108 2.4159740166 2.4475202889 2.486385773 2.448570738 2.4736848652 2.5028148801 
2.5369440334 2.5773755784 2.6258554882 2.6847397011 2.5377803997 2.5675431237 2.6015718084 2.6407557529 2.6862098746 
2.7393287203 2.8018393335 2.8758309421 2.718901062 2.8307207459 2.7598010554 2.95115522 2.8800620952 2.8058000847 
3.0774230472 3.00855263 2.9351694502 2.8576792927 3.0774230472 3.1415926536 3.0719036933 2.9967168029 2.91630358 
2.95115522 3.00855263 3.0719036933 3.1415926536 3.0653475414 2.9825888767 2.8307207459 2.8800620952 2.9351694502 
2.9967168029 3.0653475414 3.1415926536 3.0574329311 2.718901062 2.7598010554 2.8058000847 2.8576792927 2.91630358 
2.9825888767 3.0574329311 3.1415926536 2.718901062 2.7598010554 2.8307207459 2.8058000847 2.8800620952 2.95115522 
2.8576792927 2.9351694502 3.00855263 3.0774230472 2.91630358 2.9967168029 3.0719036933 3.1415926536 3.0774230472 
2.9825888767 3.0653475414 3.1415926536 3.0719036933 3.00855263 2.95115522 3.0574329311 3.1415926536 3.0653475414 