# vtk DataFile Version 5.1
vtk output
ASCII
DATASET POLYDATA
POINTS 100 float
26.6039 40.044 11.8324 26.5901 40.0421 11.8399 26.5483 40.0324 11.8586 
26.4802 40.0143 11.8878 26.3886 39.9864 11.9266 26.277 39.9473 11.9734 
26.1493 39.8956 12.0265 26.0097 39.83 12.0842 25.8621 39.7495 12.1445 
25.7099 39.6537 12.2056 25.5558 39.543 12.2659 25.4018 39.418 12.3242 
25.2488 39.2803 12.3793 25.0971 39.1318 12.4308 24.946 38.9745 12.4785 
24.7945 38.811 12.5226 24.6412 38.6432 12.5638 24.4847 38.4732 12.6028 
24.3237 38.3026 12.6406 24.157 38.1323 12.6781 23.9842 37.963 12.7161 
23.805 37.7949 12.7553 23.6196 37.6276 12.7959 23.4285 37.4608 12.838 
23.2326 37.2939 12.8812 23.0327 37.1266 12.9252 22.8296 36.9584 12.9693 
22.6239 36.7894 13.013 22.4161 36.6198 13.0559 22.2064 36.4499 13.098 
21.9946 36.2805 13.1397 21.7805 36.112 13.1818 21.5638 35.9452 13.2255 
21.3442 35.7806 13.2726 21.1218 35.6183 13.3251 20.8965 35.4583 13.3849 
20.6688 35.3004 13.4541 20.4394 35.1441 13.5341 20.2092 34.9886 13.6262 
19.9794 34.8332 13.7307 19.7509 34.6772 13.8473 19.525 34.5201 13.9748 
19.3022 34.3615 14.1114 19.0831 34.2015 14.2548 18.8676 34.0402 14.4022 
18.6552 33.8781 14.5509 18.4451 33.7158 14.6982 18.2359 33.5538 14.8421 
18.0264 33.3928 14.9811 17.815 33.233 15.1144 17.6004 33.0745 15.2421 
17.3816 32.9171 15.3651 17.158 32.7602 15.4847 16.9297 32.6028 15.603 
16.697 32.4439 15.722 16.461 32.2822 15.8437 16.223 32.1168 15.9696 
15.9848 31.9464 16.1009 15.7478 31.7706 16.2381 15.5136 31.5888 16.3809 
15.2833 31.4013 16.5283 15.0575 31.2085 16.679 14.8363 31.0111 16.8311 
14.6189 30.8104 16.9828 14.4042 30.6077 17.1323 14.1904 30.4042 17.2782 
13.9754 30.2013 17.4195 13.7571 30.0002 17.5558 13.5333 29.8019 17.6873 
13.3025 29.6071 17.8148 13.0633 29.4163 17.9392 12.8152 29.2301 18.0619 
12.5584 29.0486 18.1842 12.2938 28.8719 18.307 12.0229 28.7003 18.4311 
11.7476 28.5338 18.5566 11.4702 28.3724 18.6835 11.1932 28.2162 18.8109 
10.9186 28.0651 18.9378 10.6484 27.9188 19.0631 10.3839 27.7768 19.1856 
10.1259 27.6386 19.3043 9.87462 27.5031 19.4185 9.62981 27.3693 19.5279 
9.39082 27.2358 19.6327 9.15682 27.1017 19.7335 8.92706 26.9656 19.831 
8.70104 26.8271 19.9263 8.47876 26.686 20.02 8.26089 26.5426 20.1127 
8.04884 26.3983 20.2044 7.84481 26.2551 20.2945 7.65173 26.1158 20.3817 
7.47309 25.9836 20.4644 7.31277 25.8625 20.5403 7.17472 25.7562 20.6067 
7.06273 25.6686 20.6612 6.98011 25.603 20.7015 6.92944 25.5619 20.7256 
6.91235 25.5471 20.7325 
LINES 2 100
OFFSETS vtktypeint64
0 100 
CONNECTIVITY vtktypeint64
0 1 2 3 4 5 6 7 8 
9 10 11 12 13 14 15 16 17 
18 19 20 21 22 23 24 25 26 
27 28 29 30 31 32 33 34 35 
36 37 38 39 40 41 42 43 44 
45 46 47 48 49 50 51 52 53 
54 55 56 57 58 59 60 61 62 
63 64 65 66 67 68 69 70 71 
72 73 74 75 76 77 78 79 80 
81 82 83 84 85 86 87 88 89 
90 91 92 93 94 95 96 97 98 
99 
POINT_DATA 100
FIELD FieldData 3
_theta 1 100 double
0 0.031733259127 0.063466518254 0.095199777382 0.12693303651 0.15866629564 0.19039955476 0.22213281389 0.25386607302 
0.28559933214 0.31733259127 0.3490658504 0.38079910953 0.41253236865 0.44426562778 0.47599888691 0.50773214603 0.53946540516 
0.57119866429 0.60293192342 0.63466518254 0.66639844167 0.6981317008 0.72986495992 0.76159821905 0.79333147818 0.82506473731 
0.85679799643 0.88853125556 0.92026451469 0.95199777382 0.98373103294 1.0154642921 1.0471975512 1.0789308103 1.1106640695 
1.1423973286 1.1741305877 1.2058638468 1.237597106 1.2693303651 1.3010636242 1.3327968833 1.3645301425 1.3962634016 
1.4279966607 1.4597299198 1.491463179 1.5231964381 1.5549296972 1.5866629564 1.6183962155 1.6501294746 1.6818627337 
1.7135959929 1.745329252 1.7770625111 1.8087957702 1.8405290294 1.8722622885 1.9039955476 1.9357288068 1.9674620659 
1.999195325 2.0309285841 2.0626618433 2.0943951024 2.1261283615 2.1578616206 2.1895948798 2.2213281389 2.253061398 
2.2847946572 2.3165279163 2.3482611754 2.3799944345 2.4117276937 2.4434609528 2.4751942119 2.506927471 2.5386607302 
2.5703939893 2.6021272484 2.6338605076 2.6655937667 2.6973270258 2.7290602849 2.7607935441 2.7925268032 2.8242600623 
2.8559933214 2.8877265806 2.9194598397 2.9511930988 2.982926358 3.0146596171 3.0463928762 3.0781261353 3.1098593945 
3.1415926536 
_radius 1 100 double
1.1980865174e-13 0.28289346082 0.561346171 0.8315646842 1.0910892678 1.3391108638 1.5764359904 1.8051104475 2.0278081901 
2.2471618562 2.4652179212 2.6831339359 2.9011319041 3.1186350969 3.3344829225 3.5471400093 3.7548639109 3.9558395891 
4.1483096675 4.3307245843 4.5019142816 4.6612560464 4.8087946872 4.9452702736 5.0720269233 5.1908075443 5.3034723302 
5.4117004965 5.516737384 5.6192336693 5.7191987591 5.8160668967 5.9088577701 5.996403161 6.0776045596 6.1516823676 
6.2183764438 6.2780623003 6.3317581393 6.3810143679 6.4276969663 6.4736956879 6.5206032107 6.5694177553 6.6203170665 
6.6725375609 6.7243740984 6.7732993126 6.8161898983 6.8496395324 6.8703308008 6.8754296946 6.8629572917 6.8320877248 
6.7833229825 6.7185054885 6.6406489915 6.5535956383 6.4615388665 6.3684821122 6.2777235076 6.191456525 6.1105500402 
6.0345251396 5.9617005618 5.8894551827 5.8145595412 5.7335453607 5.6430938689 5.5404218446 5.4236327907 5.2919896589 
5.1460636914 4.9877243928 4.8199564953 4.6465164829 4.4714685698 4.2986629618 4.1312330313 3.9711888469 3.8191707006 
3.6743999204 3.5348309162 3.3974748352 3.2588369429 3.1153913078 2.9640114335 2.8022859613 2.6286728068 2.4424798741 
2.2437011643 2.0327732989 1.8103342618 1.5770565797 1.3335986545 1.0806806498 0.8192497397 0.55066186012 0.27679119477 
4.7980789593e-14 
_area 1 100 double
0 0.24393873789 0.96002130081 2.10536596 3.6213720954 5.448269241 7.5379443248 9.8613718686 12.409548334 
15.189326539 18.21661758 21.508966829 25.078496499 28.925629681 33.034139588 37.368457192 41.874103858 46.48130081 
51.110835739 55.681087474 60.115792779 64.352567119 68.351503212 72.101979547 75.625324877 78.971668427 82.210809087 
85.418609447 88.661646845 91.983330216 95.394535364 98.871136079 102.35935859 105.78766649 109.08185297 112.17943171 
115.04053921 117.6542562 120.04008391 122.24437219 124.33210328 126.37563474 128.44259898 130.58469762 132.82820887 
135.16631324 137.55311503 139.89963117 142.07333775 143.90487337 145.20567967 145.79602232 145.53697801 144.35803059 
142.27387254 139.38689834 135.87475658 131.96549762 127.90555009 123.92618315 120.21214193 116.87513668 113.93813593 
111.33907673 108.95435685 106.62991427 104.20795852 101.54623298 98.531397954 95.088259795 91.185719205 86.839431664 
82.110433441 77.098886618 71.932838298 66.753140486 61.696837133 56.881837658 52.395359208 48.287564271 44.570070004 
41.21642639 38.160679333 35.29929176 32.511902941 29.695396601 26.78862295 23.781247837 20.710327587 17.64721021 
14.677595017 11.880243261 9.3122481752 7.007271296 4.9854741666 3.2663233714 1.8761320658 0.84775439135 0.21420205684 
1.8230291409e-13 
