# vtk DataFile Version 5.1
vtk output
ASCII
DATASET POLYDATA
POINTS 1002 float
-6.56877 -0.248934 -4.90377 5.95455 -0.348605 -3.84536 -5.34058 0.142828 4.11805 
5.07384 -0.173387 3.1912 0.54267 7.6375 -1.48056 1.01578 8.90089 4.07617 
-0.027288 -7.64797 -1.56483 0.874988 -9.24563 4.67232 12.1178 5.9769 0.23236 
-12.5724 5.44159 -1.9207 10.055 -5.49438 -1.10857 -8.92765 -5.2945 -0.432402 
-5.6002 -0.328047 -4.59055 -4.44827 -0.347463 -4.12369 -3.10731 -0.323209 -3.71863 
-1.63565 -0.287631 -3.49412 -0.125361 -0.255947 -3.33473 1.34876 -0.234442 -3.19794 
2.72489 -0.243162 -3.26914 3.95086 -0.287883 -3.57214 5.01682 -0.335882 -3.83323 
-6.29187 0.502056 -4.75659 -5.82041 1.31455 -4.59143 -5.23807 2.18177 -4.32309 
-4.68292 3.04615 -3.82135 -4.1532 3.84962 -3.04695 -3.44556 4.6097 -2.11533 
-2.43241 5.38644 -1.2904 -1.27612 6.18872 -0.887025 -0.244281 6.96067 -1.01811 
-6.11383 -1.09095 -4.92911 -5.50182 -2.01302 -4.91074 -4.80662 -2.94542 -4.72508 
-4.09049 -3.81694 -4.32315 -3.34088 -4.60814 -3.81465 -2.56568 -5.32672 -3.33107 
-1.84717 -5.97358 -2.88395 -1.21929 -6.5641 -2.42946 -0.625766 -7.12278 -1.97353 
-7.37412 0.350319 -4.95709 -8.28789 1.02145 -4.86883 -9.34729 1.76542 -4.63297 
-10.4508 2.63265 -4.35802 -11.4527 3.62983 -4.22883 -12.3223 4.59955 -4.25193 
-13.0066 5.29571 -4.14561 -13.3071 5.59895 -3.65911 -13.1147 5.59079 -2.84474 
-7.20057 -0.64808 -5.02851 -7.76033 -1.08367 -4.94388 -8.29494 -1.57665 -4.69929 
-8.84952 -2.14673 -4.42328 -9.29528 -2.78856 -4.09551 -9.43966 -3.47725 -3.55201 
-9.32976 -4.1583 -2.78012 -9.17976 -4.73074 -1.94478 -9.06927 -5.10855 -1.1581 
5.62006 0.435182 -3.61105 5.18426 1.36757 -3.27189 4.70354 2.36214 -3.04558 
4.22013 3.31649 -2.94668 3.68915 4.22947 -2.70405 3.05866 5.15634 -2.2511 
2.38776 6.0488 -1.90382 1.76135 6.77704 -1.80817 1.16552 7.28721 -1.73451 
5.62923 -1.05326 -3.9309 5.17646 -1.77867 -3.78128 4.57641 -2.55501 -3.46363 
3.84759 -3.34548 -3.07123 3.05257 -4.09774 -2.65909 2.24807 -4.84344 -2.28826 
1.48322 -5.62699 -2.00982 0.835043 -6.39399 -1.80971 0.347947 -7.06743 -1.66083 
6.70153 0.163571 -3.5428 7.49339 0.812307 -3.10563 8.27349 1.57399 -2.73132 
8.99583 2.42527 -2.51106 9.71418 3.36204 -2.32971 10.5245 4.32139 -2.06571 
11.3651 5.13715 -1.697 12.0038 5.66604 -1.18198 12.2563 5.91043 -0.49998 
6.70251 -0.766234 -3.75297 7.52685 -1.14957 -3.53671 8.41832 -1.5456 -3.49329 
9.26355 -2.05827 -3.79786 9.93147 -2.70303 -4.12504 10.4074 -3.37015 -4.00838 
10.7002 -3.98044 -3.4307 10.7366 -4.54306 -2.66604 10.488 -5.05992 -1.87487 
-4.33885 0.132066 4.29317 -3.36455 0.0694817 4.3042 -2.45301 -0.0333212 4.14896 
-1.48157 -0.100148 3.95309 -0.317107 -0.0720866 3.86924 0.951427 0.00302422 3.87991 
2.12997 0.0283491 3.82952 3.17981 -0.0240816 3.65398 4.16283 -0.108257 3.42079 
-5.1199 0.945044 4.20063 -4.8468 1.81628 4.24383 -4.49625 2.7133 4.16807 
-3.99464 3.60363 4.04584 -3.2578 4.51535 3.98979 -2.32965 5.493 3.99152 
-1.37093 6.50177 4.0271 -0.483332 7.4441 4.11844 0.319109 8.24988 4.18777 
-4.92802 -0.638364 4.28747 -4.54329 -1.48171 4.63228 -4.1905 -2.43747 4.99835 
-3.76262 -3.51199 5.12911 -3.13985 -4.59678 4.98638 -2.34264 -5.59149 4.79322 
-1.48765 -6.53531 4.70983 -0.645899 -7.49438 4.70771 0.155923 -8.42852 4.71114 
-6.24829 0.646586 3.91367 -7.18811 1.22076 3.67597 -8.118 1.81454 3.37524 
-9.12989 2.37652 3.05314 -10.2606 2.92365 2.74923 -11.2886 3.4814 2.29175 
-11.9745 4.01176 1.44227 -12.3443 4.49398 0.267983 -12.5332 4.96697 -0.924684 
-6.10162 -0.367834 3.89653 -6.88464 -0.936735 3.62616 -7.61413 -1.52042 3.31382 
-8.21943 -2.08181 2.92745 -8.6578 -2.62472 2.47026 -8.9384 -3.18315 1.9689 
-9.1067 -3.76934 1.40934 -9.17515 -4.3491 0.788168 -9.11531 -4.86976 0.157618 
4.79123 0.696192 3.18983 4.44657 1.66556 3.17108 4.10085 2.69806 3.27618 
3.75735 3.74838 3.54077 3.34233 4.78216 3.79782 2.82487 5.76391 3.86748 
2.28672 6.65675 3.79823 1.81274 7.46115 3.78524 1.40199 8.20862 3.91076 
4.69831 -0.986121 3.20851 4.17861 -1.8694 3.07543 3.60582 -2.83797 2.95353 
3.06162 -3.86579 3.04523 2.55648 -4.90555 3.33317 2.12827 -5.94039 3.6823 
1.85117 -6.9533 4.07539 1.66291 -7.87601 4.47768 1.37326 -8.64158 4.71732 
5.76095 0.337314 2.94088 6.38083 0.971876 2.59337 6.9816 1.7372 2.19062 
7.74663 2.60108 1.86289 8.84044 3.45762 1.79501 10.1328 4.15233 1.95943 
11.2374 4.63574 2.00681 11.8944 5.0359 1.65364 12.1384 5.48789 0.979664 
5.75361 -0.719716 2.98726 6.37167 -1.27773 2.66616 6.87984 -1.84662 2.20783 
7.39746 -2.46603 1.68563 8.0552 -3.16087 1.20875 8.74558 -3.86704 0.807294 
9.27701 -4.47061 0.424527 9.64437 -4.92128 -0.0104708 9.91526 -5.24932 -0.530741 
0.525038 8.22544 -1.50236 0.472329 8.91106 -1.2645 0.455689 9.76449 -0.77867 
0.52775 10.7111 -0.235747 0.700051 11.4577 0.31069 0.938739 11.6829 1.0957 
1.14697 11.3181 2.19443 1.22315 10.5701 3.24404 1.15687 9.7089 3.87229 
1.56599 8.03465 -2.23215 2.54098 8.3055 -2.7214 3.64202 8.41011 -2.64781 
5.03958 8.39232 -2.19603 6.66984 8.32601 -1.77612 8.26246 8.22472 -1.46362 
9.60628 7.98983 -1.10147 10.6744 7.50055 -0.672463 11.5107 6.77643 -0.228788 
-0.662781 7.53741 -0.815233 -2.09429 7.46435 -0.418173 -3.53716 7.55474 -0.577219 
-4.86055 7.84924 -1.19589 -6.21763 8.11784 -1.89293 -7.76479 8.013 -2.38735 
-9.33945 7.47069 -2.61872 -10.6873 6.74094 -2.60094 -11.7494 6.04929 -2.35254 
1.86976 8.97274 3.61783 2.74056 8.86079 3.00347 3.77802 8.67427 2.49718 
5.08275 8.54541 2.1997 6.47781 8.44421 1.9299 7.71239 8.17876 1.56753 
8.8571 7.66624 1.21978 10.0916 7.04915 0.935351 11.2807 6.48286 0.619587 
0.143128 9.10176 4.26948 -0.953115 9.0229 4.20574 -2.2782 8.61926 3.85702 
-3.84698 7.99809 3.26277 -5.62918 7.33192 2.40565 -7.40261 6.73171 1.32931 
-8.91496 6.24009 0.269814 -10.1948 5.87745 -0.586971 -11.4153 5.63139 -1.2855 
0.133723 -8.35289 -1.26987 0.255476 -9.19933 -0.925899 0.242556 -10.1617 -0.50256 
0.114716 -11.0395 0.0763134 0.0584133 -11.5427 0.881115 0.213436 -11.5604 1.88539 
0.497296 -11.2232 2.93435 0.741965 -10.685 3.81732 0.866888 -10.01 4.39545 
0.845275 -7.79235 -1.30733 1.85954 -7.85743 -1.22492 3.01273 -7.84922 -1.31291 
4.19898 -7.89657 -1.52264 5.28696 -8.05849 -1.80542 6.32509 -8.11681 -2.03873 
7.4524 -7.79253 -2.03205 8.5904 -7.09686 -1.75303 9.49606 -6.26779 -1.38566 
-0.812223 -7.90193 -1.805 -1.79016 -8.2216 -2.16008 -2.93459 -8.61418 -2.46557 
-4.04297 -8.91375 -2.52281 -4.97169 -8.83482 -2.27031 -5.82507 -8.28763 -1.8231 
-6.71985 -7.49922 -1.34974 -7.58338 -6.71971 -0.958195 -8.31724 -6.00148 -0.665135 
1.8548 -9.633 4.64721 2.70508 -9.8908 4.40095 3.51778 -9.85901 3.82698 
4.48004 -9.49566 2.92433 5.59034 -8.97794 1.88128 6.64314 -8.48049 1.00613 
7.55367 -7.93677 0.435103 8.41598 -7.21427 -0.000830407 9.27114 -6.35422 -0.511009 
-0.306873 -9.31851 4.44036 -1.73684 -9.38381 4.11997 -3.1129 -9.35701 3.80073 
-4.17358 -9.07512 3.37233 -4.96428 -8.46963 2.71874 -5.74899 -7.67402 1.9901 
-6.65705 -6.91255 1.36511 -7.5704 -6.30712 0.786997 -8.33434 -5.80849 0.169785 
12.6037 5.12109 0.270247 12.6566 4.10657 0.22516 12.4448 2.96317 -0.0194703 
12.3359 1.78594 -0.460871 12.3881 0.576471 -0.971906 12.2833 -0.751151 -1.42227 
11.8739 -2.14056 -1.68518 11.3157 -3.41353 -1.65702 10.7159 -4.50827 -1.3983 
-13.6283 4.9013 -1.95402 -14.3197 4.15479 -1.89279 -14.3017 3.19289 -1.69066 
-13.6703 2.13272 -1.36778 -12.9118 1.01994 -1.05074 -12.2494 -0.259421 -0.8616 
-11.4891 -1.72711 -0.795926 -10.5648 -3.17584 -0.747923 -9.67063 -4.38344 -0.62732 
-5.23698 0.450073 -4.35761 -4.70269 1.27756 -4.12565 -4.01293 0.435306 -3.88245 
-4.0667 2.13837 -3.77277 -3.39119 1.26881 -3.61922 -2.55847 0.449886 -3.56102 
-3.41017 2.9957 -3.16636 -2.59878 2.15205 -3.1901 -1.76003 1.29701 -3.31795 
-0.92762 0.473281 -3.42259 -2.68015 3.84451 -2.3491 -1.73247 3.06762 -2.57516 
-0.773847 2.22622 -2.93491 0.0267225 1.32613 -3.26087 0.695065 0.488732 -3.31589 
-1.74292 4.72248 -1.56744 -0.839787 4.00685 -1.9501 0.166839 3.20081 -2.52695 
1.02068 2.27319 -3.07711 1.63007 1.32773 -3.29046 2.16128 0.490431 -3.26124 
-0.643636 5.63652 -1.14568 0.0982216 4.96938 -1.54157 0.964964 4.17803 -2.19483 
1.80355 3.26052 -2.90413 2.4453 2.27526 -3.2716 2.94723 1.32889 -3.31537 
3.45153 0.477422 -3.38192 0.38194 6.52109 -1.25157 1.01071 5.9201 -1.50253 
1.70212 5.13959 -1.96656 2.43045 4.23135 -2.62817 3.07566 3.2719 -3.1106 
3.60638 2.30392 -3.24206 4.10587 1.35035 -3.32428 4.59789 0.454767 -3.56993 
-7.06511 1.1617 -4.87447 -8.01531 1.91453 -4.75897 -6.54654 2.07015 -4.68416 
-9.16253 2.76577 -4.41207 -7.51262 2.93408 -4.40457 -5.94905 3.04295 -4.2539 
-10.2864 3.71962 -4.11255 -8.63628 3.85784 -3.89095 -6.86154 3.99164 -3.74065 
-5.4014 3.96377 -3.54429 -11.1599 4.70556 -4.11691 -9.57692 4.78133 -3.64731 
-7.75794 4.91505 -3.17892 -6.14287 4.92495 -2.93855 -4.80905 4.75001 -2.64797 
-11.7721 5.54408 -4.20721 -10.171 5.64869 -3.81612 -8.36075 5.76675 -3.13104 
-6.69481 5.81714 -2.54774 -5.31138 5.66086 -2.14164 -3.9477 5.44396 -1.6992 
-12.1196 6.04874 -3.94228 -10.5457 6.34798 -3.87064 -8.74137 6.56604 -3.38788 
-7.03368 6.6582 -2.66807 -5.62249 6.52043 -1.95226 -4.29775 6.26456 -1.33843 
-2.81356 6.13227 -0.934883 -12.1062 6.17635 -3.24059 -10.7451 6.72417 -3.40843 
-9.08871 7.19891 -3.26494 -7.37334 7.45553 -2.78204 -5.8852 7.36453 -2.03628 
-4.57854 7.06133 -1.22983 -3.17493 6.84421 -0.680852 -1.64974 6.84166 -0.63349 
-10.5746 6.3276 -1.64699 -9.33017 6.67695 -0.808155 -9.52814 7.20659 -1.7431 
-7.8687 7.09797 0.224878 -8.18804 7.66692 -0.682431 -8.15284 8.08671 -1.58953 
-6.04419 7.61255 1.37797 -6.44647 8.07511 0.475574 -6.66305 8.53168 -0.390942 
-6.54678 8.57779 -1.28329 -4.06709 8.29409 2.43346 -4.37237 8.59784 1.4983 
-4.7488 8.89794 0.62949 -5.00854 8.93603 -0.193308 -5.0163 8.53323 -0.861697 
-2.30067 9.09376 3.26326 -2.40112 9.41581 2.28123 -2.7143 9.5634 1.24887 
-3.18045 9.445 0.443122 -3.5389 8.97986 -0.0988334 -3.63039 8.27895 -0.413823 
-0.871459 9.73193 3.82058 -0.839344 10.2927 2.87689 -1.00874 10.551 1.65018 
-1.42889 10.3855 0.666634 -1.91129 9.79853 0.136918 -2.19226 8.9744 -0.113213 
[...]
POINT_DATA 1002
FIELD FieldData 4
_paraPhi 1 1002 double
6.2831853072 3.1415926536 6.2831853072 3.1415926536 4.7123889804 4.7123889804 1.5707963268 1.5707963268 3.6951670125 
5.7296109483 2.5880182947 0.5535743589 6.2831853072 6.2831853072 6.2831853072 6.2831853072 3.1415926536 3.1415926536 
3.1415926536 3.1415926536 3.1415926536 6.1053039672 5.898798347 5.6768734901 5.4599499503 5.2659633393 5.1032165617 
4.9713148346 4.8656852733 4.7809517865 0.17788134 0.38438696014 0.60631181711 0.82323535693 1.0172219679 1.1799687454 
1.3118704726 1.4175000338 1.5022335207 6.1892828907 6.1070320098 6.035312792 5.9728339911 5.9183214791 5.8706119594 
5.8286879411 5.7916808611 5.7588591896 0.093902416448 0.17615329733 0.2478725152 0.31035131605 0.36486382811 0.41257334776 
0.45449736604 0.4915044461 0.52432611754 3.3194739936 3.5259796137 3.7479044707 3.9648280105 4.1588146215 4.321561399 
4.4534631262 4.5590926874 4.6438261743 2.9637113136 2.7572056934 2.5352808365 2.3183572967 2.1243706857 1.9616239082 
1.829722181 1.7240926197 1.6393591329 3.23549507 3.3177459509 3.3894651688 3.4519439696 3.5064564817 3.5541660013 
3.5960900196 3.6330970997 3.6659187711 3.0476902371 2.9654393563 2.8937201384 2.8312413375 2.7767288255 2.7290193058 
2.6870952876 2.6500882075 2.617266536 6.2831853072 6.2831853072 6.2831853072 6.2831853072 3.1415926536 3.1415926536 
3.1415926536 3.1415926536 3.1415926536 6.1053039672 5.898798347 5.6768734901 5.4599499503 5.2659633393 5.1032165617 
4.9713148346 4.8656852733 4.7809517865 0.17788134 0.38438696014 0.60631181711 0.82323535693 1.0172219679 1.1799687454 
1.3118704726 1.4175000338 1.5022335207 6.1892828907 6.1070320098 6.035312792 5.9728339911 5.9183214791 5.8706119594 
5.8286879411 5.7916808611 5.7588591896 0.093902416448 0.17615329733 0.2478725152 0.31035131605 0.36486382811 0.41257334776 
0.45449736604 0.4915044461 0.52432611754 3.3194739936 3.5259796137 3.7479044707 3.9648280105 4.1588146215 4.321561399 
4.4534631262 4.5590926874 4.6438261743 2.9637113136 2.7572056934 2.5352808365 2.3183572967 2.1243706857 1.9616239082 
1.829722181 1.7240926197 1.6393591329 3.23549507 3.3177459509 3.3894651688 3.4519439696 3.5064564817 3.5541660013 
3.5960900196 3.6330970997 3.6659187711 3.0476902371 2.9654393563 2.8937201384 2.8312413375 2.7767288255 2.7290193058 
2.6870952876 2.6500882075 2.617266536 4.7123889804 4.7123889804 4.7123889804 4.7123889804 4.7123889804 4.7123889804 
4.7123889804 4.7123889804 4.7123889804 4.6087898617 4.4991390697 4.3857031936 4.2712800401 4.1588146215 4.0509635631 
3.94975894 3.8564636551 3.7716124825 4.8159880991 4.9256388911 5.0390747672 5.1534979207 5.2659633393 5.3738143976 
5.4750190208 5.5683143056 5.6531654782 4.6087898617 4.4991390697 4.3857031936 4.2712800401 4.1588146215 4.0509635631 
3.94975894 3.8564636551 3.7716124825 4.8159880991 4.9256388911 5.0390747672 5.1534979207 5.2659633393 5.3738143976 
5.4750190208 5.5683143056 5.6531654782 1.5707963268 1.5707963268 1.5707963268 1.5707963268 1.5707963268 1.5707963268 
1.5707963268 1.5707963268 1.5707963268 1.6743954455 1.7840462375 1.8974821136 2.0119052671 2.1243706857 2.232221744 
2.3334263672 2.426721652 2.5115728246 1.4671972081 1.3575464161 1.24411054 1.1296873865 1.0172219679 0.90937090954 
0.80816628637 0.71487100155 0.63001982895 1.6743954455 1.7840462375 1.8974821136 2.0119052671 2.1243706857 2.232221744 
2.3334263672 2.426721652 2.5115728246 1.4671972081 1.3575464161 1.24411054 1.1296873865 1.0172219679 0.90937090954 
0.80816628637 0.71487100155 0.63001982895 3.6007720849 3.4966939854 3.3839471039 3.2645756454 3.1415926536 3.0186096618 
2.8992382033 2.7864913217 2.6824132222 5.8240058758 5.9280839753 6.0408308569 6.1602023154 6.2831853072 0.12298299178 
0.2423544503 0.35510133185 0.45917943135 6.0560271438 5.7885595667 5.9702140275 5.5125918794 5.6029703303 5.7885595667 
5.2659633393 5.2659633393 5.2659633393 5.2659633393 5.0674903122 5.0120975802 4.9155579264 4.7123889804 4.1588146215 
4.9155579264 4.8353719722 4.7123889804 4.5092200343 4.1588146215 3.6362183941 4.8004512023 4.7123889804 4.5894059886 
4.4126803806 4.1588146215 3.8218076305 3.4545639333 4.7123889804 4.6243267584 4.5092200343 4.3572876485 4.1588146215 
3.9121860814 3.6362183941 3.368750817 6.0174235957 5.9434319871 5.8263323547 5.8809213739 5.7674481418 5.6279784266 
5.8278025282 5.718968232 5.5891129425 5.4372443565 5.7823484065 5.678536687 5.5575666702 5.4192596322 5.2659633393 
5.743164462 5.6444075337 5.5314983644 5.4046708639 5.2659633393 5.1195510325 5.7091357773 5.6152775188 5.5096229709 
5.3926039573 5.2659633393 5.1329233157 4.9978930058 5.6793730533 5.5901633916 5.4910209005 5.3824597928 5.2659633393 
5.1440684722 5.0201624502 4.8979782167 5.5683143056 5.4750190208 5.4750190208 5.3738143976 5.3738143976 5.3738143976 
5.2659633393 5.2659633393 5.2659633393 5.2659633393 5.1534979207 5.1534979207 5.1534979207 5.1534979207 5.1534979207 
5.0390747672 5.0390747672 5.0390747672 5.0390747672 5.0390747672 5.0390747672 4.9256388911 4.9256388911 4.9256388911 
4.9256388911 4.9256388911 4.9256388911 4.9256388911 4.8159880991 4.8159880991 4.8159880991 4.8159880991 4.8159880991 
4.8159880991 4.8159880991 4.8159880991 4.6087898617 4.6087898617 4.4991390697 4.6087898617 4.4991390697 4.3857031936 
4.6087898617 4.4991390697 4.3857031936 4.2712800401 4.6087898617 4.4991390697 4.3857031936 4.2712800401 4.1588146215 
4.6087898617 4.4991390697 4.3857031936 4.2712800401 4.1588146215 4.0509635631 4.6087898617 4.4991390697 4.3857031936 
4.2712800401 4.1588146215 4.0509635631 3.94975894 4.6087898617 4.4991390697 4.3857031936 4.2712800401 4.1588146215 
4.0509635631 3.94975894 3.8564636551 4.526799744 4.4046155105 4.426884955 4.2807094886 4.2918546451 4.3052269283 
4.1588146215 4.1588146215 4.1588146215 4.1588146215 4.042318168 4.0321740035 4.0201070968 4.0055183285 3.9875336042 
3.9337570603 3.9151549899 3.8932795963 3.8672112905 3.8356650183 3.7967995342 3.8346145692 3.809500442 3.7803704271 
3.7462412737 3.7058097288 3.657329819 3.5984456061 3.7454049075 3.7156421835 3.6816134988 3.6424295543 3.5969754326 
3.5438565869 3.4813459737 3.4073543651 3.5642842451 3.4524645613 3.5233842518 3.3320300872 3.403123212 3.4773852225 
3.20576226 3.2746326772 3.348015857 3.4255060145 3.0774230472 3.1415926536 3.2112816139 3.2864685043 3.3668817272 
2.95115522 3.00855263 3.0719036933 3.1415926536 3.2178377658 3.3005964304 2.8307207459 2.8800620952 2.9351694502 
2.9967168029 3.0653475414 3.1415926536 3.225752376 2.718901062 2.7598010554 2.8058000847 2.8576792927 2.91630358 
2.9825888767 3.0574329311 3.1415926536 3.5642842451 3.5233842518 3.4524645613 3.4773852225 3.403123212 3.3320300872 
3.4255060145 3.348015857 3.2746326772 3.20576226 3.3668817272 3.2864685043 3.2112816139 3.1415926536 3.0774230472 
3.3005964304 3.2178377658 3.1415926536 3.0719036933 3.00855263 2.95115522 3.225752376 3.1415926536 3.0653475414 
2.9967168029 2.9351694502 2.8800620952 2.8307207459 3.1415926536 3.0574329311 2.9825888767 2.91630358 2.8576792927 
2.8058000847 2.7598010554 2.718901062 4.526799744 4.426884955 4.4046155105 4.3052269283 4.2918546451 4.2807094886 
4.1588146215 4.1588146215 4.1588146215 4.1588146215 3.9875336042 4.0055183285 4.0201070968 4.0321740035 4.042318168 
3.7967995342 3.8356650183 3.8672112905 3.8932795963 3.9151549899 3.9337570603 3.5984456061 3.657329819 3.7058097288 
3.7462412737 3.7803704271 3.809500442 3.8346145692 3.4073543651 3.4813459737 3.5438565869 3.5969754326 3.6424295543 
3.6816134988 3.7156421835 3.7454049075 4.7123889804 4.8004512023 4.6243267584 4.9155579264 4.7123889804 4.5092200343 
5.0674903122 4.8353719722 4.5894059886 4.3572876485 5.2659633393 5.0120975802 4.7123889804 4.4126803806 4.1588146215 
5.5125918794 5.2659633393 4.9155579264 4.5092200343 4.1588146215 3.9121860814 5.7885595667 5.6029703303 5.2659633393 
4.7123889804 4.1588146215 3.8218076305 3.6362183941 6.0560271438 5.9702140275 5.7885595667 5.2659633393 4.1588146215 
3.6362183941 3.4545639333 3.368750817 0.22715816343 0.49462574053 0.3129712797 0.77059342779 0.68021497688 0.49462574053 
1.0172219679 1.0172219679 1.0172219679 1.0172219679 1.2156949949 1.271087727 1.3676273807 1.5707963268 2.1243706857 
1.3676273807 1.447813335 1.5707963268 1.7739652728 2.1243706857 2.6469669131 1.4827341049 1.5707963268 1.6937793186 
1.8705049266 2.1243706857 2.4613776767 2.8286213739 1.5707963268 1.6588585487 1.7739652728 1.9258976586 2.1243706857 
2.3709992258 2.6469669131 2.9144344902 1.7563855631 1.8785697967 1.8563003522 2.0024758186 1.9913306621 1.9779583789 
2.1243706857 2.1243706857 2.1243706857 2.1243706857 2.2408671392 2.2510113037 2.2630782103 2.2776669786 2.295651703 
2.3494282469 2.3680303173 2.3899057108 2.4159740166 2.4475202889 2.486385773 2.448570738 2.4736848652 2.5028148801 
2.5369440334 2.5773755784 2.6258554882 2.6847397011 2.5377803997 2.5675431237 2.6015718084 2.6407557529 2.6862098746 
2.7393287203 2.8018393335 2.8758309421 1.6743954455 1.6743954455 1.7840462375 1.6743954455 1.7840462375 1.8974821136 
1.6743954455 1.7840462375 1.8974821136 2.0119052671 1.6743954455 1.7840462375 1.8974821136 2.0119052671 2.1243706857 
1.6743954455 1.7840462375 1.8974821136 2.0119052671 2.1243706857 2.232221744 1.6743954455 1.7840462375 1.8974821136 
2.0119052671 2.1243706857 2.232221744 2.3334263672 1.6743954455 1.7840462375 1.8974821136 2.0119052671 2.1243706857 
2.232221744 2.3334263672 2.426721652 1.4671972081 1.3575464161 1.4671972081 1.24411054 1.3575464161 1.4671972081 
1.1296873865 1.24411054 1.3575464161 1.4671972081 1.0172219679 1.1296873865 1.24411054 1.3575464161 1.4671972081 
0.90937090954 1.0172219679 1.1296873865 1.24411054 1.3575464161 1.4671972081 0.80816628637 0.90937090954 1.0172219679 
1.1296873865 1.24411054 1.3575464161 1.4671972081 0.71487100155 0.80816628637 0.90937090954 1.0172219679 1.1296873865 
1.24411054 1.3575464161 1.4671972081 0.60381225391 0.57404952988 0.69302191562 0.54002084522 0.66790778838 0.79216440667 
0.50083690068 0.63877777351 0.77356233629 0.90072551443 0.45538277901 0.60464862014 0.75168694275 0.89058134991 1.0172219679 
0.40226393329 0.56421707518 0.72561863695 0.87851444325 1.0172219679 1.139116835 0.33975332011 0.51573716537 0.69407236469 
0.86392567495 1.0172219679 1.1502619915 1.2630228569 0.26576171152 0.45685295248 0.6552068806 0.84594095064 1.0172219679 
1.1636342747 1.2852923014 1.3852070904 0.22715816343 0.3129712797 0.49462574053 0.49462574053 0.68021497688 0.77059342779 
1.0172219679 1.0172219679 1.0172219679 1.0172219679 2.1243706857 1.5707963268 1.3676273807 1.271087727 1.2156949949 
2.6469669131 2.1243706857 1.7739652728 1.5707963268 1.447813335 1.3676273807 2.8286213739 2.4613776767 2.1243706857 
1.8705049266 1.6937793186 1.5707963268 1.4827341049 2.9144344902 2.6469669131 2.3709992258 2.1243706857 1.9258976586 
1.7739652728 1.6588585487 1.5707963268 1.7563855631 1.8563003522 1.8785697967 1.9779583789 1.9913306621 2.0024758186 
2.1243706857 2.1243706857 2.1243706857 2.1243706857 2.295651703 2.2776669786 2.2630782103 2.2510113037 2.2408671392 
2.486385773 2.4475202889 2.4159740166 2.3899057108 2.3680303173 2.3494282469 2.6847397011 2.6258554882 2.5773755784 
2.5369440334 2.5028148801 2.4736848652 2.448570738 2.8758309421 2.8018393335 2.7393287203 2.6862098746 2.6407557529 
2.6015718084 2.5675431237 2.5377803997 5.8604937156 5.901393709 5.9723133995 5.9473927383 6.0216547488 6.0927478736 
5.9992719463 6.0767621038 6.1501452836 6.2190157008 6.0578962336 6.1383094565 6.2134963469 0 0.064169606361 
6.1241815303 6.206940195 6.2831853072 0.069688960264 0.13304002361 0.19043743361 6.1990255847 0 0.07624511221 
0.14487585072 0.20642320337 0.26153055843 0.3108719077 0 0.084159722458 0.15900377685 0.22528907359 0.28391336087 
0.3357925689 0.38179159818 0.42269159155 5.8604937156 5.9723133995 5.901393709 6.0927478736 6.0216547488 5.9473927383 
6.2190157008 6.1501452836 6.0767621038 5.9992719463 0.064169606361 0 6.2134963469 6.1383094565 6.0578962336 
0.19043743361 0.13304002361 0.069688960264 6.2831853072 6.206940195 6.1241815303 0.3108719077 0.26153055843 0.20642320337 
0.14487585072 0.07624511221 6.2831853072 6.1990255847 0.42269159155 0.38179159818 0.3357925689 0.28391336087 0.22528907359 
0.15900377685 0.084159722458 0 5.6793730533 5.7091357773 5.5901633916 5.743164462 5.6152775188 5.4910209005 
5.7823484065 5.6444075337 5.5096229709 5.3824597928 5.8278025282 5.678536687 5.5314983644 5.3926039573 5.2659633393 
5.8809213739 5.718968232 5.5575666702 5.4046708639 5.2659633393 5.1440684722 5.9434319871 5.7674481418 5.5891129425 
5.4192596322 5.2659633393 5.1329233157 5.0201624502 6.0174235957 5.8263323547 5.6279784266 5.4372443565 5.2659633393 
5.1195510325 4.9978930058 4.8979782167 1.3852070904 1.2852923014 1.2630228569 1.1636342747 1.1502619915 1.139116835 
1.0172219679 1.0172219679 1.0172219679 1.0172219679 0.84594095064 0.86392567495 0.87851444325 0.89058134991 0.90072551443 
0.6552068806 0.69407236469 0.72561863695 0.75168694275 0.77356233629 0.79216440667 0.45685295248 0.51573716537 0.56421707518 
0.60464862014 0.63877777351 0.66790778838 0.69302191562 0.26576171152 0.33975332011 0.40226393329 0.45538277901 0.50083690068 
0.54002084522 0.57404952988 0.60381225391 
_paraPhiHalf 1 1002 double
0 3.1415926536 0 3.1415926536 1.5707963268 1.5707963268 1.5707963268 1.5707963268 2.5880182947 
0.5535743589 2.5880182947 0.5535743589 0 0 0 0 3.1415926536 3.1415926536 
3.1415926536 3.1415926536 3.1415926536 0.17788134 0.38438696014 0.60631181711 0.82323535693 1.0172219679 1.1799687454 
1.3118704726 1.4175000338 1.5022335207 0.17788134 0.38438696014 0.60631181711 0.82323535693 1.0172219679 1.1799687454 
1.3118704726 1.4175000338 1.5022335207 0.093902416448 0.17615329733 0.2478725152 0.31035131605 0.36486382811 0.41257334776 
0.45449736604 0.4915044461 0.52432611754 0.093902416448 0.17615329733 0.2478725152 0.31035131605 0.36486382811 0.41257334776 
0.45449736604 0.4915044461 0.52432611754 2.9637113136 2.7572056934 2.5352808365 2.3183572967 2.1243706857 1.9616239082 
1.829722181 1.7240926197 1.6393591329 2.9637113136 2.7572056934 2.5352808365 2.3183572967 2.1243706857 1.9616239082 
1.829722181 1.7240926197 1.6393591329 3.0476902371 2.9654393563 2.8937201384 2.8312413375 2.7767288255 2.7290193058 
2.6870952876 2.6500882075 2.617266536 3.0476902371 2.9654393563 2.8937201384 2.8312413375 2.7767288255 2.7290193058 
2.6870952876 2.6500882075 2.617266536 0 0 0 0 3.1415926536 3.1415926536 
3.1415926536 3.1415926536 3.1415926536 0.17788134 0.38438696014 0.60631181711 0.82323535693 1.0172219679 1.1799687454 
1.3118704726 1.4175000338 1.5022335207 0.17788134 0.38438696014 0.60631181711 0.82323535693 1.0172219679 1.1799687454 
1.3118704726 1.4175000338 1.5022335207 0.093902416448 0.17615329733 0.2478725152 0.31035131605 0.36486382811 0.41257334776 
0.45449736604 0.4915044461 0.52432611754 0.093902416448 0.17615329733 0.2478725152 0.31035131605 0.36486382811 0.41257334776 
0.45449736604 0.4915044461 0.52432611754 2.9637113136 2.7572056934 2.5352808365 2.3183572967 2.1243706857 1.9616239082 
1.829722181 1.7240926197 1.6393591329 2.9637113136 2.7572056934 2.5352808365 2.3183572967 2.1243706857 1.9616239082 
1.829722181 1.7240926197 1.6393591329 3.0476902371 2.9654393563 2.8937201384 2.8312413375 2.7767288255 2.7290193058 
2.6870952876 2.6500882075 2.617266536 3.0476902371 2.9654393563 2.8937201384 2.8312413375 2.7767288255 2.7290193058 
2.6870952876 2.6500882075 2.617266536 1.5707963268 1.5707963268 1.5707963268 1.5707963268 1.5707963268 1.5707963268 
1.5707963268 1.5707963268 1.5707963268 1.6743954455 1.7840462375 1.8974821136 2.0119052671 2.1243706857 2.232221744 
2.3334263672 2.426721652 2.5115728246 1.4671972081 1.3575464161 1.24411054 1.1296873865 1.0172219679 0.90937090954 
0.80816628637 0.71487100155 0.63001982895 1.6743954455 1.7840462375 1.8974821136 2.0119052671 2.1243706857 2.232221744 
2.3334263672 2.426721652 2.5115728246 1.4671972081 1.3575464161 1.24411054 1.1296873865 1.0172219679 0.90937090954 
0.80816628637 0.71487100155 0.63001982895 1.5707963268 1.5707963268 1.5707963268 1.5707963268 1.5707963268 1.5707963268 
1.5707963268 1.5707963268 1.5707963268 1.6743954455 1.7840462375 1.8974821136 2.0119052671 2.1243706857 2.232221744 
2.3334263672 2.426721652 2.5115728246 1.4671972081 1.3575464161 1.24411054 1.1296873865 1.0172219679 0.90937090954 
0.80816628637 0.71487100155 0.63001982895 1.6743954455 1.7840462375 1.8974821136 2.0119052671 2.1243706857 2.232221744 
2.3334263672 2.426721652 2.5115728246 1.4671972081 1.3575464161 1.24411054 1.1296873865 1.0172219679 0.90937090954 
0.80816628637 0.71487100155 0.63001982895 2.6824132222 2.7864913217 2.8992382033 3.0186096618 3.1415926536 3.0186096618 
2.8992382033 2.7864913217 2.6824132222 0.45917943135 0.35510133185 0.2423544503 0.12298299178 0 0.12298299178 
0.2423544503 0.35510133185 0.45917943135 0.22715816343 0.49462574053 0.3129712797 0.77059342779 0.68021497688 0.49462574053 
1.0172219679 1.0172219679 1.0172219679 1.0172219679 1.2156949949 1.271087727 1.3676273807 1.5707963268 2.1243706857 
1.3676273807 1.447813335 1.5707963268 1.7739652728 2.1243706857 2.6469669131 1.4827341049 1.5707963268 1.6937793186 
1.8705049266 2.1243706857 2.4613776767 2.8286213739 1.5707963268 1.6588585487 1.7739652728 1.9258976586 2.1243706857 
2.3709992258 2.6469669131 2.9144344902 0.26576171152 0.33975332011 0.45685295248 0.40226393329 0.51573716537 0.6552068806 
0.45538277901 0.56421707518 0.69407236469 0.84594095064 0.50083690068 0.60464862014 0.72561863695 0.86392567495 1.0172219679 
0.54002084522 0.63877777351 0.75168694275 0.87851444325 1.0172219679 1.1636342747 0.57404952988 0.66790778838 0.77356233629 
0.89058134991 1.0172219679 1.1502619915 1.2852923014 0.60381225391 0.69302191562 0.79216440667 0.90072551443 1.0172219679 
1.139116835 1.2630228569 1.3852070904 0.71487100155 0.80816628637 0.80816628637 0.90937090954 0.90937090954 0.90937090954 
1.0172219679 1.0172219679 1.0172219679 1.0172219679 1.1296873865 1.1296873865 1.1296873865 1.1296873865 1.1296873865 
1.24411054 1.24411054 1.24411054 1.24411054 1.24411054 1.24411054 1.3575464161 1.3575464161 1.3575464161 
1.3575464161 1.3575464161 1.3575464161 1.3575464161 1.4671972081 1.4671972081 1.4671972081 1.4671972081 1.4671972081 
1.4671972081 1.4671972081 1.4671972081 1.6743954455 1.6743954455 1.7840462375 1.6743954455 1.7840462375 1.8974821136 
1.6743954455 1.7840462375 1.8974821136 2.0119052671 1.6743954455 1.7840462375 1.8974821136 2.0119052671 2.1243706857 
1.6743954455 1.7840462375 1.8974821136 2.0119052671 2.1243706857 2.232221744 1.6743954455 1.7840462375 1.8974821136 
2.0119052671 2.1243706857 2.232221744 2.3334263672 1.6743954455 1.7840462375 1.8974821136 2.0119052671 2.1243706857 
2.232221744 2.3334263672 2.426721652 1.7563855631 1.8785697967 1.8563003522 2.0024758186 1.9913306621 1.9779583789 
2.1243706857 2.1243706857 2.1243706857 2.1243706857 2.2408671392 2.2510113037 2.2630782103 2.2776669786 2.295651703 
2.3494282469 2.3680303173 2.3899057108 2.4159740166 2.4475202889 2.486385773 2.448570738 2.4736848652 2.5028148801 
2.5369440334 2.5773755784 2.6258554882 2.6847397011 2.5377803997 2.5675431237 2.6015718084 2.6407557529 2.6862098746 
2.7393287203 2.8018393335 2.8758309421 2.718901062 2.8307207459 2.7598010554 2.95115522 2.8800620952 2.8058000847 
3.0774230472 3.00855263 2.9351694502 2.8576792927 3.0774230472 3.1415926536 3.0719036933 2.9967168029 2.91630358 
2.95115522 3.00855263 3.0719036933 3.1415926536 3.0653475414 2.9825888767 2.8307207459 2.8800620952 2.9351694502 
2.9967168029 3.0653475414 3.1415926536 3.0574329311 2.718901062 2.7598010554 2.8058000847 2.8576792927 2.91630358 
2.9825888767 3.0574329311 3.1415926536 2.718901062 2.7598010554 2.8307207459 2.8058000847 2.8800620952 2.95115522 
2.8576792927 2.9351694502 3.00855263 3.0774230472 2.91630358 2.9967168029 3.0719036933 3.1415926536 3.0774230472 
2.9825888767 3.0653475414 3.1415926536 3.0719036933 3.00855263 2.95115522 3.0574329311 3.1415926536 3.0653475414 