# vtk DataFile Version 5.1
vtk output
ASCII
DATASET POLYDATA
POINTS 1002 float
-5.23665 -0.620948 -3.67789 5.29529 0.0570196 -4.53139 -4.87072 0.101451 3.91866 
5.51886 -0.109551 5.02809 0.144661 7.12766 -3.67677 -0.744335 7.05689 3.1126 
-0.863338 -7.08669 -3.2311 -0.425115 -7.18158 3.68408 9.56204 4.40527 -0.323836 
-9.2069 5.07037 0.25694 11.4529 -4.61648 -1.01985 -9.99238 -5.2353 -0.583646 
-4.40847 -0.56799 -3.43745 -3.39748 -0.386238 -3.27447 -2.21342 -0.153801 -3.25665 
-0.976069 0.0159792 -3.38218 0.190883 0.115354 -3.70952 1.28592 0.189463 -4.29493 
2.36077 0.210945 -4.91424 3.40605 0.15629 -5.18045 4.38597 0.0847388 -4.98011 
-4.84363 0.0247324 -3.24528 -4.3746 0.78853 -2.79271 -3.74465 1.65696 -2.46077 
-2.99986 2.58257 -2.35952 -2.40683 3.4847 -2.59958 -2.09258 4.29163 -3.17077 
-1.78697 5.00805 -3.76372 -1.2258 5.70449 -4.02418 -0.501854 6.42367 -3.92528 
-5.1342 -1.23524 -3.88001 -4.96143 -1.8682 -4.04754 -4.61023 -2.49136 -4.25084 
-4.05837 -3.11656 -4.49976 -3.45055 -3.767 -4.64378 -2.91789 -4.41831 -4.53335 
-2.41713 -5.0645 -4.22791 -1.87871 -5.75637 -3.88869 -1.34116 -6.47411 -3.57114 
-5.78571 -0.197672 -3.66876 -6.39354 0.330789 -3.61753 -7.0216 0.919317 -3.49201 
-7.58023 1.48299 -3.25764 -8.04651 2.0318 -2.92774 -8.49007 2.70654 -2.53129 
-8.91702 3.53722 -2.00692 -9.22144 4.31412 -1.28788 -9.31693 4.82722 -0.471256 
-5.96142 -0.967193 -3.99479 -6.74401 -1.36678 -4.01494 -7.57222 -1.92755 -3.69142 
-8.42785 -2.60194 -3.40205 -9.27598 -3.24301 -3.471 -9.99356 -3.85447 -3.52123 
-10.4057 -4.50546 -2.98203 -10.4631 -5.05781 -1.99164 -10.2796 -5.30161 -1.11327 
4.9652 0.66366 -4.68458 4.60882 1.36173 -4.94026 4.18387 2.15689 -5.28515 
3.63432 2.98815 -5.53256 2.96591 3.77492 -5.51332 2.26632 4.5243 -5.35399 
1.63486 5.27183 -5.23804 1.10365 5.97397 -5.02715 0.628001 6.58396 -4.49002 
5.03057 -0.549164 -4.69943 4.63849 -1.21421 -4.71526 4.08104 -1.87441 -4.40187 
3.43107 -2.46776 -3.86566 2.8076 -3.0189 -3.46001 2.17126 -3.62647 -3.33828 
1.3827 -4.37312 -3.32464 0.486711 -5.27104 -3.28255 -0.303266 -6.23204 -3.24658 
5.99804 0.428585 -4.13941 6.73915 0.836952 -3.84198 7.52027 1.28298 -3.59465 
8.32642 1.76337 -3.27272 9.05909 2.28371 -2.95178 9.57247 2.90089 -2.7358 
9.81482 3.61092 -2.42183 9.85291 4.21305 -1.79996 9.76023 4.4809 -1.0111 
6.11009 -0.294451 -4.14248 7.0805 -0.65959 -3.74674 8.12434 -1.08107 -3.31299 
9.07088 -1.56739 -2.77743 9.84806 -2.08491 -2.28154 10.5712 -2.65342 -2.1157 
11.2857 -3.31288 -2.22774 11.783 -3.96506 -2.18263 11.8363 -4.42449 -1.72824 
-4.1082 0.0611804 4.08536 -3.30692 -0.012386 4.18258 -2.42559 -0.119563 4.29816 
-1.39468 -0.23043 4.61493 -0.202107 -0.263314 5.11912 1.06741 -0.190818 5.46816 
2.31142 -0.109491 5.41606 3.48063 -0.0979288 5.15452 4.55637 -0.118363 5.00362 
-4.53407 0.829406 3.89141 -4.12592 1.57931 3.92266 -3.70106 2.38331 4.18877 
-3.27007 3.28636 4.6287 -2.80224 4.20802 4.89121 -2.325 4.99506 4.74003 
-1.90856 5.62697 4.32404 -1.54348 6.18579 3.89059 -1.16146 6.68156 3.50273 
-4.65886 -0.652642 4.06984 -4.36819 -1.41184 4.25336 -4.02028 -2.14057 4.37482 
-3.62167 -2.92919 4.36577 -3.13502 -3.82873 4.26402 -2.55559 -4.6631 4.14785 
-1.95915 -5.28884 4.04604 -1.41194 -5.85094 3.95433 -0.909349 -6.50958 3.84916 
-5.47544 0.569564 3.76774 -6.1331 1.01825 3.70056 -6.76872 1.45446 3.6113 
-7.32514 1.97771 3.33241 -7.84437 2.63133 2.82472 -8.39316 3.27396 2.22935 
-8.91636 3.77374 1.69709 -9.26653 4.19846 1.24091 -9.35463 4.64744 0.777769 
-5.52623 -0.363508 3.68304 -6.19492 -0.88269 3.23119 -6.87082 -1.40643 2.76974 
-7.58645 -1.93129 2.48004 -8.32198 -2.4794 2.12678 -8.95365 -2.99611 1.40474 
-9.38792 -3.43653 0.544168 -9.66777 -3.91188 -0.032253 -9.86876 -4.537 -0.318251 
5.19803 0.484437 4.68545 4.75403 1.1627 4.46074 4.25071 1.97409 4.42331 
3.6882 2.86248 4.40532 2.97722 3.67947 4.18653 2.10958 4.38962 3.81376 
1.23555 5.09504 3.51488 0.481316 5.82225 3.36307 -0.16161 6.49127 3.25483 
5.11697 -0.761827 5.23227 4.56522 -1.52493 5.1791 3.9867 -2.32018 4.98583 
3.44537 -3.08409 4.96178 2.81718 -3.85999 5.1475 2.02044 -4.69716 5.18538 
1.21856 -5.51642 4.87846 0.576231 -6.20645 4.42926 0.0591413 -6.7504 4.037 
6.26233 0.279148 4.79832 6.99134 0.663406 4.39039 7.70951 1.02702 3.87935 
8.38041 1.40047 3.3247 8.92967 1.83208 2.67678 9.34748 2.31939 1.9572 
9.6689 2.84107 1.32171 9.84773 3.39966 0.806275 9.80545 3.95507 0.282682 
6.2303 -0.445221 5.3131 6.92907 -0.806775 5.43987 7.63582 -1.24346 5.02098 
8.38621 -1.759 3.97537 9.11715 -2.25937 2.7311 9.74075 -2.67218 1.73144 
10.3102 -3.08407 0.973101 10.8829 -3.6051 0.261022 11.3265 -4.17178 -0.434026 
0.105134 7.91793 -2.96797 -0.103626 8.73395 -2.26327 -0.401666 9.40281 -1.49301 
-0.621892 9.73713 -0.560517 -0.704179 9.64818 0.413947 -0.743317 9.21839 1.1901 
-0.803658 8.64407 1.74764 -0.842003 8.08085 2.23848 -0.817078 7.56218 2.7126 
0.977862 7.42805 -3.88213 1.70834 7.51724 -3.88479 2.42663 7.25265 -3.64302 
3.34046 6.71953 -3.23175 4.46731 6.1937 -2.8022 5.5955 5.812 -2.40327 
6.63713 5.4847 -1.94532 7.67665 5.13719 -1.38848 8.6968 4.78015 -0.817988 
-0.778834 7.2439 -2.86397 -1.79724 7.39993 -2.05119 -2.81581 7.51809 -1.5004 
-3.83217 7.39367 -1.17558 -4.885 7.02326 -0.869423 -5.92009 6.70117 -0.569926 
-6.8642 6.54513 -0.370485 -7.73266 6.30453 -0.210774 -8.53505 5.78275 0.006342 
0.0606442 6.96657 2.75665 0.901013 6.69962 2.26964 1.80042 6.31703 1.71425 
2.8785 5.97653 1.25589 4.14651 5.68022 0.950403 5.42654 5.26337 0.685762 
6.607 4.76886 0.405762 7.71858 4.45894 0.161222 8.7353 4.40424 -0.0562126 
-1.6235 7.389 3.21254 -2.59547 7.7567 3.39432 -3.59766 8.18294 3.66868 
-4.55578 8.54104 3.81463 -5.42301 8.54582 3.51841 -6.2082 8.02977 2.77626 
-6.97776 7.18564 1.93384 -7.77934 6.3549 1.26142 -8.55891 5.67523 0.742487 
-0.842365 -7.81897 -2.94715 -0.78078 -8.3068 -2.49432 -0.687658 -8.41252 -1.76047 
-0.556286 -8.2827 -0.79365 -0.403998 -8.24647 0.190839 -0.300029 -8.40199 1.05913 
-0.293549 -8.49583 1.85918 -0.351414 -8.28501 2.61487 -0.406787 -7.79065 3.24252 
-0.0391363 -6.97591 -2.75451 1.15539 -6.52708 -2.02849 2.80917 -5.94748 -1.25127 
4.58223 -5.63811 -0.786326 5.98099 -5.79629 -0.78228 7.01308 -6.1425 -0.986262 
8.11058 -6.21984 -1.10103 9.40791 -5.87008 -1.09888 10.6104 -5.26445 -1.07026 
-1.60027 -7.36122 -3.35835 -2.51219 -7.28294 -3.3158 -3.69235 -6.92401 -3.1227 
-4.92794 -6.54673 -2.85313 -6.0221 -6.46056 -2.56131 -7.10921 -6.72415 -2.20452 
-8.25876 -6.98494 -1.72329 -9.19947 -6.81212 -1.1984 -9.73573 -6.14059 -0.796376 
0.386493 -7.44898 3.64045 1.32819 -7.38192 3.44032 2.44831 -7.0641 3.11394 
3.68025 -6.8894 2.73621 4.92642 -7.00998 2.26758 6.21152 -7.00806 1.6446 
7.60213 -6.53007 0.96607 9.03816 -5.78545 0.328536 10.3652 -5.12421 -0.323691 
-1.29736 -7.11794 3.39707 -2.36361 -6.99561 3.00478 -3.49737 -6.97585 2.57283 
-4.52873 -7.05942 2.17981 -5.52467 -6.9736 1.77574 -6.68814 -6.56517 1.24533 
-7.92166 -6.07927 0.632032 -8.9028 -5.76696 0.104013 -9.53673 -5.55134 -0.27507 
10.4224 4.02636 -0.264066 11.2106 3.32133 -0.224353 12.0762 2.29261 -0.158311 
13.1085 1.2073 -0.143662 13.995 0.22863 -0.396713 14.262 -0.817355 -0.946393 
13.8806 -2.00903 -1.45844 13.1869 -3.10025 -1.60318 12.3767 -3.93013 -1.38664 
-9.8689 4.16156 0.0658867 -10.3891 3.10532 -0.246229 -10.8114 1.93881 -0.619501 
-11.351 0.733218 -0.818083 -12.0167 -0.400713 -0.743189 -12.348 -1.38543 -0.623354 
-11.9765 -2.29946 -0.653201 -11.1783 -3.28227 -0.725932 -10.4624 -4.31423 -0.692554 
-3.91699 0.209298 -3.07431 -3.33006 1.09157 -2.80451 -2.80757 0.502806 -3.12865 
-2.6048 1.99998 -2.67951 -2.16079 1.40535 -3.13919 -1.58317 0.722236 -3.39529 
-1.89712 2.89203 -2.81258 -1.47671 2.24887 -3.2641 -0.98771 1.52801 -3.69664 
-0.388254 0.774396 -3.7979 -1.45409 3.74496 -3.38373 -0.911835 3.0842 -3.66023 
-0.432863 2.31186 -4.07659 0.114619 1.49948 -4.33318 0.722973 0.777979 -4.33336 
-1.17411 4.51869 -4.22639 -0.527441 3.91985 -4.43311 0.057005 3.16512 -4.64409 
0.618688 2.31637 -4.86251 1.22168 1.50522 -4.92555 1.82558 0.817151 -4.90702 
-0.71762 5.21816 -4.79594 -0.107508 4.67511 -5.16185 0.538892 3.99499 -5.27215 
1.17298 3.19177 -5.35433 1.79969 2.34346 -5.37119 2.40421 1.53911 -5.29013 
2.94616 0.818568 -5.22329 -0.0373952 5.90251 -4.81443 0.485392 5.34207 -5.34422 
1.0875 4.68466 -5.51362 1.74943 3.94206 -5.57924 2.42372 3.14233 -5.61365 
3.04725 2.30465 -5.49616 3.57378 1.48779 -5.27695 4.01019 0.746673 -5.10225 
-5.41548 0.476553 -3.17456 -6.0238 1.06199 -3.1293 -4.93626 1.26378 -2.6635 
-6.6141 1.7063 -3.06571 -5.52921 1.87873 -2.64462 -4.27225 2.17626 -2.32176 
-7.1234 2.30525 -2.89877 -6.11512 2.51328 -2.61625 -4.89033 2.78417 -2.29287 
-3.56139 3.1439 -2.23835 -7.57581 2.941 -2.61414 -6.6428 3.09947 -2.44301 
-5.53992 3.34572 -2.14992 -4.26008 3.70843 -2.07057 -3.0603 4.05065 -2.41877 
-8.01298 3.77765 -2.20698 -7.09893 3.81728 -2.13961 -6.09943 3.91652 -1.84703 
-4.9263 4.24188 -1.68654 -3.73798 4.62109 -1.9744 -2.70883 4.8667 -2.74234 
-8.36955 4.70241 -1.59596 -7.45869 4.76341 -1.69146 -6.5005 4.71672 -1.50602 
-5.40895 4.90933 -1.29371 -4.24932 5.29613 -1.40496 -3.18398 5.56495 -1.9934 
-2.20416 5.65634 -2.96942 -8.54876 5.41175 -0.79622 -7.67215 5.68285 -1.01927 
-6.74376 5.69288 -1.0516 -5.71574 5.79442 -1.0061 -4.59583 6.14617 -1.07896 
-3.51153 6.46007 -1.39343 -2.4995 6.52057 -2.0414 -1.49139 6.46013 -2.98066 
-7.84825 6.47429 0.607196 -7.09613 7.27202 1.30011 -7.03577 7.07963 0.498189 
-6.36551 8.18602 2.09391 -6.32004 7.96809 1.24924 -6.14874 7.44702 0.240738 
-5.64063 8.93958 2.84447 -5.63186 8.8443 1.94737 -5.44646 8.40778 0.759485 
-5.17405 7.78858 -0.316936 -4.83034 9.18368 3.26602 -4.89057 9.37475 2.4478 
-4.75787 9.16638 1.20615 -4.48873 8.77332 -0.134414 -4.14489 8.19883 -0.941448 
-3.87877 8.92044 3.24537 -3.97936 9.39423 2.62432 -3.93 9.51209 1.59234 
-3.77391 9.40071 0.223415 -3.47857 9.08577 -0.864758 -3.1044 8.43734 -1.3112 
-2.82222 8.44935 3.00554 -2.90593 9.06539 2.52925 -2.88184 9.48363 1.82139 
[...]
POINT_DATA 1002
FIELD FieldData 4
_paraPhi 1 1002 double
6.2831853072 3.1415926536 6.2831853072 3.1415926536 4.7123889804 4.7123889804 1.5707963268 1.5707963268 3.6951670125 
5.7296109483 2.5880182947 0.5535743589 6.2831853072 6.2831853072 6.2831853072 6.2831853072 3.1415926536 3.1415926536 
3.1415926536 3.1415926536 3.1415926536 6.1053039672 5.898798347 5.6768734901 5.4599499503 5.2659633393 5.1032165617 
4.9713148346 4.8656852733 4.7809517865 0.17788134 0.38438696014 0.60631181711 0.82323535693 1.0172219679 1.1799687454 
1.3118704726 1.4175000338 1.5022335207 6.1892828907 6.1070320098 6.035312792 5.9728339911 5.9183214791 5.8706119594 
5.8286879411 5.7916808611 5.7588591896 0.093902416448 0.17615329733 0.2478725152 0.31035131605 0.36486382811 0.41257334776 
0.45449736604 0.4915044461 0.52432611754 3.3194739936 3.5259796137 3.7479044707 3.9648280105 4.1588146215 4.321561399 
4.4534631262 4.5590926874 4.6438261743 2.9637113136 2.7572056934 2.5352808365 2.3183572967 2.1243706857 1.9616239082 
1.829722181 1.7240926197 1.6393591329 3.23549507 3.3177459509 3.3894651688 3.4519439696 3.5064564817 3.5541660013 
3.5960900196 3.6330970997 3.6659187711 3.0476902371 2.9654393563 2.8937201384 2.8312413375 2.7767288255 2.7290193058 
2.6870952876 2.6500882075 2.617266536 6.2831853072 6.2831853072 6.2831853072 6.2831853072 3.1415926536 3.1415926536 
3.1415926536 3.1415926536 3.1415926536 6.1053039672 5.898798347 5.6768734901 5.4599499503 5.2659633393 5.1032165617 
4.9713148346 4.8656852733 4.7809517865 0.17788134 0.38438696014 0.60631181711 0.82323535693 1.0172219679 1.1799687454 
1.3118704726 1.4175000338 1.5022335207 6.1892828907 6.1070320098 6.035312792 5.9728339911 5.9183214791 5.8706119594 
5.8286879411 5.7916808611 5.7588591896 0.093902416448 0.17615329733 0.2478725152 0.31035131605 0.36486382811 0.41257334776 
0.45449736604 0.4915044461 0.52432611754 3.3194739936 3.5259796137 3.7479044707 3.9648280105 4.1588146215 4.321561399 
4.4534631262 4.5590926874 4.6438261743 2.9637113136 2.7572056934 2.5352808365 2.3183572967 2.1243706857 1.9616239082 
1.829722181 1.7240926197 1.6393591329 3.23549507 3.3177459509 3.3894651688 3.4519439696 3.5064564817 3.5541660013 
3.5960900196 3.6330970997 3.6659187711 3.0476902371 2.9654393563 2.8937201384 2.8312413375 2.7767288255 2.7290193058 
2.6870952876 2.6500882075 2.617266536 4.7123889804 4.7123889804 4.7123889804 4.7123889804 4.7123889804 4.7123889804 
4.7123889804 4.7123889804 4.7123889804 4.6087898617 4.4991390697 4.3857031936 4.2712800401 4.1588146215 4.0509635631 
3.94975894 3.8564636551 3.7716124825 4.8159880991 4.9256388911 5.0390747672 5.1534979207 5.2659633393 5.3738143976 
5.4750190208 5.5683143056 5.6531654782 4.6087898617 4.4991390697 4.3857031936 4.2712800401 4.1588146215 4.0509635631 
3.94975894 3.8564636551 3.7716124825 4.8159880991 4.9256388911 5.0390747672 5.1534979207 5.2659633393 5.3738143976 
5.4750190208 5.5683143056 5.6531654782 1.5707963268 1.5707963268 1.5707963268 1.5707963268 1.5707963268 1.5707963268 
1.5707963268 1.5707963268 1.5707963268 1.6743954455 1.7840462375 1.8974821136 2.0119052671 2.1243706857 2.232221744 
2.3334263672 2.426721652 2.5115728246 1.4671972081 1.3575464161 1.24411054 1.1296873865 1.0172219679 0.90937090954 
0.80816628637 0.71487100155 0.63001982895 1.6743954455 1.7840462375 1.8974821136 2.0119052671 2.1243706857 2.232221744 
2.3334263672 2.426721652 2.5115728246 1.4671972081 1.3575464161 1.24411054 1.1296873865 1.0172219679 0.90937090954 
0.80816628637 0.71487100155 0.63001982895 3.6007720849 3.4966939854 3.3839471039 3.2645756454 3.1415926536 3.0186096618 
2.8992382033 2.7864913217 2.6824132222 5.8240058758 5.9280839753 6.0408308569 6.1602023154 6.2831853072 0.12298299178 
0.2423544503 0.35510133185 0.45917943135 6.0560271438 5.7885595667 5.9702140275 5.5125918794 5.6029703303 5.7885595667 
5.2659633393 5.2659633393 5.2659633393 5.2659633393 5.0674903122 5.0120975802 4.9155579264 4.7123889804 4.1588146215 
4.9155579264 4.8353719722 4.7123889804 4.5092200343 4.1588146215 3.6362183941 4.8004512023 4.7123889804 4.5894059886 
4.4126803806 4.1588146215 3.8218076305 3.4545639333 4.7123889804 4.6243267584 4.5092200343 4.3572876485 4.1588146215 
3.9121860814 3.6362183941 3.368750817 6.0174235957 5.9434319871 5.8263323547 5.8809213739 5.7674481418 5.6279784266 
5.8278025282 5.718968232 5.5891129425 5.4372443565 5.7823484065 5.678536687 5.5575666702 5.4192596322 5.2659633393 
5.743164462 5.6444075337 5.5314983644 5.4046708639 5.2659633393 5.1195510325 5.7091357773 5.6152775188 5.5096229709 
5.3926039573 5.2659633393 5.1329233157 4.9978930058 5.6793730533 5.5901633916 5.4910209005 5.3824597928 5.2659633393 
5.1440684722 5.0201624502 4.8979782167 5.5683143056 5.4750190208 5.4750190208 5.3738143976 5.3738143976 5.3738143976 
5.2659633393 5.2659633393 5.2659633393 5.2659633393 5.1534979207 5.1534979207 5.1534979207 5.1534979207 5.1534979207 
5.0390747672 5.0390747672 5.0390747672 5.0390747672 5.0390747672 5.0390747672 4.9256388911 4.9256388911 4.9256388911 
4.9256388911 4.9256388911 4.9256388911 4.9256388911 4.8159880991 4.8159880991 4.8159880991 4.8159880991 4.8159880991 
4.8159880991 4.8159880991 4.8159880991 4.6087898617 4.6087898617 4.4991390697 4.6087898617 4.4991390697 4.3857031936 
4.6087898617 4.4991390697 4.3857031936 4.2712800401 4.6087898617 4.4991390697 4.3857031936 4.2712800401 4.1588146215 
4.6087898617 4.4991390697 4.3857031936 4.2712800401 4.1588146215 4.0509635631 4.6087898617 4.4991390697 4.3857031936 
4.2712800401 4.1588146215 4.0509635631 3.94975894 4.6087898617 4.4991390697 4.3857031936 4.2712800401 4.1588146215 
4.0509635631 3.94975894 3.8564636551 4.526799744 4.4046155105 4.426884955 4.2807094886 4.2918546451 4.3052269283 
4.1588146215 4.1588146215 4.1588146215 4.1588146215 4.042318168 4.0321740035 4.0201070968 4.0055183285 3.9875336042 
3.9337570603 3.9151549899 3.8932795963 3.8672112905 3.8356650183 3.7967995342 3.8346145692 3.809500442 3.7803704271 
3.7462412737 3.7058097288 3.657329819 3.5984456061 3.7454049075 3.7156421835 3.6816134988 3.6424295543 3.5969754326 
3.5438565869 3.4813459737 3.4073543651 3.5642842451 3.4524645613 3.5233842518 3.3320300872 3.403123212 3.4773852225 
3.20576226 3.2746326772 3.348015857 3.4255060145 3.0774230472 3.1415926536 3.2112816139 3.2864685043 3.3668817272 
2.95115522 3.00855263 3.0719036933 3.1415926536 3.2178377658 3.3005964304 2.8307207459 2.8800620952 2.9351694502 
2.9967168029 3.0653475414 3.1415926536 3.225752376 2.718901062 2.7598010554 2.8058000847 2.8576792927 2.91630358 
2.9825888767 3.0574329311 3.1415926536 3.5642842451 3.5233842518 3.4524645613 3.4773852225 3.403123212 3.3320300872 
3.4255060145 3.348015857 3.2746326772 3.20576226 3.3668817272 3.2864685043 3.2112816139 3.1415926536 3.0774230472 
3.3005964304 3.2178377658 3.1415926536 3.0719036933 3.00855263 2.95115522 3.225752376 3.1415926536 3.0653475414 
2.9967168029 2.9351694502 2.8800620952 2.8307207459 3.1415926536 3.0574329311 2.9825888767 2.91630358 2.8576792927 
2.8058000847 2.7598010554 2.718901062 4.526799744 4.426884955 4.4046155105 4.3052269283 4.2918546451 4.2807094886 
4.1588146215 4.1588146215 4.1588146215 4.1588146215 3.9875336042 4.0055183285 4.0201070968 4.0321740035 4.042318168 
3.7967995342 3.8356650183 3.8672112905 3.8932795963 3.9151549899 3.9337570603 3.5984456061 3.657329819 3.7058097288 
3.7462412737 3.7803704271 3.809500442 3.8346145692 3.4073543651 3.4813459737 3.5438565869 3.5969754326 3.6424295543 
3.6816134988 3.7156421835 3.7454049075 4.7123889804 4.8004512023 4.6243267584 4.9155579264 4.7123889804 4.5092200343 
5.0674903122 4.8353719722 4.5894059886 4.3572876485 5.2659633393 5.0120975802 4.7123889804 4.4126803806 4.1588146215 
5.5125918794 5.2659633393 4.9155579264 4.5092200343 4.1588146215 3.9121860814 5.7885595667 5.6029703303 5.2659633393 
4.7123889804 4.1588146215 3.8218076305 3.6362183941 6.0560271438 5.9702140275 5.7885595667 5.2659633393 4.1588146215 
3.6362183941 3.4545639333 3.368750817 0.22715816343 0.49462574053 0.3129712797 0.77059342779 0.68021497688 0.49462574053 
1.0172219679 1.0172219679 1.0172219679 1.0172219679 1.2156949949 1.271087727 1.3676273807 1.5707963268 2.1243706857 
1.3676273807 1.447813335 1.5707963268 1.7739652728 2.1243706857 2.6469669131 1.4827341049 1.5707963268 1.6937793186 
1.8705049266 2.1243706857 2.4613776767 2.8286213739 1.5707963268 1.6588585487 1.7739652728 1.9258976586 2.1243706857 
2.3709992258 2.6469669131 2.9144344902 1.7563855631 1.8785697967 1.8563003522 2.0024758186 1.9913306621 1.9779583789 
2.1243706857 2.1243706857 2.1243706857 2.1243706857 2.2408671392 2.2510113037 2.2630782103 2.2776669786 2.295651703 
2.3494282469 2.3680303173 2.3899057108 2.4159740166 2.4475202889 2.486385773 2.448570738 2.4736848652 2.5028148801 
2.5369440334 2.5773755784 2.6258554882 2.6847397011 2.5377803997 2.5675431237 2.6015718084 2.6407557529 2.6862098746 
2.7393287203 2.8018393335 2.8758309421 1.6743954455 1.6743954455 1.7840462375 1.6743954455 1.7840462375 1.8974821136 
1.6743954455 1.7840462375 1.8974821136 2.0119052671 1.6743954455 1.7840462375 1.8974821136 2.0119052671 2.1243706857 
1.6743954455 1.7840462375 1.8974821136 2.0119052671 2.1243706857 2.232221744 1.6743954455 1.7840462375 1.8974821136 
2.0119052671 2.1243706857 2.232221744 2.3334263672 1.6743954455 1.7840462375 1.8974821136 2.0119052671 2.1243706857 
2.232221744 2.3334263672 2.426721652 1.4671972081 1.3575464161 1.4671972081 1.24411054 1.3575464161 1.4671972081 
1.1296873865 1.24411054 1.3575464161 1.4671972081 1.0172219679 1.1296873865 1.24411054 1.3575464161 1.4671972081 
0.90937090954 1.0172219679 1.1296873865 1.24411054 1.3575464161 1.4671972081 0.80816628637 0.90937090954 1.0172219679 
1.1296873865 1.24411054 1.3575464161 1.4671972081 0.71487100155 0.80816628637 0.90937090954 1.0172219679 1.1296873865 
1.24411054 1.3575464161 1.4671972081 0.60381225391 0.57404952988 0.69302191562 0.54002084522 0.66790778838 0.79216440667 
0.50083690068 0.63877777351 0.77356233629 0.90072551443 0.45538277901 0.60464862014 0.75168694275 0.89058134991 1.0172219679 
0.40226393329 0.56421707518 0.72561863695 0.87851444325 1.0172219679 1.139116835 0.33975332011 0.51573716537 0.69407236469 
0.86392567495 1.0172219679 1.1502619915 1.2630228569 0.26576171152 0.45685295248 0.6552068806 0.84594095064 1.0172219679 
1.1636342747 1.2852923014 1.3852070904 0.22715816343 0.3129712797 0.49462574053 0.49462574053 0.68021497688 0.77059342779 
1.0172219679 1.0172219679 1.0172219679 1.0172219679 2.1243706857 1.5707963268 1.3676273807 1.271087727 1.2156949949 
2.6469669131 2.1243706857 1.7739652728 1.5707963268 1.447813335 1.3676273807 2.8286213739 2.4613776767 2.1243706857 
1.8705049266 1.6937793186 1.5707963268 1.4827341049 2.9144344902 2.6469669131 2.3709992258 2.1243706857 1.9258976586 
1.7739652728 1.6588585487 1.5707963268 1.7563855631 1.8563003522 1.8785697967 1.9779583789 1.9913306621 2.0024758186 
2.1243706857 2.1243706857 2.1243706857 2.1243706857 2.295651703 2.2776669786 2.2630782103 2.2510113037 2.2408671392 
2.486385773 2.4475202889 2.4159740166 2.3899057108 2.3680303173 2.3494282469 2.6847397011 2.6258554882 2.5773755784 
2.5369440334 2.5028148801 2.4736848652 2.448570738 2.8758309421 2.8018393335 2.7393287203 2.6862098746 2.6407557529 
2.6015718084 2.5675431237 2.5377803997 5.8604937156 5.901393709 5.9723133995 5.9473927383 6.0216547488 6.0927478736 
5.9992719463 6.0767621038 6.1501452836 6.2190157008 6.0578962336 6.1383094565 6.2134963469 0 0.064169606361 
6.1241815303 6.206940195 6.2831853072 0.069688960264 0.13304002361 0.19043743361 6.1990255847 0 0.07624511221 
0.14487585072 0.20642320337 0.26153055843 0.3108719077 0 0.084159722458 0.15900377685 0.22528907359 0.28391336087 
0.3357925689 0.38179159818 0.42269159155 5.8604937156 5.9723133995 5.901393709 6.0927478736 6.0216547488 5.9473927383 
6.2190157008 6.1501452836 6.0767621038 5.9992719463 0.064169606361 0 6.2134963469 6.1383094565 6.0578962336 
0.19043743361 0.13304002361 0.069688960264 6.2831853072 6.206940195 6.1241815303 0.3108719077 0.26153055843 0.20642320337 
0.14487585072 0.07624511221 6.2831853072 6.1990255847 0.42269159155 0.38179159818 0.3357925689 0.28391336087 0.22528907359 
0.15900377685 0.084159722458 0 5.6793730533 5.7091357773 5.5901633916 5.743164462 5.6152775188 5.4910209005 
5.7823484065 5.6444075337 5.5096229709 5.3824597928 5.8278025282 5.678536687 5.5314983644 5.3926039573 5.2659633393 
5.8809213739 5.718968232 5.5575666702 5.4046708639 5.2659633393 5.1440684722 5.9434319871 5.7674481418 5.5891129425 
5.4192596322 5.2659633393 5.1329233157 5.0201624502 6.0174235957 5.8263323547 5.6279784266 5.4372443565 5.2659633393 
5.1195510325 4.9978930058 4.8979782167 1.3852070904 1.2852923014 1.2630228569 1.1636342747 1.1502619915 1.139116835 
1.0172219679 1.0172219679 1.0172219679 1.0172219679 0.84594095064 0.86392567495 0.87851444325 0.89058134991 0.90072551443 
0.6552068806 0.69407236469 0.72561863695 0.75168694275 0.77356233629 0.79216440667 0.45685295248 0.51573716537 0.56421707518 
0.60464862014 0.63877777351 0.66790778838 0.69302191562 0.26576171152 0.33975332011 0.40226393329 0.45538277901 0.50083690068 
0.54002084522 0.57404952988 0.60381225391 
_paraPhiHalf 1 1002 double
0 3.1415926536 0 3.1415926536 1.5707963268 1.5707963268 1.5707963268 1.5707963268 2.5880182947 
0.5535743589 2.5880182947 0.5535743589 0 0 0 0 3.1415926536 3.1415926536 
3.1415926536 3.1415926536 3.1415926536 0.17788134 0.38438696014 0.60631181711 0.82323535693 1.0172219679 1.1799687454 
1.3118704726 1.4175000338 1.5022335207 0.17788134 0.38438696014 0.60631181711 0.82323535693 1.0172219679 1.1799687454 
1.3118704726 1.4175000338 1.5022335207 0.093902416448 0.17615329733 0.2478725152 0.31035131605 0.36486382811 0.41257334776 
0.45449736604 0.4915044461 0.52432611754 0.093902416448 0.17615329733 0.2478725152 0.31035131605 0.36486382811 0.41257334776 
0.45449736604 0.4915044461 0.52432611754 2.9637113136 2.7572056934 2.5352808365 2.3183572967 2.1243706857 1.9616239082 
1.829722181 1.7240926197 1.6393591329 2.9637113136 2.7572056934 2.5352808365 2.3183572967 2.1243706857 1.9616239082 
1.829722181 1.7240926197 1.6393591329 3.0476902371 2.9654393563 2.8937201384 2.8312413375 2.7767288255 2.7290193058 
2.6870952876 2.6500882075 2.617266536 3.0476902371 2.9654393563 2.8937201384 2.8312413375 2.7767288255 2.7290193058 
2.6870952876 2.6500882075 2.617266536 0 0 0 0 3.1415926536 3.1415926536 
3.1415926536 3.1415926536 3.1415926536 0.17788134 0.38438696014 0.60631181711 0.82323535693 1.0172219679 1.1799687454 
1.3118704726 1.4175000338 1.5022335207 0.17788134 0.38438696014 0.60631181711 0.82323535693 1.0172219679 1.1799687454 
1.3118704726 1.4175000338 1.5022335207 0.093902416448 0.17615329733 0.2478725152 0.31035131605 0.36486382811 0.41257334776 
0.45449736604 0.4915044461 0.52432611754 0.093902416448 0.17615329733 0.2478725152 0.31035131605 0.36486382811 0.41257334776 
0.45449736604 0.4915044461 0.52432611754 2.9637113136 2.7572056934 2.5352808365 2.3183572967 2.1243706857 1.9616239082 
1.829722181 1.7240926197 1.6393591329 2.9637113136 2.7572056934 2.5352808365 2.3183572967 2.1243706857 1.9616239082 
1.829722181 1.7240926197 1.6393591329 3.0476902371 2.9654393563 2.8937201384 2.8312413375 2.7767288255 2.7290193058 
2.6870952876 2.6500882075 2.617266536 3.0476902371 2.9654393563 2.8937201384 2.8312413375 2.7767288255 2.7290193058 
2.6870952876 2.6500882075 2.617266536 1.5707963268 1.5707963268 1.5707963268 1.5707963268 1.5707963268 1.5707963268 
1.5707963268 1.5707963268 1.5707963268 1.6743954455 1.7840462375 1.8974821136 2.0119052671 2.1243706857 2.232221744 
2.3334263672 2.426721652 2.5115728246 1.4671972081 1.3575464161 1.24411054 1.1296873865 1.0172219679 0.90937090954 
0.80816628637 0.71487100155 0.63001982895 1.6743954455 1.7840462375 1.8974821136 2.0119052671 2.1243706857 2.232221744 
2.3334263672 2.426721652 2.5115728246 1.4671972081 1.3575464161 1.24411054 1.1296873865 1.0172219679 0.90937090954 
0.80816628637 0.71487100155 0.63001982895 1.5707963268 1.5707963268 1.5707963268 1.5707963268 1.5707963268 1.5707963268 
1.5707963268 1.5707963268 1.5707963268 1.6743954455 1.7840462375 1.8974821136 2.0119052671 2.1243706857 2.232221744 
2.3334263672 2.426721652 2.5115728246 1.4671972081 1.3575464161 1.24411054 1.1296873865 1.0172219679 0.90937090954 
0.80816628637 0.71487100155 0.63001982895 1.6743954455 1.7840462375 1.8974821136 2.0119052671 2.1243706857 2.232221744 
2.3334263672 2.426721652 2.5115728246 1.4671972081 1.3575464161 1.24411054 1.1296873865 1.0172219679 0.90937090954 
0.80816628637 0.71487100155 0.63001982895 2.6824132222 2.7864913217 2.8992382033 3.0186096618 3.1415926536 3.0186096618 
2.8992382033 2.7864913217 2.6824132222 0.45917943135 0.35510133185 0.2423544503 0.12298299178 0 0.12298299178 
0.2423544503 0.35510133185 0.45917943135 0.22715816343 0.49462574053 0.3129712797 0.77059342779 0.68021497688 0.49462574053 
1.0172219679 1.0172219679 1.0172219679 1.0172219679 1.2156949949 1.271087727 1.3676273807 1.5707963268 2.1243706857 
1.3676273807 1.447813335 1.5707963268 1.7739652728 2.1243706857 2.6469669131 1.4827341049 1.5707963268 1.6937793186 
1.8705049266 2.1243706857 2.4613776767 2.8286213739 1.5707963268 1.6588585487 1.7739652728 1.9258976586 2.1243706857 
2.3709992258 2.6469669131 2.9144344902 0.26576171152 0.33975332011 0.45685295248 0.40226393329 0.51573716537 0.6552068806 
0.45538277901 0.56421707518 0.69407236469 0.84594095064 0.50083690068 0.60464862014 0.72561863695 0.86392567495 1.0172219679 
0.54002084522 0.63877777351 0.75168694275 0.87851444325 1.0172219679 1.1636342747 0.57404952988 0.66790778838 0.77356233629 
0.89058134991 1.0172219679 1.1502619915 1.2852923014 0.60381225391 0.69302191562 0.79216440667 0.90072551443 1.0172219679 
1.139116835 1.2630228569 1.3852070904 0.71487100155 0.80816628637 0.80816628637 0.90937090954 0.90937090954 0.90937090954 
1.0172219679 1.0172219679 1.0172219679 1.0172219679 1.1296873865 1.1296873865 1.1296873865 1.1296873865 1.1296873865 
1.24411054 1.24411054 1.24411054 1.24411054 1.24411054 1.24411054 1.3575464161 1.3575464161 1.3575464161 
1.3575464161 1.3575464161 1.3575464161 1.3575464161 1.4671972081 1.4671972081 1.4671972081 1.4671972081 1.4671972081 
1.4671972081 1.4671972081 1.4671972081 1.6743954455 1.6743954455 1.7840462375 1.6743954455 1.7840462375 1.8974821136 
1.6743954455 1.7840462375 1.8974821136 2.0119052671 1.6743954455 1.7840462375 1.8974821136 2.0119052671 2.1243706857 
1.6743954455 1.7840462375 1.8974821136 2.0119052671 2.1243706857 2.232221744 1.6743954455 1.7840462375 1.8974821136 
2.0119052671 2.1243706857 2.232221744 2.3334263672 1.6743954455 1.7840462375 1.8974821136 2.0119052671 2.1243706857 
2.232221744 2.3334263672 2.426721652 1.7563855631 1.8785697967 1.8563003522 2.0024758186 1.9913306621 1.9779583789 
2.1243706857 2.1243706857 2.1243706857 2.1243706857 2.2408671392 2.2510113037 2.2630782103 2.2776669786 2.295651703 
2.3494282469 2.3680303173 2.3899057108 2.4159740166 2.4475202889 2.486385773 2.448570738 2.4736848652 2.5028148801 
2.5369440334 2.5773755784 2.6258554882 2.6847397011 2.5377803997 2.5675431237 2.6015718084 2.6407557529 2.6862098746 
2.7393287203 2.8018393335 2.8758309421 2.718901062 2.8307207459 2.7598010554 2.95115522 2.8800620952 2.8058000847 
3.0774230472 3.00855263 2.9351694502 2.8576792927 3.0774230472 3.1415926536 3.0719036933 2.9967168029 2.91630358 
2.95115522 3.00855263 3.0719036933 3.1415926536 3.0653475414 2.9825888767 2.8307207459 2.8800620952 2.9351694502 
2.9967168029 3.0653475414 3.1415926536 3.0574329311 2.718901062 2.7598010554 2.8058000847 2.8576792927 2.91630358 
2.9825888767 3.0574329311 3.1415926536 2.718901062 2.7598010554 2.8307207459 2.8058000847 2.8800620952 2.95115522 
2.8576792927 2.9351694502 3.00855263 3.0774230472 2.91630358 2.9967168029 3.0719036933 3.1415926536 3.0774230472 
2.9825888767 3.0653475414 3.1415926536 3.0719036933 3.00855263 2.95115522 3.0574329311 3.1415926536 3.0653475414 