# vtk DataFile Version 5.1
vtk output
ASCII
DATASET POLYDATA
POINTS 1002 float
-5.64165 -0.347452 -4.94589 4.79901 0.346914 -2.89791 -4.86183 0.504811 5.15468 
4.1273 -0.504388 2.82841 0.700667 6.10363 -3.93573 0.294123 6.61428 3.23541 
0.375123 -6.71996 -3.5221 0.303406 -6.80241 3.47378 10.487 5.57344 -0.00763022 
-9.87946 4.68856 -1.37688 8.74068 -4.41732 -0.45976 -8.59504 -2.94565 -0.33729 
-4.84362 -0.336465 -4.85354 -3.90427 -0.298132 -4.57232 -2.76864 -0.259717 -4.17511 
-1.49296 -0.240647 -3.76622 -0.24721 -0.225256 -3.37341 0.868656 -0.181303 -2.99435 
1.91782 -0.0850092 -2.716 2.96311 0.0608331 -2.64216 3.95067 0.218446 -2.7459 
-5.34258 0.146134 -4.87502 -4.76085 0.776351 -4.74169 -3.95937 1.52796 -4.33269 
-3.17169 2.24699 -3.579 -2.49973 2.83461 -2.82966 -1.7959 3.42552 -2.59637 
-1.00255 4.16796 -2.96978 -0.281629 4.97052 -3.55292 0.264778 5.64087 -3.92298 
-5.31474 -0.831498 -5.0928 -4.88726 -1.4318 -5.33935 -4.37158 -2.15171 -5.52285 
-3.77016 -2.85628 -5.39013 -3.06423 -3.45034 -4.89549 -2.26175 -4.05335 -4.36662 
-1.44764 -4.79214 -4.13235 -0.728941 -5.57361 -4.10154 -0.136541 -6.2317 -3.94713 
-6.33321 -0.0281641 -4.8671 -7.14383 0.378568 -4.69007 -8.01586 0.837672 -4.28567 
-8.87669 1.29314 -3.61261 -9.72505 1.81943 -2.9734 -10.4989 2.55588 -2.76706 
-10.9554 3.41747 -2.87566 -10.9126 4.12443 -2.77087 -10.4729 4.52613 -2.20433 
-6.21499 -0.633013 -4.94216 -6.84433 -0.991287 -4.83524 -7.58725 -1.4938 -4.66349 
-8.29693 -2.11157 -4.43137 -8.72914 -2.68645 -3.9941 -8.87838 -3.07321 -3.19377 
-8.94033 -3.23654 -2.18335 -8.9711 -3.20937 -1.32315 -8.87012 -3.07293 -0.753922 
4.6358 0.889887 -2.76828 4.37518 1.5213 -2.65954 3.99444 2.21613 -2.5638 
3.50659 2.871 -2.41806 2.97476 3.45589 -2.35558 2.48926 4.10083 -2.70757 
2.08487 4.84089 -3.48148 1.6942 5.48052 -4.17394 1.23321 5.8758 -4.32583 
4.41094 -0.274835 -2.88026 3.9314 -1.0245 -2.74964 3.37555 -1.89613 -2.62852 
2.81715 -2.77185 -2.77444 2.33157 -3.53557 -3.27937 1.91035 -4.23794 -3.88331 
1.49508 -4.99623 -4.25053 1.0761 -5.76225 -4.26516 0.693824 -6.36441 -3.98712 
5.50177 0.790605 -2.90443 6.25593 1.33726 -2.79619 7.13357 2.06062 -2.67265 
8.17618 2.92446 -2.67233 9.27713 3.80958 -2.772 10.1992 4.64009 -2.74524 
10.7549 5.34347 -2.36051 10.9258 5.76927 -1.61058 10.803 5.81981 -0.733817 
5.34797 0.0720206 -3.04008 5.90961 -0.29434 -3.07951 6.50818 -0.776587 -2.92523 
7.10358 -1.2977 -2.64545 7.62419 -1.73741 -2.45595 8.07787 -2.11738 -2.40018 
8.49681 -2.59369 -2.21684 8.80588 -3.22188 -1.71536 8.89185 -3.87922 -1.04104 
-4.03155 0.465189 5.19913 -3.14814 0.373462 5.1979 -2.23243 0.273616 5.15692 
-1.28736 0.175927 5.04597 -0.302359 0.0674076 4.83169 0.698402 -0.0367511 4.51293 
1.6517 -0.132373 4.0981 2.52559 -0.254003 3.6151 3.34324 -0.398589 3.15522 
-4.53008 1.14089 5.37813 -4.13813 1.81306 5.65621 -3.67386 2.57481 5.80537 
-3.16371 3.39677 5.63041 -2.65605 4.11917 5.1546 -2.13139 4.64835 4.59579 
-1.52329 5.09862 4.11961 -0.852328 5.60919 3.75947 -0.224125 6.1555 3.48584 
-4.66467 -0.197114 5.07495 -4.44532 -0.983307 5.10067 -4.14343 -1.72895 5.14488 
-3.66073 -2.42721 5.06214 -3.00357 -3.21881 4.84495 -2.30915 -4.11281 4.62393 
-1.6648 -4.93026 4.44271 -1.03134 -5.59993 4.20899 -0.366457 -6.20884 3.86745 
-5.50509 0.859717 5.16656 -6.19011 1.13867 5.05121 -6.86747 1.42047 4.61028 
-7.51427 1.81515 3.71016 -8.12221 2.28843 2.53645 -8.65934 2.70719 1.50335 
-9.10417 3.09222 0.769755 -9.46705 3.5852 0.114869 -9.73782 4.17771 -0.636932 
-5.57671 0.0678867 4.97297 -6.3292 -0.457693 4.64754 -7.05256 -0.992412 4.0826 
-7.63781 -1.40157 3.35339 -7.98126 -1.62089 2.63381 -8.11531 -1.74023 1.9461 
-8.21575 -1.90658 1.22608 -8.38997 -2.1846 0.550643 -8.56011 -2.54805 0.0370661 
4.03199 0.164856 2.97629 3.80003 0.870069 3.07955 3.4066 1.59061 3.10405 
2.95032 2.37221 3.15097 2.52741 3.22186 3.33525 2.11061 4.02683 3.58074 
1.64713 4.71482 3.7063 1.16628 5.35812 3.65638 0.715481 6.01324 3.48687 
3.72486 -1.11458 2.86853 3.43019 -1.74494 3.05453 3.25669 -2.41627 3.41867 
3.03116 -3.17244 3.78194 2.6336 -3.96816 3.90148 2.18504 -4.67468 3.79234 
1.79559 -5.25635 3.68547 1.37883 -5.79619 3.6729 0.858509 -6.33161 3.63849 
4.91284 -0.124606 2.72898 5.73646 0.370562 2.76135 6.49763 0.969088 2.85643 
7.22772 1.64435 2.77157 8.05296 2.35268 2.35618 8.96197 3.02437 1.82693 
9.76127 3.64374 1.45108 10.2844 4.284 1.13721 10.5056 4.96529 0.654647 
4.66186 -0.921122 2.63663 5.27569 -1.28325 2.50635 5.99494 -1.62842 2.3338 
6.7205 -2.06237 1.96789 7.2647 -2.59819 1.35872 7.63104 -3.10942 0.702521 
8.03189 -3.51934 0.285622 8.4999 -3.86914 0.118507 8.79615 -4.18136 -0.0669507 
0.62378 6.43595 -3.31742 0.617228 6.78764 -2.49065 0.697022 7.20027 -1.69451 
0.73899 7.57181 -1.01506 0.617467 7.74385 -0.321524 0.40251 7.72811 0.501925 
0.268447 7.64196 1.38764 0.261849 7.47295 2.1867 0.296588 7.12839 2.80684 
1.49047 6.34023 -3.9952 2.35849 6.55419 -3.7166 3.32429 6.68032 -3.19808 
4.41795 6.60552 -2.67408 5.62816 6.36145 -2.24354 6.86329 6.17988 -1.82764 
8.00518 6.18148 -1.39517 8.99466 6.19213 -0.972995 9.82646 5.99695 -0.522999 
-0.177439 6.08538 -3.31883 -1.18963 6.06303 -2.58258 -2.32167 5.90619 -1.97164 
-3.58156 5.54836 -1.53172 -4.93554 5.23107 -1.15474 -6.26109 5.28495 -0.925766 
-7.44342 5.60412 -1.0271 -8.45094 5.71781 -1.32422 -9.2729 5.36625 -1.48511 
1.04402 6.60286 3.09927 1.86878 6.4601 2.77216 2.79044 6.18571 2.23199 
3.85214 5.80959 1.64517 5.09142 5.42188 1.1712 6.42103 5.16463 0.799157 
7.65518 5.13156 0.504885 8.72018 5.28146 0.32161 9.66516 5.47378 0.192691 
-0.461228 6.85786 3.07312 -1.34292 6.86945 2.86167 -2.34049 6.59968 2.64072 
-3.39351 6.30725 2.38296 -4.45917 6.30928 1.98053 -5.5612 6.48237 1.40566 
-6.71178 6.40072 0.759093 -7.85177 5.9289 0.090295 -8.91616 5.28687 -0.633085 
0.517183 -7.12035 -2.78716 0.690621 -7.53337 -1.97651 0.882483 -7.95654 -1.18605 
1.05268 -8.28784 -0.405555 1.12202 -8.43084 0.404346 1.02259 -8.4085 1.19134 
0.792269 -8.25443 1.88456 0.556011 -7.92328 2.49083 0.396389 -7.40766 3.02914 
1.10953 -6.91251 -3.12879 1.99509 -6.94339 -2.42942 2.97763 -6.86067 -1.71352 
3.92344 -6.78215 -1.38162 4.75625 -6.79153 -1.5216 5.52841 -6.80641 -1.76063 
6.32979 -6.59728 -1.6986 7.18408 -6.02993 -1.31588 8.02575 -5.22542 -0.844154 
-0.237451 -6.60398 -3.19691 -0.9523 -6.35849 -2.67015 -1.87822 -6.16443 -2.15677 
-2.99098 -6.09052 -1.8557 -4.08318 -5.95061 -1.73799 -5.06633 -5.54848 -1.58768 
-6.08134 -4.92956 -1.26785 -7.13932 -4.24047 -0.861761 -8.02157 -3.56071 -0.533754 
1.34927 -7.13019 3.208 2.45331 -7.47753 2.91487 3.52829 -7.80021 2.61872 
4.57649 -7.9839 2.32736 5.62378 -7.92458 1.9825 6.54991 -7.60533 1.47771 
7.201 -7.0511 0.836017 7.65709 -6.28227 0.248373 8.14287 -5.36296 -0.162943 
-0.652816 -6.7954 3.41502 -1.59074 -6.55875 3.22278 -2.49262 -6.03657 2.90837 
-3.42848 -5.4302 2.50679 -4.42487 -5.02696 2.06944 -5.39173 -4.79288 1.6121 
-6.27033 -4.43431 1.09659 -7.1037 -3.87063 0.536465 -7.90234 -3.31261 0.0345109 
11.2246 5.16698 0.183665 11.5865 4.51976 0.378964 11.278 3.63712 0.461329 
10.5289 2.49648 0.297118 10.0829 1.10023 -0.0764588 10.2745 -0.336095 -0.404289 
10.5517 -1.52825 -0.503658 10.3036 -2.48037 -0.461833 9.56919 -3.40944 -0.438199 
-10.7346 3.86778 -1.62937 -11.532 3.02573 -1.69321 -12.1994 2.07746 -1.45155 
-12.5754 0.899026 -0.928495 -12.4253 -0.407132 -0.411164 -11.7108 -1.46962 -0.215087 
-10.752 -2.03301 -0.31351 -9.90394 -2.26275 -0.433661 -9.22784 -2.51374 -0.426279 
-4.38096 0.203565 -4.64561 -3.64472 0.872701 -4.29618 -3.30784 0.27793 -4.22077 
-2.84054 1.63067 -3.61725 -2.5364 0.953198 -3.68547 -2.11766 0.32226 -3.70214 
-2.18548 2.34386 -2.76001 -1.8269 1.70066 -2.90109 -1.3988 0.995567 -3.09088 
-0.867079 0.344375 -3.19975 -1.56051 2.99047 -2.29964 -1.20911 2.43801 -2.23438 
-0.723456 1.76209 -2.44821 -0.196119 1.05489 -2.65946 0.339898 0.405671 -2.79824 
-0.759701 3.70474 -2.61341 -0.459402 3.16451 -2.21875 0.00290311 2.5411 -2.14086 
0.528515 1.86756 -2.31473 1.01559 1.18349 -2.46172 1.47933 0.528306 -2.56934 
0.0896475 4.51975 -3.40542 0.416915 3.94782 -2.87375 0.8229 3.29762 -2.38149 
1.30612 2.65716 -2.26901 1.76821 2.01738 -2.38208 2.19203 1.34146 -2.46729 
2.60122 0.67304 -2.53728 0.756596 5.28797 -4.0852 1.16358 4.76065 -3.68336 
1.54976 4.07076 -2.95425 1.98869 3.38508 -2.44676 2.4614 2.77913 -2.38388 
2.91468 2.14899 -2.49549 3.32909 1.45875 -2.56653 3.68353 0.797436 -2.63909 
-6.02218 0.549303 -4.90599 -6.84713 1.04413 -4.75695 -5.4014 1.28237 -4.82105 
-7.74904 1.53299 -4.22187 -6.23598 1.81184 -4.62293 -4.55199 2.06238 -4.37131 
-8.62952 1.98247 -3.34567 -7.18447 2.25235 -3.90692 -5.37104 2.51818 -4.08739 
-3.68554 2.69949 -3.59551 -9.4104 2.56784 -2.62991 -8.08366 2.68604 -2.86558 
-6.32265 2.89408 -3.28015 -4.40173 3.08236 -3.32718 -2.86517 3.23866 -2.9439 
-9.93854 3.40903 -2.44046 -8.73509 3.34325 -2.12465 -7.16924 3.3752 -2.27933 
-5.24737 3.51919 -2.6414 -3.41886 3.70297 -2.78061 -2.03869 3.92007 -2.79566 
-10.0444 4.30558 -2.44726 -8.9741 4.22539 -1.89695 -7.64198 4.07632 -1.6375 
-5.95638 4.09202 -1.87732 -4.11967 4.2843 -2.27471 -2.51782 4.5272 -2.61053 
-1.27824 4.76156 -3.03235 -9.75679 4.9814 -2.14504 -8.81797 5.08062 -1.74516 
-7.67332 4.87585 -1.34667 -6.27934 4.7112 -1.34652 -4.68732 4.84154 -1.69206 
-3.12814 5.14236 -2.11022 -1.78935 5.38644 -2.6146 -0.675197 5.53432 -3.28091 
-8.19772 6.01947 -0.68154 -7.04935 6.5515 0.107348 -7.28361 6.23315 -0.534877 
-5.89305 6.72085 0.799591 -6.08959 6.46399 0.217919 -6.19679 5.88759 -0.400808 
-4.76861 6.52836 1.32248 -4.94606 6.36867 0.789626 -4.97297 5.93797 0.166222 
-4.97343 5.54039 -0.543239 -3.66757 6.41259 1.63566 -3.85338 6.28811 1.06953 
-3.84152 6.01152 0.522868 -3.75593 5.81939 -0.181549 -3.70919 5.7351 -0.916904 
-2.56983 6.71032 1.8606 -2.77195 6.62759 1.18011 -2.77492 6.46339 0.624421 
-2.63203 6.38433 0.0208894 -2.5507 6.37724 -0.673201 -2.50522 6.25427 -1.35302 
-1.50458 7.15604 2.16486 -1.6923 7.22719 1.41015 -1.72503 7.19087 0.716409 
[...]
POINT_DATA 1002
FIELD FieldData 4
_paraPhi 1 1002 double
6.2831853072 3.1415926536 6.2831853072 3.1415926536 4.7123889804 4.7123889804 1.5707963268 1.5707963268 3.6951670125 
5.7296109483 2.5880182947 0.5535743589 6.2831853072 6.2831853072 6.2831853072 6.2831853072 3.1415926536 3.1415926536 
3.1415926536 3.1415926536 3.1415926536 6.1053039672 5.898798347 5.6768734901 5.4599499503 5.2659633393 5.1032165617 
4.9713148346 4.8656852733 4.7809517865 0.17788134 0.38438696014 0.60631181711 0.82323535693 1.0172219679 1.1799687454 
1.3118704726 1.4175000338 1.5022335207 6.1892828907 6.1070320098 6.035312792 5.9728339911 5.9183214791 5.8706119594 
5.8286879411 5.7916808611 5.7588591896 0.093902416448 0.17615329733 0.2478725152 0.31035131605 0.36486382811 0.41257334776 
0.45449736604 0.4915044461 0.52432611754 3.3194739936 3.5259796137 3.7479044707 3.9648280105 4.1588146215 4.321561399 
4.4534631262 4.5590926874 4.6438261743 2.9637113136 2.7572056934 2.5352808365 2.3183572967 2.1243706857 1.9616239082 
1.829722181 1.7240926197 1.6393591329 3.23549507 3.3177459509 3.3894651688 3.4519439696 3.5064564817 3.5541660013 
3.5960900196 3.6330970997 3.6659187711 3.0476902371 2.9654393563 2.8937201384 2.8312413375 2.7767288255 2.7290193058 
2.6870952876 2.6500882075 2.617266536 6.2831853072 6.2831853072 6.2831853072 6.2831853072 3.1415926536 3.1415926536 
3.1415926536 3.1415926536 3.1415926536 6.1053039672 5.898798347 5.6768734901 5.4599499503 5.2659633393 5.1032165617 
4.9713148346 4.8656852733 4.7809517865 0.17788134 0.38438696014 0.60631181711 0.82323535693 1.0172219679 1.1799687454 
1.3118704726 1.4175000338 1.5022335207 6.1892828907 6.1070320098 6.035312792 5.9728339911 5.9183214791 5.8706119594 
5.8286879411 5.7916808611 5.7588591896 0.093902416448 0.17615329733 0.2478725152 0.31035131605 0.36486382811 0.41257334776 
0.45449736604 0.4915044461 0.52432611754 3.3194739936 3.5259796137 3.7479044707 3.9648280105 4.1588146215 4.321561399 
4.4534631262 4.5590926874 4.6438261743 2.9637113136 2.7572056934 2.5352808365 2.3183572967 2.1243706857 1.9616239082 
1.829722181 1.7240926197 1.6393591329 3.23549507 3.3177459509 3.3894651688 3.4519439696 3.5064564817 3.5541660013 
3.5960900196 3.6330970997 3.6659187711 3.0476902371 2.9654393563 2.8937201384 2.8312413375 2.7767288255 2.7290193058 
2.6870952876 2.6500882075 2.617266536 4.7123889804 4.7123889804 4.7123889804 4.7123889804 4.7123889804 4.7123889804 
4.7123889804 4.7123889804 4.7123889804 4.6087898617 4.4991390697 4.3857031936 4.2712800401 4.1588146215 4.0509635631 
3.94975894 3.8564636551 3.7716124825 4.8159880991 4.9256388911 5.0390747672 5.1534979207 5.2659633393 5.3738143976 
5.4750190208 5.5683143056 5.6531654782 4.6087898617 4.4991390697 4.3857031936 4.2712800401 4.1588146215 4.0509635631 
3.94975894 3.8564636551 3.7716124825 4.8159880991 4.9256388911 5.0390747672 5.1534979207 5.2659633393 5.3738143976 
5.4750190208 5.5683143056 5.6531654782 1.5707963268 1.5707963268 1.5707963268 1.5707963268 1.5707963268 1.5707963268 
1.5707963268 1.5707963268 1.5707963268 1.6743954455 1.7840462375 1.8974821136 2.0119052671 2.1243706857 2.232221744 
2.3334263672 2.426721652 2.5115728246 1.4671972081 1.3575464161 1.24411054 1.1296873865 1.0172219679 0.90937090954 
0.80816628637 0.71487100155 0.63001982895 1.6743954455 1.7840462375 1.8974821136 2.0119052671 2.1243706857 2.232221744 
2.3334263672 2.426721652 2.5115728246 1.4671972081 1.3575464161 1.24411054 1.1296873865 1.0172219679 0.90937090954 
0.80816628637 0.71487100155 0.63001982895 3.6007720849 3.4966939854 3.3839471039 3.2645756454 3.1415926536 3.0186096618 
2.8992382033 2.7864913217 2.6824132222 5.8240058758 5.9280839753 6.0408308569 6.1602023154 6.2831853072 0.12298299178 
0.2423544503 0.35510133185 0.45917943135 6.0560271438 5.7885595667 5.9702140275 5.5125918794 5.6029703303 5.7885595667 
5.2659633393 5.2659633393 5.2659633393 5.2659633393 5.0674903122 5.0120975802 4.9155579264 4.7123889804 4.1588146215 
4.9155579264 4.8353719722 4.7123889804 4.5092200343 4.1588146215 3.6362183941 4.8004512023 4.7123889804 4.5894059886 
4.4126803806 4.1588146215 3.8218076305 3.4545639333 4.7123889804 4.6243267584 4.5092200343 4.3572876485 4.1588146215 
3.9121860814 3.6362183941 3.368750817 6.0174235957 5.9434319871 5.8263323547 5.8809213739 5.7674481418 5.6279784266 
5.8278025282 5.718968232 5.5891129425 5.4372443565 5.7823484065 5.678536687 5.5575666702 5.4192596322 5.2659633393 
5.743164462 5.6444075337 5.5314983644 5.4046708639 5.2659633393 5.1195510325 5.7091357773 5.6152775188 5.5096229709 
5.3926039573 5.2659633393 5.1329233157 4.9978930058 5.6793730533 5.5901633916 5.4910209005 5.3824597928 5.2659633393 
5.1440684722 5.0201624502 4.8979782167 5.5683143056 5.4750190208 5.4750190208 5.3738143976 5.3738143976 5.3738143976 
5.2659633393 5.2659633393 5.2659633393 5.2659633393 5.1534979207 5.1534979207 5.1534979207 5.1534979207 5.1534979207 
5.0390747672 5.0390747672 5.0390747672 5.0390747672 5.0390747672 5.0390747672 4.9256388911 4.9256388911 4.9256388911 
4.9256388911 4.9256388911 4.9256388911 4.9256388911 4.8159880991 4.8159880991 4.8159880991 4.8159880991 4.8159880991 
4.8159880991 4.8159880991 4.8159880991 4.6087898617 4.6087898617 4.4991390697 4.6087898617 4.4991390697 4.3857031936 
4.6087898617 4.4991390697 4.3857031936 4.2712800401 4.6087898617 4.4991390697 4.3857031936 4.2712800401 4.1588146215 
4.6087898617 4.4991390697 4.3857031936 4.2712800401 4.1588146215 4.0509635631 4.6087898617 4.4991390697 4.3857031936 
4.2712800401 4.1588146215 4.0509635631 3.94975894 4.6087898617 4.4991390697 4.3857031936 4.2712800401 4.1588146215 
4.0509635631 3.94975894 3.8564636551 4.526799744 4.4046155105 4.426884955 4.2807094886 4.2918546451 4.3052269283 
4.1588146215 4.1588146215 4.1588146215 4.1588146215 4.042318168 4.0321740035 4.0201070968 4.0055183285 3.9875336042 
3.9337570603 3.9151549899 3.8932795963 3.8672112905 3.8356650183 3.7967995342 3.8346145692 3.809500442 3.7803704271 
3.7462412737 3.7058097288 3.657329819 3.5984456061 3.7454049075 3.7156421835 3.6816134988 3.6424295543 3.5969754326 
3.5438565869 3.4813459737 3.4073543651 3.5642842451 3.4524645613 3.5233842518 3.3320300872 3.403123212 3.4773852225 
3.20576226 3.2746326772 3.348015857 3.4255060145 3.0774230472 3.1415926536 3.2112816139 3.2864685043 3.3668817272 
2.95115522 3.00855263 3.0719036933 3.1415926536 3.2178377658 3.3005964304 2.8307207459 2.8800620952 2.9351694502 
2.9967168029 3.0653475414 3.1415926536 3.225752376 2.718901062 2.7598010554 2.8058000847 2.8576792927 2.91630358 
2.9825888767 3.0574329311 3.1415926536 3.5642842451 3.5233842518 3.4524645613 3.4773852225 3.403123212 3.3320300872 
3.4255060145 3.348015857 3.2746326772 3.20576226 3.3668817272 3.2864685043 3.2112816139 3.1415926536 3.0774230472 
3.3005964304 3.2178377658 3.1415926536 3.0719036933 3.00855263 2.95115522 3.225752376 3.1415926536 3.0653475414 
2.9967168029 2.9351694502 2.8800620952 2.8307207459 3.1415926536 3.0574329311 2.9825888767 2.91630358 2.8576792927 
2.8058000847 2.7598010554 2.718901062 4.526799744 4.426884955 4.4046155105 4.3052269283 4.2918546451 4.2807094886 
4.1588146215 4.1588146215 4.1588146215 4.1588146215 3.9875336042 4.0055183285 4.0201070968 4.0321740035 4.042318168 
3.7967995342 3.8356650183 3.8672112905 3.8932795963 3.9151549899 3.9337570603 3.5984456061 3.657329819 3.7058097288 
3.7462412737 3.7803704271 3.809500442 3.8346145692 3.4073543651 3.4813459737 3.5438565869 3.5969754326 3.6424295543 
3.6816134988 3.7156421835 3.7454049075 4.7123889804 4.8004512023 4.6243267584 4.9155579264 4.7123889804 4.5092200343 
5.0674903122 4.8353719722 4.5894059886 4.3572876485 5.2659633393 5.0120975802 4.7123889804 4.4126803806 4.1588146215 
5.5125918794 5.2659633393 4.9155579264 4.5092200343 4.1588146215 3.9121860814 5.7885595667 5.6029703303 5.2659633393 
4.7123889804 4.1588146215 3.8218076305 3.6362183941 6.0560271438 5.9702140275 5.7885595667 5.2659633393 4.1588146215 
3.6362183941 3.4545639333 3.368750817 0.22715816343 0.49462574053 0.3129712797 0.77059342779 0.68021497688 0.49462574053 
1.0172219679 1.0172219679 1.0172219679 1.0172219679 1.2156949949 1.271087727 1.3676273807 1.5707963268 2.1243706857 
1.3676273807 1.447813335 1.5707963268 1.7739652728 2.1243706857 2.6469669131 1.4827341049 1.5707963268 1.6937793186 
1.8705049266 2.1243706857 2.4613776767 2.8286213739 1.5707963268 1.6588585487 1.7739652728 1.9258976586 2.1243706857 
2.3709992258 2.6469669131 2.9144344902 1.7563855631 1.8785697967 1.8563003522 2.0024758186 1.9913306621 1.9779583789 
2.1243706857 2.1243706857 2.1243706857 2.1243706857 2.2408671392 2.2510113037 2.2630782103 2.2776669786 2.295651703 
2.3494282469 2.3680303173 2.3899057108 2.4159740166 2.4475202889 2.486385773 2.448570738 2.4736848652 2.5028148801 
2.5369440334 2.5773755784 2.6258554882 2.6847397011 2.5377803997 2.5675431237 2.6015718084 2.6407557529 2.6862098746 
2.7393287203 2.8018393335 2.8758309421 1.6743954455 1.6743954455 1.7840462375 1.6743954455 1.7840462375 1.8974821136 
1.6743954455 1.7840462375 1.8974821136 2.0119052671 1.6743954455 1.7840462375 1.8974821136 2.0119052671 2.1243706857 
1.6743954455 1.7840462375 1.8974821136 2.0119052671 2.1243706857 2.232221744 1.6743954455 1.7840462375 1.8974821136 
2.0119052671 2.1243706857 2.232221744 2.3334263672 1.6743954455 1.7840462375 1.8974821136 2.0119052671 2.1243706857 
2.232221744 2.3334263672 2.426721652 1.4671972081 1.3575464161 1.4671972081 1.24411054 1.3575464161 1.4671972081 
1.1296873865 1.24411054 1.3575464161 1.4671972081 1.0172219679 1.1296873865 1.24411054 1.3575464161 1.4671972081 
0.90937090954 1.0172219679 1.1296873865 1.24411054 1.3575464161 1.4671972081 0.80816628637 0.90937090954 1.0172219679 
1.1296873865 1.24411054 1.3575464161 1.4671972081 0.71487100155 0.80816628637 0.90937090954 1.0172219679 1.1296873865 
1.24411054 1.3575464161 1.4671972081 0.60381225391 0.57404952988 0.69302191562 0.54002084522 0.66790778838 0.79216440667 
0.50083690068 0.63877777351 0.77356233629 0.90072551443 0.45538277901 0.60464862014 0.75168694275 0.89058134991 1.0172219679 
0.40226393329 0.56421707518 0.72561863695 0.87851444325 1.0172219679 1.139116835 0.33975332011 0.51573716537 0.69407236469 
0.86392567495 1.0172219679 1.1502619915 1.2630228569 0.26576171152 0.45685295248 0.6552068806 0.84594095064 1.0172219679 
1.1636342747 1.2852923014 1.3852070904 0.22715816343 0.3129712797 0.49462574053 0.49462574053 0.68021497688 0.77059342779 
1.0172219679 1.0172219679 1.0172219679 1.0172219679 2.1243706857 1.5707963268 1.3676273807 1.271087727 1.2156949949 
2.6469669131 2.1243706857 1.7739652728 1.5707963268 1.447813335 1.3676273807 2.8286213739 2.4613776767 2.1243706857 
1.8705049266 1.6937793186 1.5707963268 1.4827341049 2.9144344902 2.6469669131 2.3709992258 2.1243706857 1.9258976586 
1.7739652728 1.6588585487 1.5707963268 1.7563855631 1.8563003522 1.8785697967 1.9779583789 1.9913306621 2.0024758186 
2.1243706857 2.1243706857 2.1243706857 2.1243706857 2.295651703 2.2776669786 2.2630782103 2.2510113037 2.2408671392 
2.486385773 2.4475202889 2.4159740166 2.3899057108 2.3680303173 2.3494282469 2.6847397011 2.6258554882 2.5773755784 
2.5369440334 2.5028148801 2.4736848652 2.448570738 2.8758309421 2.8018393335 2.7393287203 2.6862098746 2.6407557529 
2.6015718084 2.5675431237 2.5377803997 5.8604937156 5.901393709 5.9723133995 5.9473927383 6.0216547488 6.0927478736 
5.9992719463 6.0767621038 6.1501452836 6.2190157008 6.0578962336 6.1383094565 6.2134963469 0 0.064169606361 
6.1241815303 6.206940195 6.2831853072 0.069688960264 0.13304002361 0.19043743361 6.1990255847 0 0.07624511221 
0.14487585072 0.20642320337 0.26153055843 0.3108719077 0 0.084159722458 0.15900377685 0.22528907359 0.28391336087 
0.3357925689 0.38179159818 0.42269159155 5.8604937156 5.9723133995 5.901393709 6.0927478736 6.0216547488 5.9473927383 
6.2190157008 6.1501452836 6.0767621038 5.9992719463 0.064169606361 0 6.2134963469 6.1383094565 6.0578962336 
0.19043743361 0.13304002361 0.069688960264 6.2831853072 6.206940195 6.1241815303 0.3108719077 0.26153055843 0.20642320337 
0.14487585072 0.07624511221 6.2831853072 6.1990255847 0.42269159155 0.38179159818 0.3357925689 0.28391336087 0.22528907359 
0.15900377685 0.084159722458 0 5.6793730533 5.7091357773 5.5901633916 5.743164462 5.6152775188 5.4910209005 
5.7823484065 5.6444075337 5.5096229709 5.3824597928 5.8278025282 5.678536687 5.5314983644 5.3926039573 5.2659633393 
5.8809213739 5.718968232 5.5575666702 5.4046708639 5.2659633393 5.1440684722 5.9434319871 5.7674481418 5.5891129425 
5.4192596322 5.2659633393 5.1329233157 5.0201624502 6.0174235957 5.8263323547 5.6279784266 5.4372443565 5.2659633393 
5.1195510325 4.9978930058 4.8979782167 1.3852070904 1.2852923014 1.2630228569 1.1636342747 1.1502619915 1.139116835 
1.0172219679 1.0172219679 1.0172219679 1.0172219679 0.84594095064 0.86392567495 0.87851444325 0.89058134991 0.90072551443 
0.6552068806 0.69407236469 0.72561863695 0.75168694275 0.77356233629 0.79216440667 0.45685295248 0.51573716537 0.56421707518 
0.60464862014 0.63877777351 0.66790778838 0.69302191562 0.26576171152 0.33975332011 0.40226393329 0.45538277901 0.50083690068 
0.54002084522 0.57404952988 0.60381225391 
_paraPhiHalf 1 1002 double
0 3.1415926536 0 3.1415926536 1.5707963268 1.5707963268 1.5707963268 1.5707963268 2.5880182947 
0.5535743589 2.5880182947 0.5535743589 0 0 0 0 3.1415926536 3.1415926536 
3.1415926536 3.1415926536 3.1415926536 0.17788134 0.38438696014 0.60631181711 0.82323535693 1.0172219679 1.1799687454 
1.3118704726 1.4175000338 1.5022335207 0.17788134 0.38438696014 0.60631181711 0.82323535693 1.0172219679 1.1799687454 
1.3118704726 1.4175000338 1.5022335207 0.093902416448 0.17615329733 0.2478725152 0.31035131605 0.36486382811 0.41257334776 
0.45449736604 0.4915044461 0.52432611754 0.093902416448 0.17615329733 0.2478725152 0.31035131605 0.36486382811 0.41257334776 
0.45449736604 0.4915044461 0.52432611754 2.9637113136 2.7572056934 2.5352808365 2.3183572967 2.1243706857 1.9616239082 
1.829722181 1.7240926197 1.6393591329 2.9637113136 2.7572056934 2.5352808365 2.3183572967 2.1243706857 1.9616239082 
1.829722181 1.7240926197 1.6393591329 3.0476902371 2.9654393563 2.8937201384 2.8312413375 2.7767288255 2.7290193058 
2.6870952876 2.6500882075 2.617266536 3.0476902371 2.9654393563 2.8937201384 2.8312413375 2.7767288255 2.7290193058 
2.6870952876 2.6500882075 2.617266536 0 0 0 0 3.1415926536 3.1415926536 
3.1415926536 3.1415926536 3.1415926536 0.17788134 0.38438696014 0.60631181711 0.82323535693 1.0172219679 1.1799687454 
1.3118704726 1.4175000338 1.5022335207 0.17788134 0.38438696014 0.60631181711 0.82323535693 1.0172219679 1.1799687454 
1.3118704726 1.4175000338 1.5022335207 0.093902416448 0.17615329733 0.2478725152 0.31035131605 0.36486382811 0.41257334776 
0.45449736604 0.4915044461 0.52432611754 0.093902416448 0.17615329733 0.2478725152 0.31035131605 0.36486382811 0.41257334776 
0.45449736604 0.4915044461 0.52432611754 2.9637113136 2.7572056934 2.5352808365 2.3183572967 2.1243706857 1.9616239082 
1.829722181 1.7240926197 1.6393591329 2.9637113136 2.7572056934 2.5352808365 2.3183572967 2.1243706857 1.9616239082 
1.829722181 1.7240926197 1.6393591329 3.0476902371 2.9654393563 2.8937201384 2.8312413375 2.7767288255 2.7290193058 
2.6870952876 2.6500882075 2.617266536 3.0476902371 2.9654393563 2.8937201384 2.8312413375 2.7767288255 2.7290193058 
2.6870952876 2.6500882075 2.617266536 1.5707963268 1.5707963268 1.5707963268 1.5707963268 1.5707963268 1.5707963268 
1.5707963268 1.5707963268 1.5707963268 1.6743954455 1.7840462375 1.8974821136 2.0119052671 2.1243706857 2.232221744 
2.3334263672 2.426721652 2.5115728246 1.4671972081 1.3575464161 1.24411054 1.1296873865 1.0172219679 0.90937090954 
0.80816628637 0.71487100155 0.63001982895 1.6743954455 1.7840462375 1.8974821136 2.0119052671 2.1243706857 2.232221744 
2.3334263672 2.426721652 2.5115728246 1.4671972081 1.3575464161 1.24411054 1.1296873865 1.0172219679 0.90937090954 
0.80816628637 0.71487100155 0.63001982895 1.5707963268 1.5707963268 1.5707963268 1.5707963268 1.5707963268 1.5707963268 
1.5707963268 1.5707963268 1.5707963268 1.6743954455 1.7840462375 1.8974821136 2.0119052671 2.1243706857 2.232221744 
2.3334263672 2.426721652 2.5115728246 1.4671972081 1.3575464161 1.24411054 1.1296873865 1.0172219679 0.90937090954 
0.80816628637 0.71487100155 0.63001982895 1.6743954455 1.7840462375 1.8974821136 2.0119052671 2.1243706857 2.232221744 
2.3334263672 2.426721652 2.5115728246 1.4671972081 1.3575464161 1.24411054 1.1296873865 1.0172219679 0.90937090954 
0.80816628637 0.71487100155 0.63001982895 2.6824132222 2.7864913217 2.8992382033 3.0186096618 3.1415926536 3.0186096618 
2.8992382033 2.7864913217 2.6824132222 0.45917943135 0.35510133185 0.2423544503 0.12298299178 0 0.12298299178 
0.2423544503 0.35510133185 0.45917943135 0.22715816343 0.49462574053 0.3129712797 0.77059342779 0.68021497688 0.49462574053 
1.0172219679 1.0172219679 1.0172219679 1.0172219679 1.2156949949 1.271087727 1.3676273807 1.5707963268 2.1243706857 
1.3676273807 1.447813335 1.5707963268 1.7739652728 2.1243706857 2.6469669131 1.4827341049 1.5707963268 1.6937793186 
1.8705049266 2.1243706857 2.4613776767 2.8286213739 1.5707963268 1.6588585487 1.7739652728 1.9258976586 2.1243706857 
2.3709992258 2.6469669131 2.9144344902 0.26576171152 0.33975332011 0.45685295248 0.40226393329 0.51573716537 0.6552068806 
0.45538277901 0.56421707518 0.69407236469 0.84594095064 0.50083690068 0.60464862014 0.72561863695 0.86392567495 1.0172219679 
0.54002084522 0.63877777351 0.75168694275 0.87851444325 1.0172219679 1.1636342747 0.57404952988 0.66790778838 0.77356233629 
0.89058134991 1.0172219679 1.1502619915 1.2852923014 0.60381225391 0.69302191562 0.79216440667 0.90072551443 1.0172219679 
1.139116835 1.2630228569 1.3852070904 0.71487100155 0.80816628637 0.80816628637 0.90937090954 0.90937090954 0.90937090954 
1.0172219679 1.0172219679 1.0172219679 1.0172219679 1.1296873865 1.1296873865 1.1296873865 1.1296873865 1.1296873865 
1.24411054 1.24411054 1.24411054 1.24411054 1.24411054 1.24411054 1.3575464161 1.3575464161 1.3575464161 
1.3575464161 1.3575464161 1.3575464161 1.3575464161 1.4671972081 1.4671972081 1.4671972081 1.4671972081 1.4671972081 
1.4671972081 1.4671972081 1.4671972081 1.6743954455 1.6743954455 1.7840462375 1.6743954455 1.7840462375 1.8974821136 
1.6743954455 1.7840462375 1.8974821136 2.0119052671 1.6743954455 1.7840462375 1.8974821136 2.0119052671 2.1243706857 
1.6743954455 1.7840462375 1.8974821136 2.0119052671 2.1243706857 2.232221744 1.6743954455 1.7840462375 1.8974821136 
2.0119052671 2.1243706857 2.232221744 2.3334263672 1.6743954455 1.7840462375 1.8974821136 2.0119052671 2.1243706857 
2.232221744 2.3334263672 2.426721652 1.7563855631 1.8785697967 1.8563003522 2.0024758186 1.9913306621 1.9779583789 
2.1243706857 2.1243706857 2.1243706857 2.1243706857 2.2408671392 2.2510113037 2.2630782103 2.2776669786 2.295651703 
2.3494282469 2.3680303173 2.3899057108 2.4159740166 2.4475202889 2.486385773 2.448570738 2.4736848652 2.5028148801 
2.5369440334 2.5773755784 2.6258554882 2.6847397011 2.5377803997 2.5675431237 2.6015718084 2.6407557529 2.6862098746 
2.7393287203 2.8018393335 2.8758309421 2.718901062 2.8307207459 2.7598010554 2.95115522 2.8800620952 2.8058000847 
3.0774230472 3.00855263 2.9351694502 2.8576792927 3.0774230472 3.1415926536 3.0719036933 2.9967168029 2.91630358 
2.95115522 3.00855263 3.0719036933 3.1415926536 3.0653475414 2.9825888767 2.8307207459 2.8800620952 2.9351694502 
2.9967168029 3.0653475414 3.1415926536 3.0574329311 2.718901062 2.7598010554 2.8058000847 2.8576792927 2.91630358 
2.9825888767 3.0574329311 3.1415926536 2.718901062 2.7598010554 2.8307207459 2.8058000847 2.8800620952 2.95115522 
2.8576792927 2.9351694502 3.00855263 3.0774230472 2.91630358 2.9967168029 3.0719036933 3.1415926536 3.0774230472 
2.9825888767 3.0653475414 3.1415926536 3.0719036933 3.00855263 2.95115522 3.0574329311 3.1415926536 3.0653475414 