# vtk DataFile Version 5.1
vtk output
ASCII
DATASET POLYDATA
POINTS 1002 float
18.329 40.5174 13.1578 10.9564 34.8545 16.323 19.5324 37.3343 7.45863 
13.812 29.3793 8.24015 11.1079 40.3094 10.9947 13.0381 37 6.85555 
18.6263 34.9169 16.3742 21.6456 30.9803 12.3943 7.07377 32.337 11.4999 
18.8392 44.1452 7.16125 12.281 28.9175 16.7419 24.4594 40.2069 12.3154 
17.6624 40.0712 13.3274 16.9138 39.6285 13.6273 16.0469 39.1044 13.9474 
15.0372 38.4505 14.184 13.9534 37.8018 14.5049 12.9774 37.2907 15.1135 
12.265 36.8122 15.801 11.7877 36.2133 16.2064 11.3875 35.5226 16.3084 
17.6173 40.7078 13.032 16.799 40.8958 12.956 15.9241 40.9524 12.7674 
15.1241 40.8624 12.3628 14.4491 40.7746 11.9481 13.7451 40.8117 11.8245 
12.8963 40.9113 11.9076 12.0577 40.9098 11.8381 11.4518 40.7029 11.4802 
18.6074 40.1193 13.4873 18.8748 39.8569 14.0052 19.0561 39.6257 14.5352 
19.0871 39.0997 14.8038 18.9966 38.1832 14.856 18.8627 37.2555 15.0635 
18.7302 36.642 15.5581 18.6327 36.1943 16.0621 18.6026 35.6325 16.3274 
18.5657 41.0938 12.959 18.8351 41.6037 12.6552 19.108 41.9537 12.095 
19.2897 42.278 11.4134 19.2781 42.7258 10.8751 19.0996 43.1957 10.4058 
18.9146 43.5449 9.71655 18.837 43.8114 8.80767 18.8379 44.0358 7.91264 
19.1619 40.7522 13.2435 20.0503 41.0836 13.3853 20.9768 41.4541 13.5282 
21.9329 41.784 13.7155 22.9151 41.9687 14.0072 23.8723 41.8544 14.2061 
24.6388 41.4188 13.9907 25.007 40.8863 13.3832 24.907 40.48 12.7355 
10.8142 35.2414 15.9039 10.6497 35.8261 15.5846 10.4685 36.5857 15.3381 
10.3057 37.3084 14.9521 10.2003 37.8342 14.3024 10.1856 38.2457 13.5179 
10.3025 38.7035 12.7689 10.5529 39.2431 12.1044 10.8545 39.8008 11.5176 
11.436 34.9072 16.6867 12.0566 34.9082 16.8589 12.8106 34.8845 16.8446 
13.6349 34.9126 16.8553 14.431 34.9604 16.9446 15.1953 34.9181 16.8323 
16.0465 34.8224 16.4334 17.0062 34.8066 16.1077 17.9143 34.8728 16.1297 
10.4008 34.4038 16.0616 9.80739 33.9741 15.8049 9.17593 33.6615 15.6039 
8.52119 33.4715 15.4157 7.88936 33.3094 15.1232 7.33715 33.1236 14.6068 
6.92486 32.9478 13.8314 6.73342 32.7838 12.9274 6.80583 32.5845 12.1127 
10.7134 34.2336 16.6636 10.4378 33.4954 17.0559 10.2615 32.651 17.3829 
10.2318 31.8487 17.6382 10.2542 31.1392 17.9319 10.3097 30.3953 18.226 
10.5576 29.6312 18.2734 11.0715 29.0833 17.9414 11.7041 28.882 17.3633 
19.2962 36.7054 7.45041 18.8003 35.9705 7.60678 18.1448 35.0717 7.78519 
17.5254 34.0696 7.89071 16.9532 33.1848 8.03906 16.2766 32.4883 8.26966 
15.5008 31.7488 8.36658 14.8009 30.8365 8.24462 14.2601 29.962 8.12979 
19.1349 37.4079 7.21785 18.5332 37.3661 6.91623 17.8437 37.2529 6.50408 
17.2105 37.195 6.14907 16.5424 37.2194 6.03358 15.6754 37.2057 6.07677 
14.759 37.1077 6.14132 14.0585 37.0206 6.2807 13.5514 36.9993 6.54983 
19.6872 36.8085 7.75105 19.6833 36.2035 8.28326 19.6131 35.5503 8.96639 
19.6424 34.9034 9.6116 19.7593 34.2698 10.1936 19.8346 33.5621 10.8001 
19.9722 32.7435 11.3503 20.4041 31.9548 11.7207 21.0704 31.3615 12.0069 
19.4219 38.039 7.47143 19.3563 38.8178 7.49257 19.5749 39.6533 7.25873 
20.0538 40.4887 6.71517 20.4028 41.2475 6.19746 20.3153 41.9672 6.04726 
19.9182 42.7604 6.21598 19.4898 43.5445 6.48314 19.1358 44.0525 6.78388 
19.7507 37.6256 7.76789 19.9991 37.9547 8.28438 20.46 38.3335 8.89334 
21.1098 38.6643 9.3653 21.7176 38.8894 9.70953 22.198 39.1398 10.1926 
22.7169 39.5147 10.8518 23.3665 39.8845 11.4411 24.0091 40.1045 11.877 
13.5251 29.8826 8.05609 13.246 30.5253 7.90508 12.9481 31.1202 7.6279 
12.6543 31.6456 7.24284 12.487 32.3793 7.01737 12.5269 33.4955 7.08879 
12.687 34.7075 7.22219 12.8396 35.6535 7.17433 12.9509 36.3437 6.99636 
14.4152 29.3562 8.46479 15.068 29.5703 8.94182 15.7563 29.9074 9.51374 
16.5451 30.1567 9.96466 17.4631 30.2035 10.3084 18.3994 30.1485 10.7316 
19.273 30.1883 11.2411 20.1362 30.399 11.6862 20.9798 30.6964 12.0401 
13.15 29.3505 8.47313 12.3839 29.5492 8.93034 11.4797 29.7875 9.37817 
10.4281 29.899 9.64462 9.36174 29.924 9.85317 8.51913 30.0275 10.1918 
7.98275 30.3445 10.6033 7.61672 30.9152 10.9445 7.30582 31.6401 11.2175 
13.7085 29.0055 8.66816 13.539 28.9019 9.37409 13.2652 28.9816 10.3125 
12.9072 29.0501 11.3967 12.5582 29.0324 12.5356 12.312 29.0341 13.596 
12.1868 29.1085 14.4881 12.1497 29.1419 15.2725 12.1813 29.0503 16.0335 
11.0912 40.2862 10.354 11.1006 40.2023 9.68841 11.1622 40.0599 9.03144 
11.2527 39.8626 8.36733 11.3091 39.6068 7.75071 11.3933 39.2453 7.32732 
11.676 38.7261 7.13992 12.1644 38.0973 7.06264 12.6673 37.4903 6.97265 
10.7183 39.4729 10.8708 10.1769 38.6131 10.8807 9.36367 37.9946 10.9736 
8.51842 37.5844 11.0188 8.06079 36.9473 11.0203 7.97026 35.855 11.1052 
7.83395 34.6671 11.2767 7.50904 33.7578 11.4148 7.20456 33.0559 11.4731 
11.483 41.0379 10.791 11.898 41.66 10.5142 12.4169 42.1828 10.082 
13.1488 42.6575 9.54884 14.1873 42.9836 9.05116 15.4602 43.062 8.59548 
16.6989 43.1128 8.0953 17.6639 43.4112 7.60029 18.3361 43.8595 7.26662 
12.3328 36.5321 7.20529 11.4779 36.0095 7.56289 10.6033 35.4737 7.88772 
9.80598 34.9263 8.13713 9.10068 34.3006 8.37056 8.53482 33.6186 8.79239 
8.14719 33.0548 9.4943 7.82946 32.7176 10.283 7.45887 32.5233 10.9483 
13.468 37.8019 6.63076 13.9095 38.8244 6.46941 14.3981 39.9834 6.30348 
14.9753 41.0989 6.06303 15.6326 42.0303 5.7618 16.3519 42.7591 5.52943 
17.1279 43.3292 5.54863 17.8771 43.7565 5.89978 18.4611 44.0261 6.489 
19.0154 34.3818 16.5116 19.416 33.7334 16.5913 19.8552 33.0201 16.5675 
20.2998 32.2719 16.4318 20.7148 31.5817 16.1865 21.1798 31.1168 15.7327 
21.7267 30.9385 14.9547 22.1233 30.9303 13.964 22.0943 30.958 13.05 
18.2195 34.1023 16.1524 17.5627 33.2368 15.9396 16.6574 32.4018 15.9494 
15.8473 31.5935 16.3613 15.4733 30.7598 17.0735 15.3459 29.9414 17.6816 
14.9534 29.2991 17.8587 14.1274 28.9537 17.629 13.1358 28.8695 17.2042 
19.2029 35.3805 16.5874 19.9032 35.7965 16.5695 20.9038 36.1747 16.327 
22.0341 36.6207 16.0301 22.8156 37.2577 15.6876 23.1244 38.09 15.1221 
23.3691 38.9554 14.3349 23.8126 39.6361 13.5389 24.2625 40.0315 12.8695 
21.5134 30.5555 12.7199 20.7851 30.2268 13.1845 19.5971 29.9938 13.6269 
18.4189 29.7965 13.9443 17.522 29.5353 14.3037 16.6783 29.2152 14.8987 
15.6206 28.9856 15.5899 14.4308 28.9251 16.1123 13.3013 28.9381 16.4456 
21.7203 31.4912 12.515 21.4923 32.1431 12.6544 21.2732 32.9874 12.7117 
21.4365 34.049 12.6759 21.9328 35.2775 12.6635 22.356 36.6 12.7063 
22.6259 37.919 12.6791 23.0618 39.0389 12.5363 23.7651 39.7891 12.3863 
6.88253 31.6175 11.8985 6.81837 30.6892 12.4794 6.85199 29.7968 13.2953 
6.97854 29.2516 14.2269 7.33759 29.0626 15.0957 8.06633 28.98 15.8198 
9.07478 28.8933 16.3417 10.1563 28.8686 16.6041 11.2209 28.9044 16.6832 
19.3246 44.159 7.65266 19.9664 43.9435 8.25223 20.8487 43.6273 8.91858 
21.7587 43.4175 9.62924 22.4174 43.2103 10.2799 22.9502 42.641 10.7488 
23.6441 41.7183 11.1009 24.348 40.9025 11.4929 24.6551 40.4588 11.9309 
16.8842 40.2342 13.2243 16.0425 40.3583 13.1588 16.0721 39.649 13.4974 
15.2208 40.3149 12.9373 15.2005 39.6001 13.3831 15.1162 38.9491 13.7709 
14.4782 40.168 12.5348 14.3685 39.4712 13.1536 14.1682 38.8372 13.672 
14.0148 38.3173 14.0916 13.71 40.1271 12.2407 13.5449 39.4145 12.8712 
13.2669 38.86 13.5922 13.0158 38.4372 14.202 12.9222 37.9232 14.6673 
12.7941 40.2378 12.2168 12.6212 39.5209 12.7276 12.3862 39.0102 13.5074 
12.1361 38.7146 14.3478 12.0024 38.288 14.9812 12.0638 37.567 15.409 
11.8746 40.3092 12.2073 11.6725 39.6331 12.6709 11.5127 39.108 13.3854 
11.3777 38.8328 14.3016 11.2845 38.5084 15.1089 11.3256 37.8222 15.5951 
11.5211 36.9378 15.8951 11.2129 40.1631 11.9548 10.9518 39.5468 12.4772 
10.7785 38.9957 13.143 10.7171 38.6278 13.9895 10.7165 38.3018 14.8454 
10.78 37.7202 15.433 10.9399 36.8762 15.731 11.1635 36.0779 15.9781 
17.8064 41.2577 12.7967 18.0415 41.6375 12.3443 16.8854 41.3399 12.5936 
18.3227 41.888 11.6203 17.0362 41.5841 11.9607 15.892 41.3031 12.2215 
18.561 42.23 10.901 17.3162 41.8404 11.182 15.9502 41.5527 11.5082 
15.0323 41.2516 11.7444 18.6281 42.6725 10.3767 17.6323 42.2638 10.5363 
16.1872 41.9454 10.8309 15.0115 41.6533 11.1494 14.3465 41.2955 11.4772 
18.5331 43.0246 9.81701 17.7962 42.6548 9.99036 16.4721 42.4306 10.2573 
15.0987 42.1705 10.6168 14.2234 41.817 11.0668 13.6219 41.401 11.5298 
18.4211 43.2918 9.01363 17.7842 42.8824 9.2959 16.6279 42.7463 9.62234 
15.2043 42.6404 10.0144 14.1 42.3325 10.5358 13.4051 41.9072 11.1149 
12.7719 41.4512 11.5684 18.3691 43.5892 8.09914 17.7202 43.1112 8.44421 
16.674 42.9161 8.86669 15.308 42.9134 9.30087 14.0514 42.7417 9.80697 
13.1821 42.3355 10.4113 12.5652 41.8654 10.9549 11.9976 41.3444 11.2946 
17.7776 43.7406 6.70305 16.993 43.4996 6.29535 16.8712 43.3732 7.21641 
16.132 43.0647 6.08815 15.9634 43.208 6.97898 15.74 43.1747 7.84892 
15.3509 42.432 6.06588 15.1205 42.7648 6.79765 14.8588 43.0027 7.63634 
14.5018 43.0747 8.3611 14.684 41.6618 6.21035 14.3862 42.0904 6.66492 
14.1013 42.4668 7.34134 13.7269 42.7375 8.03837 13.3347 42.7997 8.75469 
14.1155 40.7512 6.46459 13.737 41.3189 6.70144 13.3904 41.7234 7.0891 
13.0483 42.0571 7.63428 12.6635 42.2834 8.33214 12.4028 42.3181 9.18456 
13.6213 39.6654 6.69237 13.178 40.3988 6.87014 12.7449 40.8918 7.04688 
12.4242 41.2189 7.37252 12.132 41.4985 7.94521 11.8714 41.6986 8.73915 
11.7835 41.7468 9.64836 13.1469 38.5119 6.83313 12.6695 39.2677 6.99395 
12.192 39.8834 7.10762 11.8901 40.2849 7.31989 11.7163 40.571 7.77619 
11.5457 40.8241 8.44976 11.4145 41.0058 9.23118 11.4007 41.0729 10.0405 
10.7018 39.368 10.2587 10.68 39.2616 9.66923 10.0105 38.5267 10.2854 
10.7061 39.1525 9.06265 9.86534 38.4995 9.68805 8.99667 38.0137 10.2975 
10.7551 38.9725 8.38263 9.87564 38.4457 9.04368 8.79718 38.0385 9.59778 
8.12271 37.6024 10.2168 10.7661 38.6231 7.73869 9.99051 38.1797 8.35772 
8.93295 37.8727 8.94383 8.04958 37.4581 9.47519 7.81581 36.758 10.1958 
10.8604 38.0835 7.33636 10.104 37.6212 7.7876 9.24955 37.3557 8.39043 
8.37462 36.9963 8.93338 7.89158 36.3248 9.53392 7.85235 35.4608 10.3644 
[...]
POINT_DATA 1002
FIELD FieldData 4
_paraPhi 1 1002 double
6.2831853072 3.1415926536 6.2831853072 3.1415926536 4.7123889804 4.7123889804 1.5707963268 1.5707963268 3.6951670125 
5.7296109483 2.5880182947 0.5535743589 6.2831853072 6.2831853072 6.2831853072 6.2831853072 3.1415926536 3.1415926536 
3.1415926536 3.1415926536 3.1415926536 6.1053039672 5.898798347 5.6768734901 5.4599499503 5.2659633393 5.1032165617 
4.9713148346 4.8656852733 4.7809517865 0.17788134 0.38438696014 0.60631181711 0.82323535693 1.0172219679 1.1799687454 
1.3118704726 1.4175000338 1.5022335207 6.1892828907 6.1070320098 6.035312792 5.9728339911 5.9183214791 5.8706119594 
5.8286879411 5.7916808611 5.7588591896 0.093902416448 0.17615329733 0.2478725152 0.31035131605 0.36486382811 0.41257334776 
0.45449736604 0.4915044461 0.52432611754 3.3194739936 3.5259796137 3.7479044707 3.9648280105 4.1588146215 4.321561399 
4.4534631262 4.5590926874 4.6438261743 2.9637113136 2.7572056934 2.5352808365 2.3183572967 2.1243706857 1.9616239082 
1.829722181 1.7240926197 1.6393591329 3.23549507 3.3177459509 3.3894651688 3.4519439696 3.5064564817 3.5541660013 
3.5960900196 3.6330970997 3.6659187711 3.0476902371 2.9654393563 2.8937201384 2.8312413375 2.7767288255 2.7290193058 
2.6870952876 2.6500882075 2.617266536 6.2831853072 6.2831853072 6.2831853072 6.2831853072 3.1415926536 3.1415926536 
3.1415926536 3.1415926536 3.1415926536 6.1053039672 5.898798347 5.6768734901 5.4599499503 5.2659633393 5.1032165617 
4.9713148346 4.8656852733 4.7809517865 0.17788134 0.38438696014 0.60631181711 0.82323535693 1.0172219679 1.1799687454 
1.3118704726 1.4175000338 1.5022335207 6.1892828907 6.1070320098 6.035312792 5.9728339911 5.9183214791 5.8706119594 
5.8286879411 5.7916808611 5.7588591896 0.093902416448 0.17615329733 0.2478725152 0.31035131605 0.36486382811 0.41257334776 
0.45449736604 0.4915044461 0.52432611754 3.3194739936 3.5259796137 3.7479044707 3.9648280105 4.1588146215 4.321561399 
4.4534631262 4.5590926874 4.6438261743 2.9637113136 2.7572056934 2.5352808365 2.3183572967 2.1243706857 1.9616239082 
1.829722181 1.7240926197 1.6393591329 3.23549507 3.3177459509 3.3894651688 3.4519439696 3.5064564817 3.5541660013 
3.5960900196 3.6330970997 3.6659187711 3.0476902371 2.9654393563 2.8937201384 2.8312413375 2.7767288255 2.7290193058 
2.6870952876 2.6500882075 2.617266536 4.7123889804 4.7123889804 4.7123889804 4.7123889804 4.7123889804 4.7123889804 
4.7123889804 4.7123889804 4.7123889804 4.6087898617 4.4991390697 4.3857031936 4.2712800401 4.1588146215 4.0509635631 
3.94975894 3.8564636551 3.7716124825 4.8159880991 4.9256388911 5.0390747672 5.1534979207 5.2659633393 5.3738143976 
5.4750190208 5.5683143056 5.6531654782 4.6087898617 4.4991390697 4.3857031936 4.2712800401 4.1588146215 4.0509635631 
3.94975894 3.8564636551 3.7716124825 4.8159880991 4.9256388911 5.0390747672 5.1534979207 5.2659633393 5.3738143976 
5.4750190208 5.5683143056 5.6531654782 1.5707963268 1.5707963268 1.5707963268 1.5707963268 1.5707963268 1.5707963268 
1.5707963268 1.5707963268 1.5707963268 1.6743954455 1.7840462375 1.8974821136 2.0119052671 2.1243706857 2.232221744 
2.3334263672 2.426721652 2.5115728246 1.4671972081 1.3575464161 1.24411054 1.1296873865 1.0172219679 0.90937090954 
0.80816628637 0.71487100155 0.63001982895 1.6743954455 1.7840462375 1.8974821136 2.0119052671 2.1243706857 2.232221744 
2.3334263672 2.426721652 2.5115728246 1.4671972081 1.3575464161 1.24411054 1.1296873865 1.0172219679 0.90937090954 
0.80816628637 0.71487100155 0.63001982895 3.6007720849 3.4966939854 3.3839471039 3.2645756454 3.1415926536 3.0186096618 
2.8992382033 2.7864913217 2.6824132222 5.8240058758 5.9280839753 6.0408308569 6.1602023154 6.2831853072 0.12298299178 
0.2423544503 0.35510133185 0.45917943135 6.0560271438 5.7885595667 5.9702140275 5.5125918794 5.6029703303 5.7885595667 
5.2659633393 5.2659633393 5.2659633393 5.2659633393 5.0674903122 5.0120975802 4.9155579264 4.7123889804 4.1588146215 
4.9155579264 4.8353719722 4.7123889804 4.5092200343 4.1588146215 3.6362183941 4.8004512023 4.7123889804 4.5894059886 
4.4126803806 4.1588146215 3.8218076305 3.4545639333 4.7123889804 4.6243267584 4.5092200343 4.3572876485 4.1588146215 
3.9121860814 3.6362183941 3.368750817 6.0174235957 5.9434319871 5.8263323547 5.8809213739 5.7674481418 5.6279784266 
5.8278025282 5.718968232 5.5891129425 5.4372443565 5.7823484065 5.678536687 5.5575666702 5.4192596322 5.2659633393 
5.743164462 5.6444075337 5.5314983644 5.4046708639 5.2659633393 5.1195510325 5.7091357773 5.6152775188 5.5096229709 
5.3926039573 5.2659633393 5.1329233157 4.9978930058 5.6793730533 5.5901633916 5.4910209005 5.3824597928 5.2659633393 
5.1440684722 5.0201624502 4.8979782167 5.5683143056 5.4750190208 5.4750190208 5.3738143976 5.3738143976 5.3738143976 
5.2659633393 5.2659633393 5.2659633393 5.2659633393 5.1534979207 5.1534979207 5.1534979207 5.1534979207 5.1534979207 
5.0390747672 5.0390747672 5.0390747672 5.0390747672 5.0390747672 5.0390747672 4.9256388911 4.9256388911 4.9256388911 
4.9256388911 4.9256388911 4.9256388911 4.9256388911 4.8159880991 4.8159880991 4.8159880991 4.8159880991 4.8159880991 
4.8159880991 4.8159880991 4.8159880991 4.6087898617 4.6087898617 4.4991390697 4.6087898617 4.4991390697 4.3857031936 
4.6087898617 4.4991390697 4.3857031936 4.2712800401 4.6087898617 4.4991390697 4.3857031936 4.2712800401 4.1588146215 
4.6087898617 4.4991390697 4.3857031936 4.2712800401 4.1588146215 4.0509635631 4.6087898617 4.4991390697 4.3857031936 
4.2712800401 4.1588146215 4.0509635631 3.94975894 4.6087898617 4.4991390697 4.3857031936 4.2712800401 4.1588146215 
4.0509635631 3.94975894 3.8564636551 4.526799744 4.4046155105 4.426884955 4.2807094886 4.2918546451 4.3052269283 
4.1588146215 4.1588146215 4.1588146215 4.1588146215 4.042318168 4.0321740035 4.0201070968 4.0055183285 3.9875336042 
3.9337570603 3.9151549899 3.8932795963 3.8672112905 3.8356650183 3.7967995342 3.8346145692 3.809500442 3.7803704271 
3.7462412737 3.7058097288 3.657329819 3.5984456061 3.7454049075 3.7156421835 3.6816134988 3.6424295543 3.5969754326 
3.5438565869 3.4813459737 3.4073543651 3.5642842451 3.4524645613 3.5233842518 3.3320300872 3.403123212 3.4773852225 
3.20576226 3.2746326772 3.348015857 3.4255060145 3.0774230472 3.1415926536 3.2112816139 3.2864685043 3.3668817272 
2.95115522 3.00855263 3.0719036933 3.1415926536 3.2178377658 3.3005964304 2.8307207459 2.8800620952 2.9351694502 
2.9967168029 3.0653475414 3.1415926536 3.225752376 2.718901062 2.7598010554 2.8058000847 2.8576792927 2.91630358 
2.9825888767 3.0574329311 3.1415926536 3.5642842451 3.5233842518 3.4524645613 3.4773852225 3.403123212 3.3320300872 
3.4255060145 3.348015857 3.2746326772 3.20576226 3.3668817272 3.2864685043 3.2112816139 3.1415926536 3.0774230472 
3.3005964304 3.2178377658 3.1415926536 3.0719036933 3.00855263 2.95115522 3.225752376 3.1415926536 3.0653475414 
2.9967168029 2.9351694502 2.8800620952 2.8307207459 3.1415926536 3.0574329311 2.9825888767 2.91630358 2.8576792927 
2.8058000847 2.7598010554 2.718901062 4.526799744 4.426884955 4.4046155105 4.3052269283 4.2918546451 4.2807094886 
4.1588146215 4.1588146215 4.1588146215 4.1588146215 3.9875336042 4.0055183285 4.0201070968 4.0321740035 4.042318168 
3.7967995342 3.8356650183 3.8672112905 3.8932795963 3.9151549899 3.9337570603 3.5984456061 3.657329819 3.7058097288 
3.7462412737 3.7803704271 3.809500442 3.8346145692 3.4073543651 3.4813459737 3.5438565869 3.5969754326 3.6424295543 
3.6816134988 3.7156421835 3.7454049075 4.7123889804 4.8004512023 4.6243267584 4.9155579264 4.7123889804 4.5092200343 
5.0674903122 4.8353719722 4.5894059886 4.3572876485 5.2659633393 5.0120975802 4.7123889804 4.4126803806 4.1588146215 
5.5125918794 5.2659633393 4.9155579264 4.5092200343 4.1588146215 3.9121860814 5.7885595667 5.6029703303 5.2659633393 
4.7123889804 4.1588146215 3.8218076305 3.6362183941 6.0560271438 5.9702140275 5.7885595667 5.2659633393 4.1588146215 
3.6362183941 3.4545639333 3.368750817 0.22715816343 0.49462574053 0.3129712797 0.77059342779 0.68021497688 0.49462574053 
1.0172219679 1.0172219679 1.0172219679 1.0172219679 1.2156949949 1.271087727 1.3676273807 1.5707963268 2.1243706857 
1.3676273807 1.447813335 1.5707963268 1.7739652728 2.1243706857 2.6469669131 1.4827341049 1.5707963268 1.6937793186 
1.8705049266 2.1243706857 2.4613776767 2.8286213739 1.5707963268 1.6588585487 1.7739652728 1.9258976586 2.1243706857 
2.3709992258 2.6469669131 2.9144344902 1.7563855631 1.8785697967 1.8563003522 2.0024758186 1.9913306621 1.9779583789 
2.1243706857 2.1243706857 2.1243706857 2.1243706857 2.2408671392 2.2510113037 2.2630782103 2.2776669786 2.295651703 
2.3494282469 2.3680303173 2.3899057108 2.4159740166 2.4475202889 2.486385773 2.448570738 2.4736848652 2.5028148801 
2.5369440334 2.5773755784 2.6258554882 2.6847397011 2.5377803997 2.5675431237 2.6015718084 2.6407557529 2.6862098746 
2.7393287203 2.8018393335 2.8758309421 1.6743954455 1.6743954455 1.7840462375 1.6743954455 1.7840462375 1.8974821136 
1.6743954455 1.7840462375 1.8974821136 2.0119052671 1.6743954455 1.7840462375 1.8974821136 2.0119052671 2.1243706857 
1.6743954455 1.7840462375 1.8974821136 2.0119052671 2.1243706857 2.232221744 1.6743954455 1.7840462375 1.8974821136 
2.0119052671 2.1243706857 2.232221744 2.3334263672 1.6743954455 1.7840462375 1.8974821136 2.0119052671 2.1243706857 
2.232221744 2.3334263672 2.426721652 1.4671972081 1.3575464161 1.4671972081 1.24411054 1.3575464161 1.4671972081 
1.1296873865 1.24411054 1.3575464161 1.4671972081 1.0172219679 1.1296873865 1.24411054 1.3575464161 1.4671972081 
0.90937090954 1.0172219679 1.1296873865 1.24411054 1.3575464161 1.4671972081 0.80816628637 0.90937090954 1.0172219679 
1.1296873865 1.24411054 1.3575464161 1.4671972081 0.71487100155 0.80816628637 0.90937090954 1.0172219679 1.1296873865 
1.24411054 1.3575464161 1.4671972081 0.60381225391 0.57404952988 0.69302191562 0.54002084522 0.66790778838 0.79216440667 
0.50083690068 0.63877777351 0.77356233629 0.90072551443 0.45538277901 0.60464862014 0.75168694275 0.89058134991 1.0172219679 
0.40226393329 0.56421707518 0.72561863695 0.87851444325 1.0172219679 1.139116835 0.33975332011 0.51573716537 0.69407236469 
0.86392567495 1.0172219679 1.1502619915 1.2630228569 0.26576171152 0.45685295248 0.6552068806 0.84594095064 1.0172219679 
1.1636342747 1.2852923014 1.3852070904 0.22715816343 0.3129712797 0.49462574053 0.49462574053 0.68021497688 0.77059342779 
1.0172219679 1.0172219679 1.0172219679 1.0172219679 2.1243706857 1.5707963268 1.3676273807 1.271087727 1.2156949949 
2.6469669131 2.1243706857 1.7739652728 1.5707963268 1.447813335 1.3676273807 2.8286213739 2.4613776767 2.1243706857 
1.8705049266 1.6937793186 1.5707963268 1.4827341049 2.9144344902 2.6469669131 2.3709992258 2.1243706857 1.9258976586 
1.7739652728 1.6588585487 1.5707963268 1.7563855631 1.8563003522 1.8785697967 1.9779583789 1.9913306621 2.0024758186 
2.1243706857 2.1243706857 2.1243706857 2.1243706857 2.295651703 2.2776669786 2.2630782103 2.2510113037 2.2408671392 
2.486385773 2.4475202889 2.4159740166 2.3899057108 2.3680303173 2.3494282469 2.6847397011 2.6258554882 2.5773755784 
2.5369440334 2.5028148801 2.4736848652 2.448570738 2.8758309421 2.8018393335 2.7393287203 2.6862098746 2.6407557529 
2.6015718084 2.5675431237 2.5377803997 5.8604937156 5.901393709 5.9723133995 5.9473927383 6.0216547488 6.0927478736 
5.9992719463 6.0767621038 6.1501452836 6.2190157008 6.0578962336 6.1383094565 6.2134963469 0 0.064169606361 
6.1241815303 6.206940195 6.2831853072 0.069688960264 0.13304002361 0.19043743361 6.1990255847 0 0.07624511221 
0.14487585072 0.20642320337 0.26153055843 0.3108719077 0 0.084159722458 0.15900377685 0.22528907359 0.28391336087 
0.3357925689 0.38179159818 0.42269159155 5.8604937156 5.9723133995 5.901393709 6.0927478736 6.0216547488 5.9473927383 
6.2190157008 6.1501452836 6.0767621038 5.9992719463 0.064169606361 0 6.2134963469 6.1383094565 6.0578962336 
0.19043743361 0.13304002361 0.069688960264 6.2831853072 6.206940195 6.1241815303 0.3108719077 0.26153055843 0.20642320337 
0.14487585072 0.07624511221 6.2831853072 6.1990255847 0.42269159155 0.38179159818 0.3357925689 0.28391336087 0.22528907359 
0.15900377685 0.084159722458 0 5.6793730533 5.7091357773 5.5901633916 5.743164462 5.6152775188 5.4910209005 
5.7823484065 5.6444075337 5.5096229709 5.3824597928 5.8278025282 5.678536687 5.5314983644 5.3926039573 5.2659633393 
5.8809213739 5.718968232 5.5575666702 5.4046708639 5.2659633393 5.1440684722 5.9434319871 5.7674481418 5.5891129425 
5.4192596322 5.2659633393 5.1329233157 5.0201624502 6.0174235957 5.8263323547 5.6279784266 5.4372443565 5.2659633393 
5.1195510325 4.9978930058 4.8979782167 1.3852070904 1.2852923014 1.2630228569 1.1636342747 1.1502619915 1.139116835 
1.0172219679 1.0172219679 1.0172219679 1.0172219679 0.84594095064 0.86392567495 0.87851444325 0.89058134991 0.90072551443 
0.6552068806 0.69407236469 0.72561863695 0.75168694275 0.77356233629 0.79216440667 0.45685295248 0.51573716537 0.56421707518 
0.60464862014 0.63877777351 0.66790778838 0.69302191562 0.26576171152 0.33975332011 0.40226393329 0.45538277901 0.50083690068 
0.54002084522 0.57404952988 0.60381225391 
_paraPhiHalf 1 1002 double
0 3.1415926536 0 3.1415926536 1.5707963268 1.5707963268 1.5707963268 1.5707963268 2.5880182947 
0.5535743589 2.5880182947 0.5535743589 0 0 0 0 3.1415926536 3.1415926536 
3.1415926536 3.1415926536 3.1415926536 0.17788134 0.38438696014 0.60631181711 0.82323535693 1.0172219679 1.1799687454 
1.3118704726 1.4175000338 1.5022335207 0.17788134 0.38438696014 0.60631181711 0.82323535693 1.0172219679 1.1799687454 
1.3118704726 1.4175000338 1.5022335207 0.093902416448 0.17615329733 0.2478725152 0.31035131605 0.36486382811 0.41257334776 
0.45449736604 0.4915044461 0.52432611754 0.093902416448 0.17615329733 0.2478725152 0.31035131605 0.36486382811 0.41257334776 
0.45449736604 0.4915044461 0.52432611754 2.9637113136 2.7572056934 2.5352808365 2.3183572967 2.1243706857 1.9616239082 
1.829722181 1.7240926197 1.6393591329 2.9637113136 2.7572056934 2.5352808365 2.3183572967 2.1243706857 1.9616239082 
1.829722181 1.7240926197 1.6393591329 3.0476902371 2.9654393563 2.8937201384 2.8312413375 2.7767288255 2.7290193058 
2.6870952876 2.6500882075 2.617266536 3.0476902371 2.9654393563 2.8937201384 2.8312413375 2.7767288255 2.7290193058 
2.6870952876 2.6500882075 2.617266536 0 0 0 0 3.1415926536 3.1415926536 
3.1415926536 3.1415926536 3.1415926536 0.17788134 0.38438696014 0.60631181711 0.82323535693 1.0172219679 1.1799687454 
1.3118704726 1.4175000338 1.5022335207 0.17788134 0.38438696014 0.60631181711 0.82323535693 1.0172219679 1.1799687454 
1.3118704726 1.4175000338 1.5022335207 0.093902416448 0.17615329733 0.2478725152 0.31035131605 0.36486382811 0.41257334776 
0.45449736604 0.4915044461 0.52432611754 0.093902416448 0.17615329733 0.2478725152 0.31035131605 0.36486382811 0.41257334776 
0.45449736604 0.4915044461 0.52432611754 2.9637113136 2.7572056934 2.5352808365 2.3183572967 2.1243706857 1.9616239082 
1.829722181 1.7240926197 1.6393591329 2.9637113136 2.7572056934 2.5352808365 2.3183572967 2.1243706857 1.9616239082 
1.829722181 1.7240926197 1.6393591329 3.0476902371 2.9654393563 2.8937201384 2.8312413375 2.7767288255 2.7290193058 
2.6870952876 2.6500882075 2.617266536 3.0476902371 2.9654393563 2.8937201384 2.8312413375 2.7767288255 2.7290193058 
2.6870952876 2.6500882075 2.617266536 1.5707963268 1.5707963268 1.5707963268 1.5707963268 1.5707963268 1.5707963268 
1.5707963268 1.5707963268 1.5707963268 1.6743954455 1.7840462375 1.8974821136 2.0119052671 2.1243706857 2.232221744 
2.3334263672 2.426721652 2.5115728246 1.4671972081 1.3575464161 1.24411054 1.1296873865 1.0172219679 0.90937090954 
0.80816628637 0.71487100155 0.63001982895 1.6743954455 1.7840462375 1.8974821136 2.0119052671 2.1243706857 2.232221744 
2.3334263672 2.426721652 2.5115728246 1.4671972081 1.3575464161 1.24411054 1.1296873865 1.0172219679 0.90937090954 
0.80816628637 0.71487100155 0.63001982895 1.5707963268 1.5707963268 1.5707963268 1.5707963268 1.5707963268 1.5707963268 
1.5707963268 1.5707963268 1.5707963268 1.6743954455 1.7840462375 1.8974821136 2.0119052671 2.1243706857 2.232221744 
2.3334263672 2.426721652 2.5115728246 1.4671972081 1.3575464161 1.24411054 1.1296873865 1.0172219679 0.90937090954 
0.80816628637 0.71487100155 0.63001982895 1.6743954455 1.7840462375 1.8974821136 2.0119052671 2.1243706857 2.232221744 
2.3334263672 2.426721652 2.5115728246 1.4671972081 1.3575464161 1.24411054 1.1296873865 1.0172219679 0.90937090954 
0.80816628637 0.71487100155 0.63001982895 2.6824132222 2.7864913217 2.8992382033 3.0186096618 3.1415926536 3.0186096618 
2.8992382033 2.7864913217 2.6824132222 0.45917943135 0.35510133185 0.2423544503 0.12298299178 0 0.12298299178 
0.2423544503 0.35510133185 0.45917943135 0.22715816343 0.49462574053 0.3129712797 0.77059342779 0.68021497688 0.49462574053 
1.0172219679 1.0172219679 1.0172219679 1.0172219679 1.2156949949 1.271087727 1.3676273807 1.5707963268 2.1243706857 
1.3676273807 1.447813335 1.5707963268 1.7739652728 2.1243706857 2.6469669131 1.4827341049 1.5707963268 1.6937793186 
1.8705049266 2.1243706857 2.4613776767 2.8286213739 1.5707963268 1.6588585487 1.7739652728 1.9258976586 2.1243706857 
2.3709992258 2.6469669131 2.9144344902 0.26576171152 0.33975332011 0.45685295248 0.40226393329 0.51573716537 0.6552068806 
0.45538277901 0.56421707518 0.69407236469 0.84594095064 0.50083690068 0.60464862014 0.72561863695 0.86392567495 1.0172219679 
0.54002084522 0.63877777351 0.75168694275 0.87851444325 1.0172219679 1.1636342747 0.57404952988 0.66790778838 0.77356233629 
0.89058134991 1.0172219679 1.1502619915 1.2852923014 0.60381225391 0.69302191562 0.79216440667 0.90072551443 1.0172219679 
1.139116835 1.2630228569 1.3852070904 0.71487100155 0.80816628637 0.80816628637 0.90937090954 0.90937090954 0.90937090954 
1.0172219679 1.0172219679 1.0172219679 1.0172219679 1.1296873865 1.1296873865 1.1296873865 1.1296873865 1.1296873865 
1.24411054 1.24411054 1.24411054 1.24411054 1.24411054 1.24411054 1.3575464161 1.3575464161 1.3575464161 
1.3575464161 1.3575464161 1.3575464161 1.3575464161 1.4671972081 1.4671972081 1.4671972081 1.4671972081 1.4671972081 
1.4671972081 1.4671972081 1.4671972081 1.6743954455 1.6743954455 1.7840462375 1.6743954455 1.7840462375 1.8974821136 
1.6743954455 1.7840462375 1.8974821136 2.0119052671 1.6743954455 1.7840462375 1.8974821136 2.0119052671 2.1243706857 
1.6743954455 1.7840462375 1.8974821136 2.0119052671 2.1243706857 2.232221744 1.6743954455 1.7840462375 1.8974821136 
2.0119052671 2.1243706857 2.232221744 2.3334263672 1.6743954455 1.7840462375 1.8974821136 2.0119052671 2.1243706857 
2.232221744 2.3334263672 2.426721652 1.7563855631 1.8785697967 1.8563003522 2.0024758186 1.9913306621 1.9779583789 
2.1243706857 2.1243706857 2.1243706857 2.1243706857 2.2408671392 2.2510113037 2.2630782103 2.2776669786 2.295651703 
2.3494282469 2.3680303173 2.3899057108 2.4159740166 2.4475202889 2.486385773 2.448570738 2.4736848652 2.5028148801 
2.5369440334 2.5773755784 2.6258554882 2.6847397011 2.5377803997 2.5675431237 2.6015718084 2.6407557529 2.6862098746 
2.7393287203 2.8018393335 2.8758309421 2.718901062 2.8307207459 2.7598010554 2.95115522 2.8800620952 2.8058000847 
3.0774230472 3.00855263 2.9351694502 2.8576792927 3.0774230472 3.1415926536 3.0719036933 2.9967168029 2.91630358 
2.95115522 3.00855263 3.0719036933 3.1415926536 3.0653475414 2.9825888767 2.8307207459 2.8800620952 2.9351694502 
2.9967168029 3.0653475414 3.1415926536 3.0574329311 2.718901062 2.7598010554 2.8058000847 2.8576792927 2.91630358 
2.9825888767 3.0574329311 3.1415926536 2.718901062 2.7598010554 2.8307207459 2.8058000847 2.8800620952 2.95115522 
2.8576792927 2.9351694502 3.00855263 3.0774230472 2.91630358 2.9967168029 3.0719036933 3.1415926536 3.0774230472 
2.9825888767 3.0653475414 3.1415926536 3.0719036933 3.00855263 2.95115522 3.0574329311 3.1415926536 3.0653475414 