# vtk DataFile Version 5.1
vtk output
ASCII
DATASET POLYDATA
POINTS 100 float
24.3658 42.9681 9.64942 24.3722 42.966 9.65471 24.3896 42.9586 9.66685 
24.4149 42.9456 9.68577 24.4438 42.9267 9.71133 24.4707 42.9013 9.74323 
24.4893 42.8689 9.78099 24.4934 42.8289 9.8239 24.477 42.7806 9.871 
24.4354 42.7234 9.92111 24.3652 42.6567 9.97287 24.2646 42.5799 10.0248 
24.1338 42.4926 10.0754 23.9747 42.3947 10.1234 23.7908 42.2859 10.1677 
23.5865 42.1664 10.2075 23.3676 42.0362 10.2427 23.1396 41.8957 10.2736 
22.9084 41.7455 10.3008 22.6789 41.586 10.3256 22.4554 41.4181 10.3496 
22.2408 41.2425 10.3746 22.0369 41.06 10.4022 21.8442 40.8716 10.4341 
21.6618 40.6781 10.4716 21.4882 40.4803 10.5155 21.321 40.2789 10.5659 
21.1574 40.0745 10.6225 20.9946 39.8677 10.6844 20.8299 39.6588 10.7503 
20.6612 39.448 10.8185 20.4866 39.2355 10.8872 20.3052 39.0212 10.9548 
20.1165 38.8051 11.0197 19.9206 38.5873 11.0809 19.7181 38.3678 11.138 
19.5099 38.1466 11.1908 19.2973 37.924 11.2401 19.0814 37.7005 11.2868 
18.8632 37.4764 11.3324 18.6438 37.2526 11.3784 18.4239 37.0297 11.4266 
18.2038 36.8085 11.4783 17.9839 36.5898 11.5347 17.7642 36.3743 11.5967 
17.5444 36.1625 11.6645 17.3244 35.9546 11.738 17.1038 35.7508 11.8165 
16.8825 35.5508 11.8992 16.6601 35.3542 11.9849 16.4367 35.1602 12.0724 
16.2121 34.9682 12.1603 15.9867 34.7771 12.2478 15.7605 34.5861 12.334 
15.534 34.3945 12.4183 15.3074 34.2015 12.5007 15.0811 34.0069 12.5812 
14.8555 33.8104 12.6603 14.6307 33.6122 12.7383 14.4068 33.4124 12.8161 
14.1837 33.2117 12.8941 13.9609 33.0104 12.9729 13.7381 32.809 13.0528 
13.5142 32.6081 13.1342 13.2885 32.4079 13.217 13.0599 32.2087 13.3011 
12.827 32.0103 13.3862 12.5888 31.8125 13.4719 12.3442 31.6152 13.5577 
12.0924 31.418 13.6433 11.8327 31.2206 13.7281 11.5651 31.023 13.8119 
11.2899 30.8251 13.8944 11.0078 30.6274 13.9754 10.7201 30.4304 14.0548 
10.4285 30.2351 14.1325 10.135 30.0423 14.2088 9.84212 29.8534 14.2838 
9.55223 29.6695 14.3575 9.26785 29.4917 14.4304 8.99133 29.321 14.5026 
8.72478 29.1581 14.5745 8.46998 29.0032 14.6463 8.22827 28.8564 14.7184 
8.0006 28.7174 14.7909 7.78749 28.5856 14.864 7.58912 28.4604 14.9377 
7.4054 28.3411 15.0117 7.23606 28.2271 15.0858 7.08078 28.1182 15.1593 
6.93928 28.0143 15.2314 6.81138 27.9159 15.3011 6.69706 27.8237 15.367 
6.59651 27.739 15.4278 6.51005 27.6632 15.482 6.43816 27.5979 15.5281 
6.38136 27.5449 15.5649 6.34019 27.5054 15.5911 6.31508 27.4807 15.6059 
6.30632 27.4717 15.6088 
LINES 2 100
OFFSETS vtktypeint64
0 100 
CONNECTIVITY vtktypeint64
0 1 2 3 4 5 6 7 8 
9 10 11 12 13 14 15 16 17 
18 19 20 21 22 23 24 25 26 
27 28 29 30 31 32 33 34 35 
36 37 38 39 40 41 42 43 44 
45 46 47 48 49 50 51 52 53 
54 55 56 57 58 59 60 61 62 
63 64 65 66 67 68 69 70 71 
72 73 74 75 76 77 78 79 80 
81 82 83 84 85 86 87 88 89 
90 91 92 93 94 95 96 97 98 
99 
POINT_DATA 100
FIELD FieldData 3
_theta 1 100 double
0 0.031733259127 0.063466518254 0.095199777382 0.12693303651 0.15866629564 0.19039955476 0.22213281389 0.25386607302 
0.28559933214 0.31733259127 0.3490658504 0.38079910953 0.41253236865 0.44426562778 0.47599888691 0.50773214603 0.53946540516 
0.57119866429 0.60293192342 0.63466518254 0.66639844167 0.6981317008 0.72986495992 0.76159821905 0.79333147818 0.82506473731 
0.85679799643 0.88853125556 0.92026451469 0.95199777382 0.98373103294 1.0154642921 1.0471975512 1.0789308103 1.1106640695 
1.1423973286 1.1741305877 1.2058638468 1.237597106 1.2693303651 1.3010636242 1.3327968833 1.3645301425 1.3962634016 
1.4279966607 1.4597299198 1.491463179 1.5231964381 1.5549296972 1.5866629564 1.6183962155 1.6501294746 1.6818627337 
1.7135959929 1.745329252 1.7770625111 1.8087957702 1.8405290294 1.8722622885 1.9039955476 1.9357288068 1.9674620659 
1.999195325 2.0309285841 2.0626618433 2.0943951024 2.1261283615 2.1578616206 2.1895948798 2.2213281389 2.253061398 
2.2847946572 2.3165279163 2.3482611754 2.3799944345 2.4117276937 2.4434609528 2.4751942119 2.506927471 2.5386607302 
2.5703939893 2.6021272484 2.6338605076 2.6655937667 2.6973270258 2.7290602849 2.7607935441 2.7925268032 2.8242600623 
2.8559933214 2.8877265806 2.9194598397 2.9511930988 2.982926358 3.0146596171 3.0463928762 3.0781261353 3.1098593945 
3.1415926536 
_radius 1 100 double
8.7889282532e-14 0.27429435085 0.54868819067 0.8231276769 1.0971618012 1.3698083038 1.6394994084 1.9041215466 2.1611513187 
2.4078777329 2.6416884628 2.8603860206 3.0624905171 3.2474819856 3.4159392169 3.5695441082 3.7109394671 3.8434515421 
3.9707124234 4.09623635 4.2230116342 4.3531628956 4.4877198696 4.6265086693 4.7681681113 4.9102892711 5.049674239 
5.1827012673 5.3057649965 5.4157383768 5.5103887474 5.5886826119 5.6509319745 5.6987631032 5.7349181009 5.7629243077 
5.7866825127 5.8100308113 5.8363376273 5.8681677053 5.9070519912 5.9533785488 6.0064081622 6.0644058521 6.1248689254 
6.1848235927 6.2411553362 6.2909334806 6.3316898302 6.3616173803 6.3796685693 6.3855504381 6.3796313728 6.3627864018 
6.3362132376 6.3012496849 6.2592162646 6.2112980134 6.158469002 6.101455306 6.0407294894 5.9765317994 5.9089163043 
5.8378191795 5.7631397247 5.684816398 5.6028767503 5.5174457996 5.428710808 5.3368557637 5.2419892286 5.1440903044 
5.0429897528 4.938391113 4.8299252551 4.7172243186 4.5999978352 4.4780941497 4.3515334525 4.2205043805 4.0853229202 
3.9463579284 3.8039302613 3.658192937 3.5090011189 3.3557868135 3.1974651332 3.0324109464 2.8585431999 2.673527595 
2.4750637902 2.2611891195 2.0305317712 1.7824790145 1.5172633687 1.2359868345 0.94059688708 0.63381374803 0.31900364465 
3.1525369845e-14 
_area 1 100 double
0 0.21165056942 0.85248056347 1.9376568958 3.484493917 5.5020993116 7.9809009453 10.885414161 14.152238059 
17.693604407 21.40564165 25.179774882 28.915228838 32.530528653 35.972251041 39.219882765 42.286241257 45.213438274 
48.064911715 50.914669763 53.835603508 56.889351375 60.11996507 63.551804393 67.189517153 71.016703925 74.991101262 
79.037400749 83.042854736 86.863127484 90.342279387 93.341423762 95.765108619 97.578107008 98.810968217 99.555362644 
99.951298042 100.16900397 100.38865221 100.7812199 101.49590206 102.67490241 104.43609322 106.68091279 109.23233911 
111.93308594 114.60727783 117.08351256 119.21868486 120.91365715 122.116955 122.81632872 123.02263752 122.75387746 
122.02864968 120.86811305 119.30012081 117.36361352 115.11325765 112.62494968 110.00452159 107.43050904 105.05488995 
102.6882162 100.26922076 97.786402172 95.250300728 92.678125023 90.081355309 87.458521693 84.794640456 82.065930616 
79.247083917 76.318478514 73.271324396 70.109622774 66.848807143 63.511683956 60.122802677 56.702818146 53.264621049 
49.812579734 46.345035014 42.858758573 39.353263296 35.833173768 32.30820599 28.791874397 25.300794474 21.855834156 
18.484831637 15.225259856 12.125049133 9.2409459904 6.635416871 4.3737191786 2.5215577744 1.14184603 0.28882935452 
7.1054273576e-14 
