# vtk DataFile Version 5.1
vtk output
ASCII
DATASET POLYDATA
POINTS 100 float
22.8659 46.7542 9.5526 22.8623 46.7438 9.55488 22.849 46.7096 9.55618 
22.8254 46.6522 9.55703 22.7902 46.573 9.55833 22.7422 46.4734 9.56121 
22.6801 46.3558 9.56696 22.6032 46.2223 9.57685 22.5112 46.0756 9.59207 
22.4049 45.9184 9.61351 22.2856 45.7532 9.64176 22.1556 45.5825 9.67696 
22.0179 45.4083 9.71886 21.8757 45.232 9.76678 21.7324 45.0546 9.8197 
21.5913 44.8764 9.87632 21.455 44.6971 9.93525 21.3254 44.5156 9.99504 
21.2035 44.3308 10.0544 21.0892 44.1409 10.1123 20.9815 43.9443 10.1679 
20.8787 43.7395 10.221 20.7786 43.5252 10.2716 20.6785 43.3008 10.3203 
20.5759 43.0662 10.3679 20.4686 42.8218 10.4157 20.3548 42.5688 10.465 
20.2336 42.309 10.5173 20.1044 42.0441 10.574 19.9676 41.7764 10.6366 
19.8236 41.5079 10.706 19.6735 41.2403 10.7832 19.5184 40.975 10.8684 
19.359 40.7127 10.9619 19.1962 40.4538 11.0632 19.0301 40.1978 11.1718 
18.8606 39.9442 11.2868 18.6873 39.6918 11.4071 18.5097 39.4396 11.5315 
18.3271 39.1867 11.6585 18.139 38.9323 11.7871 17.9451 38.6763 11.916 
17.7458 38.4186 12.0443 17.5417 38.1601 12.1711 17.3341 37.9016 12.2959 
17.1245 37.6445 12.4183 16.9147 37.3902 12.5382 16.7065 37.1399 12.6555 
16.5017 36.8946 12.7705 16.3014 36.655 12.8833 16.1066 36.4212 12.9941 
15.9174 36.193 13.1032 15.7334 35.9697 13.2107 15.5536 35.7501 13.3166 
15.3767 35.5333 13.4208 15.201 35.3179 13.5231 15.025 35.1031 13.6232 
14.847 34.8881 13.7208 14.666 34.6727 13.8155 14.481 34.457 13.907 
14.2918 34.2414 13.9952 14.0985 34.0266 14.0801 13.9016 33.8136 14.1619 
13.7017 33.6031 14.2411 13.4995 33.3958 14.3181 13.2957 33.1917 14.394 
13.0907 32.991 14.4696 12.8848 32.793 14.546 12.6779 32.597 14.6243 
12.4696 32.4017 14.7052 12.2596 32.2063 14.7897 12.0475 32.0097 14.878 
11.833 31.8113 14.9706 11.6162 31.6111 15.0671 11.3973 31.4095 15.1673 
11.1772 31.2075 15.2706 10.9567 31.0065 15.376 10.7372 30.8083 15.4828 
10.5197 30.6149 15.5901 10.3053 30.4281 15.6971 10.0947 30.2493 15.8032 
9.88796 30.0793 15.9081 9.68464 29.9183 16.0116 9.48372 29.7658 16.114 
9.28372 29.6204 16.2156 9.08291 29.4805 16.3166 8.87961 29.3441 16.4175 
8.67248 29.2091 16.5184 8.46093 29.0741 16.6194 8.24537 28.9382 16.7201 
8.02742 28.8014 16.8195 7.81005 28.6648 16.9165 7.5975 28.5305 17.0094 
7.39508 28.4018 17.0961 7.20887 28.2825 17.1745 7.04527 28.1769 17.2422 
6.91049 28.0892 17.2971 6.81 28.0233 17.3372 6.74811 27.9824 17.361 
6.72755 27.9682 17.3675 
LINES 2 100
OFFSETS vtktypeint64
0 100 
CONNECTIVITY vtktypeint64
0 1 2 3 4 5 6 7 8 
9 10 11 12 13 14 15 16 17 
18 19 20 21 22 23 24 25 26 
27 28 29 30 31 32 33 34 35 
36 37 38 39 40 41 42 43 44 
45 46 47 48 49 50 51 52 53 
54 55 56 57 58 59 60 61 62 
63 64 65 66 67 68 69 70 71 
72 73 74 75 76 77 78 79 80 
81 82 83 84 85 86 87 88 89 
90 91 92 93 94 95 96 97 98 
99 
POINT_DATA 100
FIELD FieldData 3
_theta 1 100 double
0 0.031733259127 0.063466518254 0.095199777382 0.12693303651 0.15866629564 0.19039955476 0.22213281389 0.25386607302 
0.28559933214 0.31733259127 0.3490658504 0.38079910953 0.41253236865 0.44426562778 0.47599888691 0.50773214603 0.53946540516 
0.57119866429 0.60293192342 0.63466518254 0.66639844167 0.6981317008 0.72986495992 0.76159821905 0.79333147818 0.82506473731 
0.85679799643 0.88853125556 0.92026451469 0.95199777382 0.98373103294 1.0154642921 1.0471975512 1.0789308103 1.1106640695 
1.1423973286 1.1741305877 1.2058638468 1.237597106 1.2693303651 1.3010636242 1.3327968833 1.3645301425 1.3962634016 
1.4279966607 1.4597299198 1.491463179 1.5231964381 1.5549296972 1.5866629564 1.6183962155 1.6501294746 1.6818627337 
1.7135959929 1.745329252 1.7770625111 1.8087957702 1.8405290294 1.8722622885 1.9039955476 1.9357288068 1.9674620659 
1.999195325 2.0309285841 2.0626618433 2.0943951024 2.1261283615 2.1578616206 2.1895948798 2.2213281389 2.253061398 
2.2847946572 2.3165279163 2.3482611754 2.3799944345 2.4117276937 2.4434609528 2.4751942119 2.506927471 2.5386607302 
2.5703939893 2.6021272484 2.6338605076 2.6655937667 2.6973270258 2.7290602849 2.7607935441 2.7925268032 2.8242600623 
2.8559933214 2.8877265806 2.9194598397 2.9511930988 2.982926358 3.0146596171 3.0463928762 3.0781261353 3.1098593945 
3.1415926536 
_radius 1 100 double
3.6620534388e-14 0.31398712947 0.62243166503 0.92022067279 1.2032797967 1.4688977766 1.7158543455 1.9443514901 2.1557846954 
2.3524148798 2.5370064357 2.7124822655 2.8816211758 3.0468000455 3.2097754329 3.3715106027 3.5320749377 3.6906551757 
3.8457076206 3.9952479054 4.1372345355 4.2699720259 4.3924498323 4.5045457962 4.6070523173 4.701522048 4.7899688673 
4.8744903916 4.9568926492 5.0383916922 5.1194428623 5.1997146539 5.2781927181 5.3533805901 5.4235598621 5.4870781821 
5.5426396501 5.5895730254 5.6280485417 5.6592082281 5.6851734205 5.7089024509 5.7338942714 5.7637667037 5.8017707822 
5.8503224489 5.9106315109 5.9824866248 6.0642233274 6.1528704277 6.2444451819 6.3343520116 6.4178330411 6.4904195155 
6.5483380594 6.5888322197 6.6103675764 6.6126992246 6.5967946273 6.5646220677 6.5188328909 6.4623809851 6.3981318896 
6.3285140135 6.2552557212 6.1792372996 6.100469973 6.0181975992 5.9311008763 5.8375696519 5.7359995103 5.6250677729 
5.5039514702 5.372461839 5.2310820039 5.0809049124 4.9234786832 4.7605786078 4.5939390197 4.424989959 4.2546466456 
4.0831904066 3.9102596886 3.7349455951 3.5559653774 3.3718746828 3.1812769028 2.9829945345 2.7761802552 2.5603614268 
2.3354278375 2.1015844154 1.859293621 1.6092246725 1.352213915 1.0892317257 0.82135117719 0.54971840879 0.27552734978 
6.4364470507e-14 
_area 1 100 double
0 0.2741894278 1.0860761347 2.402977127 4.1695368791 6.3096357023 8.7326759207 11.343933579 14.056804448 
16.804044349 19.545479169 22.270642673 24.995939681 27.757050282 30.598228821 33.560505976 36.67045432 39.931056401 
43.317028427 46.776979333 50.242419657 53.640951395 56.910114323 60.008765084 62.92386291 65.671979399 68.295683971 
70.854103581 73.406012294 75.988633456 78.604900224 81.226818607 83.806985233 86.290205206 88.62362738 90.763879043 
92.677302364 94.332581221 95.698339996 96.762653965 97.563901838 98.205539004 98.845037071 99.664806184 100.83793799 
102.49824731 104.71868512 107.49976272 110.76863285 114.38776371 118.1711008 121.90610722 125.37980405 128.40450682 
130.83622668 132.57957631 133.58097803 133.81849721 133.29690912 132.05104775 130.15220886 127.70986099 124.8643598 
121.7703738 118.57367878 115.38645396 112.26787227 109.21636705 106.17688575 103.06171602 99.778913024 96.25954861 
92.475206424 88.440858944 84.20409069 79.826753455 75.367198297 70.869442497 66.361253908 61.85892209 57.374478024 
52.9214425 48.516957438 44.180368721 39.930037953 35.78075551 31.743506124 27.827884784 24.045962717 20.415733265 
16.962783864 13.720028367 10.72617984 8.0235559874 5.6552592619 3.6617485088 2.0774765734 0.92868544835 0.23294242095 
2.2322700392e-13 
