# vtk DataFile Version 5.1
vtk output
ASCII
DATASET POLYDATA
POINTS 1002 float
22.8346 37.4641 15.8484 11.0968 33.6441 17.6975 23.686 32.9921 9.4164 
12.2921 28.5522 10.0551 14.2676 40.1286 11.3585 15.2581 36.9518 5.90778 
19.4967 29.2743 18.5481 21.9299 25.2062 13.6178 6.44175 33.9667 11.4765 
25.5412 40.7336 10.4861 7.66874 24.8512 18.9526 28.6134 34.3427 15.7747 
21.736 37.1214 15.9502 20.6287 36.7182 16.0613 19.4785 36.4402 16.2848 
18.2252 36.3456 16.6632 16.914 36.1931 17.0678 15.6583 35.74 17.3141 
14.4734 35.0789 17.3768 13.3016 34.4623 17.3987 12.1508 33.9981 17.5067 
22.108 37.8007 15.4977 21.3196 38.0715 15.0193 20.5647 38.3036 14.5024 
19.7774 38.5588 14.0357 18.7882 38.894 13.6162 17.6294 39.3152 13.2186 
16.5563 39.7299 12.8345 15.7011 40.0102 12.4128 14.9721 40.1218 11.9073 
22.7637 36.8883 16.2152 22.5896 36.2136 16.6088 22.3865 35.4575 17.0984 
22.1978 34.7172 17.7854 21.9199 34.0484 18.595 21.4391 33.3132 19.2207 
20.8324 32.3373 19.4185 20.2718 31.1909 19.2327 19.8335 30.1197 18.8786 
23.544 37.984 15.5631 24.2896 38.575 15.3219 25.026 39.2742 15.1203 
25.6972 40.013 14.8744 26.222 40.6173 14.4999 26.5199 40.961 13.9418 
26.5649 41.0556 13.1457 26.3812 40.993 12.1631 26.0161 40.8683 11.21 
23.9525 37.3398 15.8981 25.0564 37.1502 15.9197 26.0567 37.093 16.1541 
27.041 37.204 16.7631 28.0933 37.1711 17.48 28.9822 36.7311 17.7872 
29.368 36.048 17.5064 29.2578 35.4077 16.9069 28.936 34.8648 16.2941 
11.1432 34.3804 17.302 11.2092 35.2172 16.8832 11.3808 36.063 16.3831 
11.7237 36.8428 15.763 12.1593 37.5577 15.0641 12.5537 38.2068 14.3205 
12.9152 38.7537 13.5088 13.3357 39.2176 12.6695 13.8133 39.6683 11.9283 
11.6716 33.2106 18.0021 12.2749 32.8522 18.3753 12.9846 32.4829 18.7388 
13.9364 31.997 18.9861 15.1256 31.4067 19.0199 16.3291 30.8186 18.793 
17.3271 30.3044 18.4318 18.1115 29.8775 18.2101 18.8074 29.5364 18.2799 
10.1299 33.7749 17.661 9.23446 33.9256 17.5134 8.52677 33.9994 17.1023 
7.96352 33.9736 16.4422 7.41623 33.9217 15.7292 6.90132 33.8974 15.0692 
6.54983 33.8806 14.3319 6.39263 33.8669 13.3995 6.36723 33.8931 12.3791 
10.4462 32.9808 18.0851 9.78951 32.1825 18.4772 9.16025 31.1928 18.7986 
8.59849 30.0386 18.9933 8.14143 28.8396 19.1222 7.78324 27.6559 19.3262 
7.50242 26.5002 19.5984 7.34482 25.5352 19.721 7.3944 24.9823 19.502 
22.9678 32.4381 9.24629 22.1166 31.8913 9.08615 21.0406 31.3378 8.98121 
19.7372 30.8283 9.02206 18.348 30.4409 9.25369 16.9996 30.1291 9.55869 
15.6894 29.7568 9.76289 14.4172 29.3011 9.84462 13.2643 28.8689 9.91412 
22.9959 33.4455 9.10576 22.2578 33.8854 8.70463 21.5219 34.3014 8.22412 
20.7022 34.7848 7.78461 19.717 35.3898 7.45502 18.7057 35.9591 7.12193 
17.8517 36.3032 6.69633 17.0887 36.4753 6.28701 16.2338 36.6638 6.02516 
23.8803 32.1696 9.60688 23.9792 31.2753 9.82333 23.936 30.3155 10.078 
23.7555 29.3834 10.4475 23.4391 28.6347 11.0497 23.0159 28.0657 11.8352 
22.6203 27.4536 12.5345 22.3644 26.6624 12.9749 22.1833 25.8352 13.2697 
24.0067 33.9058 9.41126 24.433 34.9206 9.38463 24.9684 35.8515 9.2936 
25.5192 36.6001 9.16765 25.9216 37.3765 9.16647 26.0491 38.3745 9.40206 
25.9398 39.3685 9.7479 25.7677 40.0437 10.0187 25.6479 40.4291 10.2229 
24.5081 33.0902 9.72862 25.2921 33.2636 10.1657 25.9601 33.5137 10.792 
26.5274 33.7504 11.5391 27.1185 33.8608 12.2467 27.8003 33.8577 12.8769 
28.4212 33.867 13.5441 28.7583 33.9711 14.3046 28.7757 34.1491 15.0813 
12.3508 29.3481 9.7629 12.498 30.3078 9.47758 12.7707 31.3024 9.07581 
13.1057 32.2342 8.52052 13.4074 33.1123 7.91566 13.6931 33.958 7.3552 
14.0443 34.7327 6.83967 14.4557 35.4377 6.38555 14.8662 36.1567 6.06321 
12.8523 28.0586 10.3304 13.5389 27.661 10.7194 14.3995 27.3201 11.1465 
15.4377 26.9562 11.522 16.5646 26.569 11.8595 17.6951 26.2336 12.2353 
18.8352 25.947 12.6216 19.9851 25.648 12.9372 21.0533 25.3673 13.2267 
11.4154 28.781 10.0698 10.4772 29.0881 10.1088 9.50158 29.4564 10.1366 
8.66495 29.9396 10.2287 8.11479 30.6119 10.4832 7.70427 31.4462 10.8113 
7.20875 32.283 11.0167 6.7057 32.9693 11.0871 6.43027 33.4979 11.1986 
11.7049 28.0237 10.4703 11.0643 27.6324 11.1395 10.3482 27.2572 11.9705 
9.57859 26.6367 12.6851 8.83204 25.7859 13.2082 8.19208 25.1223 13.8781 
7.7208 24.8958 14.989 7.46863 24.8927 16.4038 7.46039 24.8704 17.7947 
14.0423 40.4201 10.7049 13.7737 40.693 9.99019 13.6451 40.7941 9.14525 
13.7795 40.6542 8.17795 14.0378 40.3996 7.26008 14.1973 40.0966 6.5781 
14.2855 39.5721 6.15862 14.49 38.7326 5.93525 14.8543 37.776 5.86206 
13.2836 39.7858 11.1295 12.2655 39.4215 11.0135 11.1962 39.1101 11.0781 
10.0339 38.8304 11.236 8.88487 38.4659 11.3507 8.00966 37.8809 11.3759 
7.49841 37.0149 11.3355 7.1546 35.9568 11.2888 6.79687 34.8946 11.3212 
15.185 40.5804 11.2092 16.1987 40.9334 11.0113 17.2561 41.1556 10.7462 
18.3678 41.3741 10.5518 19.6196 41.7259 10.5611 21.0432 42.0737 10.6689 
22.4956 42.0974 10.6691 23.7614 41.7176 10.553 24.7545 41.1789 10.4661 
13.9359 36.7853 5.92254 12.5485 36.6519 5.98532 11.2763 36.5347 6.12887 
10.2243 36.4027 6.50284 9.34057 36.2155 7.19469 8.52446 35.9516 8.04757 
7.78493 35.6038 8.8688 7.20179 35.1485 9.67307 6.78022 34.582 10.5487 
16.3288 37.6587 5.92202 17.5083 38.4887 5.97848 18.7421 39.3467 5.96228 
19.9089 40.1106 5.96139 20.8711 40.659 6.34665 21.6663 40.9229 7.28344 
22.508 40.9594 8.39785 23.5021 40.8996 9.26879 24.5516 40.8203 9.89363 
19.7905 28.7042 18.5504 20.1638 28.1299 18.5164 20.5592 27.4053 18.4061 
20.939 26.5038 18.1876 21.3066 25.7027 17.8538 21.6685 25.2572 17.3213 
21.9824 25.065 16.4618 22.1595 24.9527 15.3612 22.1354 24.9683 14.3341 
18.7074 28.6861 18.2142 17.7244 28.071 18.242 16.4881 27.4037 18.6434 
15.0664 26.7373 19.2984 13.6206 26.1592 20.0677 12.2602 25.6961 20.7359 
10.9871 25.3399 20.9877 9.77007 25.0942 20.6629 8.63375 24.9418 19.8992 
20.4278 29.5227 19.1093 21.4749 29.8237 19.5977 22.5517 30.2183 19.6193 
23.524 30.7909 19.0757 24.3885 31.5825 18.2846 25.2641 32.4829 17.6053 
26.1894 33.2732 17.121 27.0938 33.8064 16.7223 27.9147 34.1166 16.289 
20.9501 24.8834 13.8063 19.5563 24.8203 14.1655 17.8207 24.9337 14.6882 
15.9481 25.0272 15.2999 14.1505 25.038 15.9671 12.5572 25.0816 16.7318 
11.1693 25.1678 17.5648 9.89269 25.1476 18.2959 8.69315 24.9881 18.765 
22.821 25.5386 13.905 23.5727 26.1281 14.3198 24.2372 26.9634 14.7449 
24.8794 27.9776 15.0262 25.5077 29.1228 15.1582 26.0989 30.3629 15.2686 
26.6635 31.5972 15.4084 27.2563 32.6973 15.5362 27.9174 33.6054 15.6486 
5.99779 33.04 12.2204 5.51855 32.1183 12.9761 5.21312 31.2436 13.6539 
5.29905 30.2934 14.3278 5.65956 29.0544 15.1654 5.8911 27.5408 16.1223 
5.89704 26.125 16.9801 6.05764 25.2068 17.6873 6.68079 24.8556 18.3432 
26.6518 40.4796 10.9832 27.9028 40.2467 11.5966 29.1337 39.9256 12.1719 
30.0703 39.4008 12.5566 30.5532 38.6496 12.8861 30.6632 37.7241 13.4505 
30.5121 36.7127 14.2384 30.092 35.752 14.964 29.4155 34.9599 15.4611 
20.991 37.3882 15.5176 20.2115 37.6647 15.0091 19.8722 37.0474 15.6724 
19.3963 38.0146 14.5625 19.0422 37.5039 15.2879 18.6604 36.948 16.0616 
18.4242 38.4256 14.2244 18.0769 38.0312 14.9711 17.7131 37.5564 15.8312 
17.3181 36.912 16.5536 17.2516 38.8545 13.9164 16.9326 38.4662 14.6659 
16.621 38.0389 15.5257 16.2849 37.3918 16.3148 15.968 36.569 16.875 
16.0861 39.2625 13.5627 15.7308 38.7853 14.3028 15.4611 38.2849 15.1003 
15.1805 37.6389 15.8913 14.9172 36.8033 16.5042 14.707 35.9051 16.9486 
15.1551 39.5594 13.1147 14.7025 39.044 13.8587 14.3961 38.459 14.6147 
14.1257 37.7808 15.37 13.843 36.9874 16.0342 13.6312 36.1098 16.537 
13.4833 35.2379 16.9582 14.4439 39.6772 12.55 13.9381 39.1968 13.3064 
13.5544 38.6451 14.0946 13.2405 37.9928 14.8535 12.8939 37.2568 15.5594 
12.5712 36.4545 16.1656 12.3765 35.5961 16.6509 12.2679 34.7467 17.0775 
22.7249 38.4197 15.2312 23.3936 39.0936 15.0156 21.8768 38.7499 14.7628 
24.0326 39.7564 14.7497 22.4845 39.4507 14.5182 21.0993 38.9678 14.1968 
24.5162 40.3207 14.3369 22.9767 40.0419 14.1113 21.6134 39.6344 13.7957 
20.2442 39.1614 13.5667 24.8064 40.7784 13.8014 23.2253 40.5208 13.5511 
21.893 40.1822 13.1944 20.5948 39.7682 12.9142 19.1418 39.4475 12.9333 
24.9885 41.1455 13.1368 23.3646 41.0289 12.9773 21.9464 40.7104 12.5994 
20.6932 40.3075 12.199 19.3787 39.9955 12.124 17.9473 39.8394 12.4219 
25.0923 41.3481 12.2707 23.5773 41.5246 12.3202 22.053 41.3456 12.1178 
20.6919 40.9083 11.702 19.4512 40.5226 11.4615 18.196 40.3365 11.6422 
16.9108 40.2192 12.0506 25.0288 41.3348 11.3009 23.7731 41.7754 11.4648 
22.3055 41.893 11.5121 20.823 41.5825 11.3037 19.4959 41.1265 11.0441 
18.3116 40.8381 11.0626 17.165 40.6875 11.3557 16.0287 40.4721 11.6771 
23.7274 41.3418 9.76822 22.6105 41.4735 8.92736 22.6659 41.8999 9.71771 
21.5436 41.5395 7.82926 21.4387 41.9846 8.66132 21.3057 42.2128 9.71567 
20.6168 41.4421 6.71115 20.2499 41.9624 7.46797 19.9796 42.2057 8.5608 
19.7912 42.1303 9.7194 19.6933 41.0707 6.04086 19.1961 41.7689 6.52684 
18.7098 42.0968 7.43566 18.4419 42.1089 8.64854 18.3607 41.8383 9.79045 
18.5902 40.4146 5.9071 18.1608 41.3167 6.12651 17.6068 41.8103 6.69029 
17.1847 41.9526 7.67438 17.0362 41.8651 8.91941 17.1119 41.5719 10.0119 
17.3229 39.559 5.9498 17.0029 40.5905 6.07808 16.5815 41.2576 6.39789 
16.1415 41.5393 7.04516 15.8367 41.6336 8.10378 15.8056 41.5721 9.31462 
15.9941 41.3091 10.3084 16.036 38.6333 5.91836 15.736 39.6768 6.04046 
15.4805 40.4663 6.29371 15.2106 40.8731 6.75542 14.8852 41.091 7.55917 
14.6639 41.2342 8.63935 14.7186 41.1872 9.69827 14.9644 40.9238 10.5415 
12.9875 40.059 10.4281 12.7429 40.2783 9.70434 11.9339 39.6743 10.2884 
12.7222 40.2685 8.86965 11.7306 39.8223 9.52086 10.8434 39.314 10.2735 
12.8958 40.0242 7.91059 11.7281 39.7221 8.60829 10.6428 39.3585 9.33513 
9.69118 38.9181 10.2595 13.0136 39.6938 6.99447 11.783 39.4236 7.58503 
10.5779 39.1841 8.27013 9.51641 38.8163 9.11515 8.64971 38.3669 10.2101 
12.9974 39.2462 6.32295 11.7463 38.9923 6.68017 10.5501 38.8223 7.25526 
9.47552 38.5425 8.02299 8.58816 38.0911 9.01316 7.925 37.5794 10.1818 
[...]
POINT_DATA 1002
FIELD FieldData 4
_paraPhi 1 1002 double
6.2831853072 3.1415926536 6.2831853072 3.1415926536 4.7123889804 4.7123889804 1.5707963268 1.5707963268 3.6951670125 
5.7296109483 2.5880182947 0.5535743589 6.2831853072 6.2831853072 6.2831853072 6.2831853072 3.1415926536 3.1415926536 
3.1415926536 3.1415926536 3.1415926536 6.1053039672 5.898798347 5.6768734901 5.4599499503 5.2659633393 5.1032165617 
4.9713148346 4.8656852733 4.7809517865 0.17788134 0.38438696014 0.60631181711 0.82323535693 1.0172219679 1.1799687454 
1.3118704726 1.4175000338 1.5022335207 6.1892828907 6.1070320098 6.035312792 5.9728339911 5.9183214791 5.8706119594 
5.8286879411 5.7916808611 5.7588591896 0.093902416448 0.17615329733 0.2478725152 0.31035131605 0.36486382811 0.41257334776 
0.45449736604 0.4915044461 0.52432611754 3.3194739936 3.5259796137 3.7479044707 3.9648280105 4.1588146215 4.321561399 
4.4534631262 4.5590926874 4.6438261743 2.9637113136 2.7572056934 2.5352808365 2.3183572967 2.1243706857 1.9616239082 
1.829722181 1.7240926197 1.6393591329 3.23549507 3.3177459509 3.3894651688 3.4519439696 3.5064564817 3.5541660013 
3.5960900196 3.6330970997 3.6659187711 3.0476902371 2.9654393563 2.8937201384 2.8312413375 2.7767288255 2.7290193058 
2.6870952876 2.6500882075 2.617266536 6.2831853072 6.2831853072 6.2831853072 6.2831853072 3.1415926536 3.1415926536 
3.1415926536 3.1415926536 3.1415926536 6.1053039672 5.898798347 5.6768734901 5.4599499503 5.2659633393 5.1032165617 
4.9713148346 4.8656852733 4.7809517865 0.17788134 0.38438696014 0.60631181711 0.82323535693 1.0172219679 1.1799687454 
1.3118704726 1.4175000338 1.5022335207 6.1892828907 6.1070320098 6.035312792 5.9728339911 5.9183214791 5.8706119594 
5.8286879411 5.7916808611 5.7588591896 0.093902416448 0.17615329733 0.2478725152 0.31035131605 0.36486382811 0.41257334776 
0.45449736604 0.4915044461 0.52432611754 3.3194739936 3.5259796137 3.7479044707 3.9648280105 4.1588146215 4.321561399 
4.4534631262 4.5590926874 4.6438261743 2.9637113136 2.7572056934 2.5352808365 2.3183572967 2.1243706857 1.9616239082 
1.829722181 1.7240926197 1.6393591329 3.23549507 3.3177459509 3.3894651688 3.4519439696 3.5064564817 3.5541660013 
3.5960900196 3.6330970997 3.6659187711 3.0476902371 2.9654393563 2.8937201384 2.8312413375 2.7767288255 2.7290193058 
2.6870952876 2.6500882075 2.617266536 4.7123889804 4.7123889804 4.7123889804 4.7123889804 4.7123889804 4.7123889804 
4.7123889804 4.7123889804 4.7123889804 4.6087898617 4.4991390697 4.3857031936 4.2712800401 4.1588146215 4.0509635631 
3.94975894 3.8564636551 3.7716124825 4.8159880991 4.9256388911 5.0390747672 5.1534979207 5.2659633393 5.3738143976 
5.4750190208 5.5683143056 5.6531654782 4.6087898617 4.4991390697 4.3857031936 4.2712800401 4.1588146215 4.0509635631 
3.94975894 3.8564636551 3.7716124825 4.8159880991 4.9256388911 5.0390747672 5.1534979207 5.2659633393 5.3738143976 
5.4750190208 5.5683143056 5.6531654782 1.5707963268 1.5707963268 1.5707963268 1.5707963268 1.5707963268 1.5707963268 
1.5707963268 1.5707963268 1.5707963268 1.6743954455 1.7840462375 1.8974821136 2.0119052671 2.1243706857 2.232221744 
2.3334263672 2.426721652 2.5115728246 1.4671972081 1.3575464161 1.24411054 1.1296873865 1.0172219679 0.90937090954 
0.80816628637 0.71487100155 0.63001982895 1.6743954455 1.7840462375 1.8974821136 2.0119052671 2.1243706857 2.232221744 
2.3334263672 2.426721652 2.5115728246 1.4671972081 1.3575464161 1.24411054 1.1296873865 1.0172219679 0.90937090954 
0.80816628637 0.71487100155 0.63001982895 3.6007720849 3.4966939854 3.3839471039 3.2645756454 3.1415926536 3.0186096618 
2.8992382033 2.7864913217 2.6824132222 5.8240058758 5.9280839753 6.0408308569 6.1602023154 6.2831853072 0.12298299178 
0.2423544503 0.35510133185 0.45917943135 6.0560271438 5.7885595667 5.9702140275 5.5125918794 5.6029703303 5.7885595667 
5.2659633393 5.2659633393 5.2659633393 5.2659633393 5.0674903122 5.0120975802 4.9155579264 4.7123889804 4.1588146215 
4.9155579264 4.8353719722 4.7123889804 4.5092200343 4.1588146215 3.6362183941 4.8004512023 4.7123889804 4.5894059886 
4.4126803806 4.1588146215 3.8218076305 3.4545639333 4.7123889804 4.6243267584 4.5092200343 4.3572876485 4.1588146215 
3.9121860814 3.6362183941 3.368750817 6.0174235957 5.9434319871 5.8263323547 5.8809213739 5.7674481418 5.6279784266 
5.8278025282 5.718968232 5.5891129425 5.4372443565 5.7823484065 5.678536687 5.5575666702 5.4192596322 5.2659633393 
5.743164462 5.6444075337 5.5314983644 5.4046708639 5.2659633393 5.1195510325 5.7091357773 5.6152775188 5.5096229709 
5.3926039573 5.2659633393 5.1329233157 4.9978930058 5.6793730533 5.5901633916 5.4910209005 5.3824597928 5.2659633393 
5.1440684722 5.0201624502 4.8979782167 5.5683143056 5.4750190208 5.4750190208 5.3738143976 5.3738143976 5.3738143976 
5.2659633393 5.2659633393 5.2659633393 5.2659633393 5.1534979207 5.1534979207 5.1534979207 5.1534979207 5.1534979207 
5.0390747672 5.0390747672 5.0390747672 5.0390747672 5.0390747672 5.0390747672 4.9256388911 4.9256388911 4.9256388911 
4.9256388911 4.9256388911 4.9256388911 4.9256388911 4.8159880991 4.8159880991 4.8159880991 4.8159880991 4.8159880991 
4.8159880991 4.8159880991 4.8159880991 4.6087898617 4.6087898617 4.4991390697 4.6087898617 4.4991390697 4.3857031936 
4.6087898617 4.4991390697 4.3857031936 4.2712800401 4.6087898617 4.4991390697 4.3857031936 4.2712800401 4.1588146215 
4.6087898617 4.4991390697 4.3857031936 4.2712800401 4.1588146215 4.0509635631 4.6087898617 4.4991390697 4.3857031936 
4.2712800401 4.1588146215 4.0509635631 3.94975894 4.6087898617 4.4991390697 4.3857031936 4.2712800401 4.1588146215 
4.0509635631 3.94975894 3.8564636551 4.526799744 4.4046155105 4.426884955 4.2807094886 4.2918546451 4.3052269283 
4.1588146215 4.1588146215 4.1588146215 4.1588146215 4.042318168 4.0321740035 4.0201070968 4.0055183285 3.9875336042 
3.9337570603 3.9151549899 3.8932795963 3.8672112905 3.8356650183 3.7967995342 3.8346145692 3.809500442 3.7803704271 
3.7462412737 3.7058097288 3.657329819 3.5984456061 3.7454049075 3.7156421835 3.6816134988 3.6424295543 3.5969754326 
3.5438565869 3.4813459737 3.4073543651 3.5642842451 3.4524645613 3.5233842518 3.3320300872 3.403123212 3.4773852225 
3.20576226 3.2746326772 3.348015857 3.4255060145 3.0774230472 3.1415926536 3.2112816139 3.2864685043 3.3668817272 
2.95115522 3.00855263 3.0719036933 3.1415926536 3.2178377658 3.3005964304 2.8307207459 2.8800620952 2.9351694502 
2.9967168029 3.0653475414 3.1415926536 3.225752376 2.718901062 2.7598010554 2.8058000847 2.8576792927 2.91630358 
2.9825888767 3.0574329311 3.1415926536 3.5642842451 3.5233842518 3.4524645613 3.4773852225 3.403123212 3.3320300872 
3.4255060145 3.348015857 3.2746326772 3.20576226 3.3668817272 3.2864685043 3.2112816139 3.1415926536 3.0774230472 
3.3005964304 3.2178377658 3.1415926536 3.0719036933 3.00855263 2.95115522 3.225752376 3.1415926536 3.0653475414 
2.9967168029 2.9351694502 2.8800620952 2.8307207459 3.1415926536 3.0574329311 2.9825888767 2.91630358 2.8576792927 
2.8058000847 2.7598010554 2.718901062 4.526799744 4.426884955 4.4046155105 4.3052269283 4.2918546451 4.2807094886 
4.1588146215 4.1588146215 4.1588146215 4.1588146215 3.9875336042 4.0055183285 4.0201070968 4.0321740035 4.042318168 
3.7967995342 3.8356650183 3.8672112905 3.8932795963 3.9151549899 3.9337570603 3.5984456061 3.657329819 3.7058097288 
3.7462412737 3.7803704271 3.809500442 3.8346145692 3.4073543651 3.4813459737 3.5438565869 3.5969754326 3.6424295543 
3.6816134988 3.7156421835 3.7454049075 4.7123889804 4.8004512023 4.6243267584 4.9155579264 4.7123889804 4.5092200343 
5.0674903122 4.8353719722 4.5894059886 4.3572876485 5.2659633393 5.0120975802 4.7123889804 4.4126803806 4.1588146215 
5.5125918794 5.2659633393 4.9155579264 4.5092200343 4.1588146215 3.9121860814 5.7885595667 5.6029703303 5.2659633393 
4.7123889804 4.1588146215 3.8218076305 3.6362183941 6.0560271438 5.9702140275 5.7885595667 5.2659633393 4.1588146215 
3.6362183941 3.4545639333 3.368750817 0.22715816343 0.49462574053 0.3129712797 0.77059342779 0.68021497688 0.49462574053 
1.0172219679 1.0172219679 1.0172219679 1.0172219679 1.2156949949 1.271087727 1.3676273807 1.5707963268 2.1243706857 
1.3676273807 1.447813335 1.5707963268 1.7739652728 2.1243706857 2.6469669131 1.4827341049 1.5707963268 1.6937793186 
1.8705049266 2.1243706857 2.4613776767 2.8286213739 1.5707963268 1.6588585487 1.7739652728 1.9258976586 2.1243706857 
2.3709992258 2.6469669131 2.9144344902 1.7563855631 1.8785697967 1.8563003522 2.0024758186 1.9913306621 1.9779583789 
2.1243706857 2.1243706857 2.1243706857 2.1243706857 2.2408671392 2.2510113037 2.2630782103 2.2776669786 2.295651703 
2.3494282469 2.3680303173 2.3899057108 2.4159740166 2.4475202889 2.486385773 2.448570738 2.4736848652 2.5028148801 
2.5369440334 2.5773755784 2.6258554882 2.6847397011 2.5377803997 2.5675431237 2.6015718084 2.6407557529 2.6862098746 
2.7393287203 2.8018393335 2.8758309421 1.6743954455 1.6743954455 1.7840462375 1.6743954455 1.7840462375 1.8974821136 
1.6743954455 1.7840462375 1.8974821136 2.0119052671 1.6743954455 1.7840462375 1.8974821136 2.0119052671 2.1243706857 
1.6743954455 1.7840462375 1.8974821136 2.0119052671 2.1243706857 2.232221744 1.6743954455 1.7840462375 1.8974821136 
2.0119052671 2.1243706857 2.232221744 2.3334263672 1.6743954455 1.7840462375 1.8974821136 2.0119052671 2.1243706857 
2.232221744 2.3334263672 2.426721652 1.4671972081 1.3575464161 1.4671972081 1.24411054 1.3575464161 1.4671972081 
1.1296873865 1.24411054 1.3575464161 1.4671972081 1.0172219679 1.1296873865 1.24411054 1.3575464161 1.4671972081 
0.90937090954 1.0172219679 1.1296873865 1.24411054 1.3575464161 1.4671972081 0.80816628637 0.90937090954 1.0172219679 
1.1296873865 1.24411054 1.3575464161 1.4671972081 0.71487100155 0.80816628637 0.90937090954 1.0172219679 1.1296873865 
1.24411054 1.3575464161 1.4671972081 0.60381225391 0.57404952988 0.69302191562 0.54002084522 0.66790778838 0.79216440667 
0.50083690068 0.63877777351 0.77356233629 0.90072551443 0.45538277901 0.60464862014 0.75168694275 0.89058134991 1.0172219679 
0.40226393329 0.56421707518 0.72561863695 0.87851444325 1.0172219679 1.139116835 0.33975332011 0.51573716537 0.69407236469 
0.86392567495 1.0172219679 1.1502619915 1.2630228569 0.26576171152 0.45685295248 0.6552068806 0.84594095064 1.0172219679 
1.1636342747 1.2852923014 1.3852070904 0.22715816343 0.3129712797 0.49462574053 0.49462574053 0.68021497688 0.77059342779 
1.0172219679 1.0172219679 1.0172219679 1.0172219679 2.1243706857 1.5707963268 1.3676273807 1.271087727 1.2156949949 
2.6469669131 2.1243706857 1.7739652728 1.5707963268 1.447813335 1.3676273807 2.8286213739 2.4613776767 2.1243706857 
1.8705049266 1.6937793186 1.5707963268 1.4827341049 2.9144344902 2.6469669131 2.3709992258 2.1243706857 1.9258976586 
1.7739652728 1.6588585487 1.5707963268 1.7563855631 1.8563003522 1.8785697967 1.9779583789 1.9913306621 2.0024758186 
2.1243706857 2.1243706857 2.1243706857 2.1243706857 2.295651703 2.2776669786 2.2630782103 2.2510113037 2.2408671392 
2.486385773 2.4475202889 2.4159740166 2.3899057108 2.3680303173 2.3494282469 2.6847397011 2.6258554882 2.5773755784 
2.5369440334 2.5028148801 2.4736848652 2.448570738 2.8758309421 2.8018393335 2.7393287203 2.6862098746 2.6407557529 
2.6015718084 2.5675431237 2.5377803997 5.8604937156 5.901393709 5.9723133995 5.9473927383 6.0216547488 6.0927478736 
5.9992719463 6.0767621038 6.1501452836 6.2190157008 6.0578962336 6.1383094565 6.2134963469 0 0.064169606361 
6.1241815303 6.206940195 6.2831853072 0.069688960264 0.13304002361 0.19043743361 6.1990255847 0 0.07624511221 
0.14487585072 0.20642320337 0.26153055843 0.3108719077 0 0.084159722458 0.15900377685 0.22528907359 0.28391336087 
0.3357925689 0.38179159818 0.42269159155 5.8604937156 5.9723133995 5.901393709 6.0927478736 6.0216547488 5.9473927383 
6.2190157008 6.1501452836 6.0767621038 5.9992719463 0.064169606361 0 6.2134963469 6.1383094565 6.0578962336 
0.19043743361 0.13304002361 0.069688960264 6.2831853072 6.206940195 6.1241815303 0.3108719077 0.26153055843 0.20642320337 
0.14487585072 0.07624511221 6.2831853072 6.1990255847 0.42269159155 0.38179159818 0.3357925689 0.28391336087 0.22528907359 
0.15900377685 0.084159722458 0 5.6793730533 5.7091357773 5.5901633916 5.743164462 5.6152775188 5.4910209005 
5.7823484065 5.6444075337 5.5096229709 5.3824597928 5.8278025282 5.678536687 5.5314983644 5.3926039573 5.2659633393 
5.8809213739 5.718968232 5.5575666702 5.4046708639 5.2659633393 5.1440684722 5.9434319871 5.7674481418 5.5891129425 
5.4192596322 5.2659633393 5.1329233157 5.0201624502 6.0174235957 5.8263323547 5.6279784266 5.4372443565 5.2659633393 
5.1195510325 4.9978930058 4.8979782167 1.3852070904 1.2852923014 1.2630228569 1.1636342747 1.1502619915 1.139116835 
1.0172219679 1.0172219679 1.0172219679 1.0172219679 0.84594095064 0.86392567495 0.87851444325 0.89058134991 0.90072551443 
0.6552068806 0.69407236469 0.72561863695 0.75168694275 0.77356233629 0.79216440667 0.45685295248 0.51573716537 0.56421707518 
0.60464862014 0.63877777351 0.66790778838 0.69302191562 0.26576171152 0.33975332011 0.40226393329 0.45538277901 0.50083690068 
0.54002084522 0.57404952988 0.60381225391 
_paraPhiHalf 1 1002 double
0 3.1415926536 0 3.1415926536 1.5707963268 1.5707963268 1.5707963268 1.5707963268 2.5880182947 
0.5535743589 2.5880182947 0.5535743589 0 0 0 0 3.1415926536 3.1415926536 
3.1415926536 3.1415926536 3.1415926536 0.17788134 0.38438696014 0.60631181711 0.82323535693 1.0172219679 1.1799687454 
1.3118704726 1.4175000338 1.5022335207 0.17788134 0.38438696014 0.60631181711 0.82323535693 1.0172219679 1.1799687454 
1.3118704726 1.4175000338 1.5022335207 0.093902416448 0.17615329733 0.2478725152 0.31035131605 0.36486382811 0.41257334776 
0.45449736604 0.4915044461 0.52432611754 0.093902416448 0.17615329733 0.2478725152 0.31035131605 0.36486382811 0.41257334776 
0.45449736604 0.4915044461 0.52432611754 2.9637113136 2.7572056934 2.5352808365 2.3183572967 2.1243706857 1.9616239082 
1.829722181 1.7240926197 1.6393591329 2.9637113136 2.7572056934 2.5352808365 2.3183572967 2.1243706857 1.9616239082 
1.829722181 1.7240926197 1.6393591329 3.0476902371 2.9654393563 2.8937201384 2.8312413375 2.7767288255 2.7290193058 
2.6870952876 2.6500882075 2.617266536 3.0476902371 2.9654393563 2.8937201384 2.8312413375 2.7767288255 2.7290193058 
2.6870952876 2.6500882075 2.617266536 0 0 0 0 3.1415926536 3.1415926536 
3.1415926536 3.1415926536 3.1415926536 0.17788134 0.38438696014 0.60631181711 0.82323535693 1.0172219679 1.1799687454 
1.3118704726 1.4175000338 1.5022335207 0.17788134 0.38438696014 0.60631181711 0.82323535693 1.0172219679 1.1799687454 
1.3118704726 1.4175000338 1.5022335207 0.093902416448 0.17615329733 0.2478725152 0.31035131605 0.36486382811 0.41257334776 
0.45449736604 0.4915044461 0.52432611754 0.093902416448 0.17615329733 0.2478725152 0.31035131605 0.36486382811 0.41257334776 
0.45449736604 0.4915044461 0.52432611754 2.9637113136 2.7572056934 2.5352808365 2.3183572967 2.1243706857 1.9616239082 
1.829722181 1.7240926197 1.6393591329 2.9637113136 2.7572056934 2.5352808365 2.3183572967 2.1243706857 1.9616239082 
1.829722181 1.7240926197 1.6393591329 3.0476902371 2.9654393563 2.8937201384 2.8312413375 2.7767288255 2.7290193058 
2.6870952876 2.6500882075 2.617266536 3.0476902371 2.9654393563 2.8937201384 2.8312413375 2.7767288255 2.7290193058 
2.6870952876 2.6500882075 2.617266536 1.5707963268 1.5707963268 1.5707963268 1.5707963268 1.5707963268 1.5707963268 
1.5707963268 1.5707963268 1.5707963268 1.6743954455 1.7840462375 1.8974821136 2.0119052671 2.1243706857 2.232221744 
2.3334263672 2.426721652 2.5115728246 1.4671972081 1.3575464161 1.24411054 1.1296873865 1.0172219679 0.90937090954 
0.80816628637 0.71487100155 0.63001982895 1.6743954455 1.7840462375 1.8974821136 2.0119052671 2.1243706857 2.232221744 
2.3334263672 2.426721652 2.5115728246 1.4671972081 1.3575464161 1.24411054 1.1296873865 1.0172219679 0.90937090954 
0.80816628637 0.71487100155 0.63001982895 1.5707963268 1.5707963268 1.5707963268 1.5707963268 1.5707963268 1.5707963268 
1.5707963268 1.5707963268 1.5707963268 1.6743954455 1.7840462375 1.8974821136 2.0119052671 2.1243706857 2.232221744 
2.3334263672 2.426721652 2.5115728246 1.4671972081 1.3575464161 1.24411054 1.1296873865 1.0172219679 0.90937090954 
0.80816628637 0.71487100155 0.63001982895 1.6743954455 1.7840462375 1.8974821136 2.0119052671 2.1243706857 2.232221744 
2.3334263672 2.426721652 2.5115728246 1.4671972081 1.3575464161 1.24411054 1.1296873865 1.0172219679 0.90937090954 
0.80816628637 0.71487100155 0.63001982895 2.6824132222 2.7864913217 2.8992382033 3.0186096618 3.1415926536 3.0186096618 
2.8992382033 2.7864913217 2.6824132222 0.45917943135 0.35510133185 0.2423544503 0.12298299178 0 0.12298299178 
0.2423544503 0.35510133185 0.45917943135 0.22715816343 0.49462574053 0.3129712797 0.77059342779 0.68021497688 0.49462574053 
1.0172219679 1.0172219679 1.0172219679 1.0172219679 1.2156949949 1.271087727 1.3676273807 1.5707963268 2.1243706857 
1.3676273807 1.447813335 1.5707963268 1.7739652728 2.1243706857 2.6469669131 1.4827341049 1.5707963268 1.6937793186 
1.8705049266 2.1243706857 2.4613776767 2.8286213739 1.5707963268 1.6588585487 1.7739652728 1.9258976586 2.1243706857 
2.3709992258 2.6469669131 2.9144344902 0.26576171152 0.33975332011 0.45685295248 0.40226393329 0.51573716537 0.6552068806 
0.45538277901 0.56421707518 0.69407236469 0.84594095064 0.50083690068 0.60464862014 0.72561863695 0.86392567495 1.0172219679 
0.54002084522 0.63877777351 0.75168694275 0.87851444325 1.0172219679 1.1636342747 0.57404952988 0.66790778838 0.77356233629 
0.89058134991 1.0172219679 1.1502619915 1.2852923014 0.60381225391 0.69302191562 0.79216440667 0.90072551443 1.0172219679 
1.139116835 1.2630228569 1.3852070904 0.71487100155 0.80816628637 0.80816628637 0.90937090954 0.90937090954 0.90937090954 
1.0172219679 1.0172219679 1.0172219679 1.0172219679 1.1296873865 1.1296873865 1.1296873865 1.1296873865 1.1296873865 
1.24411054 1.24411054 1.24411054 1.24411054 1.24411054 1.24411054 1.3575464161 1.3575464161 1.3575464161 
1.3575464161 1.3575464161 1.3575464161 1.3575464161 1.4671972081 1.4671972081 1.4671972081 1.4671972081 1.4671972081 
1.4671972081 1.4671972081 1.4671972081 1.6743954455 1.6743954455 1.7840462375 1.6743954455 1.7840462375 1.8974821136 
1.6743954455 1.7840462375 1.8974821136 2.0119052671 1.6743954455 1.7840462375 1.8974821136 2.0119052671 2.1243706857 
1.6743954455 1.7840462375 1.8974821136 2.0119052671 2.1243706857 2.232221744 1.6743954455 1.7840462375 1.8974821136 
2.0119052671 2.1243706857 2.232221744 2.3334263672 1.6743954455 1.7840462375 1.8974821136 2.0119052671 2.1243706857 
2.232221744 2.3334263672 2.426721652 1.7563855631 1.8785697967 1.8563003522 2.0024758186 1.9913306621 1.9779583789 
2.1243706857 2.1243706857 2.1243706857 2.1243706857 2.2408671392 2.2510113037 2.2630782103 2.2776669786 2.295651703 
2.3494282469 2.3680303173 2.3899057108 2.4159740166 2.4475202889 2.486385773 2.448570738 2.4736848652 2.5028148801 
2.5369440334 2.5773755784 2.6258554882 2.6847397011 2.5377803997 2.5675431237 2.6015718084 2.6407557529 2.6862098746 
2.7393287203 2.8018393335 2.8758309421 2.718901062 2.8307207459 2.7598010554 2.95115522 2.8800620952 2.8058000847 
3.0774230472 3.00855263 2.9351694502 2.8576792927 3.0774230472 3.1415926536 3.0719036933 2.9967168029 2.91630358 
2.95115522 3.00855263 3.0719036933 3.1415926536 3.0653475414 2.9825888767 2.8307207459 2.8800620952 2.9351694502 
2.9967168029 3.0653475414 3.1415926536 3.0574329311 2.718901062 2.7598010554 2.8058000847 2.8576792927 2.91630358 
2.9825888767 3.0574329311 3.1415926536 2.718901062 2.7598010554 2.8307207459 2.8058000847 2.8800620952 2.95115522 
2.8576792927 2.9351694502 3.00855263 3.0774230472 2.91630358 2.9967168029 3.0719036933 3.1415926536 3.0774230472 
2.9825888767 3.0653475414 3.1415926536 3.0719036933 3.00855263 2.95115522 3.0574329311 3.1415926536 3.0653475414 