# vtk DataFile Version 5.1
vtk output
ASCII
DATASET POLYDATA
POINTS 100 float
21.0014 37.7145 7.46437 20.9949 37.7101 7.46746 20.976 37.6936 7.47559 
20.9458 37.6659 7.48846 20.906 37.6284 7.50565 20.8588 37.5828 7.52671 
20.8065 37.5308 7.55136 20.7516 37.4745 7.57959 20.6959 37.4153 7.6118 
20.6411 37.3545 7.64881 20.5879 37.2929 7.69189 20.5367 37.2307 7.74261 
20.487 37.1676 7.80266 20.4376 37.1028 7.87371 20.3872 37.0349 7.95709 
20.3342 36.9627 8.05361 20.277 36.8844 8.16342 20.2143 36.7987 8.28586 
20.1453 36.7044 8.41953 20.0697 36.6007 8.56232 19.9878 36.4874 8.71168 
19.9005 36.3648 8.8648 19.8089 36.2337 9.01897 19.7147 36.0954 9.17178 
19.6193 35.9515 9.32148 19.5243 35.8039 9.467 19.4307 35.6545 9.60816 
19.3392 35.505 9.74552 19.2498 35.3568 9.88025 19.1621 35.211 10.0139 
19.0751 35.0681 10.1483 18.9874 34.9281 10.2848 18.8974 34.7903 10.4245 
18.8035 34.6537 10.5679 18.7044 34.517 10.7146 18.5989 34.3784 10.8635 
18.4866 34.2364 11.0131 18.3675 34.0891 11.1614 18.2422 33.9353 11.3063 
18.1118 33.7737 11.4459 17.978 33.6037 11.579 17.8426 33.4249 11.7051 
17.7077 33.2376 11.8245 17.5751 33.0423 11.9384 17.4466 32.84 12.0489 
17.3234 32.6318 12.1586 17.2064 32.4194 12.2706 17.0959 32.2041 12.3877 
16.9917 31.9876 12.5124 16.8931 31.7714 12.6467 16.7991 31.5572 12.7917 
16.7083 31.3462 12.9474 16.6191 31.1398 13.1134 16.53 30.9391 13.288 
16.4393 30.7452 13.4696 16.3458 30.559 13.656 16.2481 30.3812 13.8452 
16.1454 30.2124 14.0359 16.0369 30.0531 14.2271 15.9224 29.9035 14.4185 
15.8018 29.7634 14.6105 15.6751 29.6326 14.8041 15.5429 29.5105 15.0004 
15.4059 29.3962 15.2006 15.2648 29.2885 15.4055 15.1205 29.1862 15.6156 
14.9743 29.0878 15.8303 14.827 28.9917 16.0484 14.6798 28.8966 16.2681 
14.5335 28.8013 16.4868 14.3891 28.7047 16.7016 14.2471 28.6061 16.9101 
14.1078 28.5054 17.1098 13.9713 28.4027 17.2995 13.8375 28.2984 17.4787 
13.7059 28.1932 17.6482 13.5761 28.088 17.8099 13.4473 27.9838 17.9666 
13.319 27.8814 18.1217 13.1907 27.7815 18.2791 13.062 27.6844 18.4421 
12.933 27.59 18.6136 12.804 27.4981 18.7954 12.6757 27.4079 18.9878 
12.5493 27.3184 19.1898 12.426 27.2286 19.3989 12.3074 27.1375 19.6117 
12.1951 27.0444 19.8236 12.0906 26.9489 20.0298 11.9953 26.8511 20.2254 
11.9101 26.7517 20.4063 11.8358 26.6523 20.5689 11.7727 26.5547 20.7109 
11.7204 26.4614 20.8312 11.6786 26.3753 20.9296 11.6466 26.2993 21.007 
11.6233 26.2363 21.0647 11.6079 26.1888 21.1044 11.5996 26.1588 21.1275 
11.5979 26.1477 21.135 
LINES 2 100
OFFSETS vtktypeint64
0 100 
CONNECTIVITY vtktypeint64
0 1 2 3 4 5 6 7 8 
9 10 11 12 13 14 15 16 17 
18 19 20 21 22 23 24 25 26 
27 28 29 30 31 32 33 34 35 
36 37 38 39 40 41 42 43 44 
45 46 47 48 49 50 51 52 53 
54 55 56 57 58 59 60 61 62 
63 64 65 66 67 68 69 70 71 
72 73 74 75 76 77 78 79 80 
81 82 83 84 85 86 87 88 89 
90 91 92 93 94 95 96 97 98 
99 
POINT_DATA 100
FIELD FieldData 3
_theta 1 100 double
0 0.031733259127 0.063466518254 0.095199777382 0.12693303651 0.15866629564 0.19039955476 0.22213281389 0.25386607302 
0.28559933214 0.31733259127 0.3490658504 0.38079910953 0.41253236865 0.44426562778 0.47599888691 0.50773214603 0.53946540516 
0.57119866429 0.60293192342 0.63466518254 0.66639844167 0.6981317008 0.72986495992 0.76159821905 0.79333147818 0.82506473731 
0.85679799643 0.88853125556 0.92026451469 0.95199777382 0.98373103294 1.0154642921 1.0471975512 1.0789308103 1.1106640695 
1.1423973286 1.1741305877 1.2058638468 1.237597106 1.2693303651 1.3010636242 1.3327968833 1.3645301425 1.3962634016 
1.4279966607 1.4597299198 1.491463179 1.5231964381 1.5549296972 1.5866629564 1.6183962155 1.6501294746 1.6818627337 
1.7135959929 1.745329252 1.7770625111 1.8087957702 1.8405290294 1.8722622885 1.9039955476 1.9357288068 1.9674620659 
1.999195325 2.0309285841 2.0626618433 2.0943951024 2.1261283615 2.1578616206 2.1895948798 2.2213281389 2.253061398 
2.2847946572 2.3165279163 2.3482611754 2.3799944345 2.4117276937 2.4434609528 2.4751942119 2.506927471 2.5386607302 
2.5703939893 2.6021272484 2.6338605076 2.6655937667 2.6973270258 2.7290602849 2.7607935441 2.7925268032 2.8242600623 
2.8559933214 2.8877265806 2.9194598397 2.9511930988 2.982926358 3.0146596171 3.0463928762 3.0781261353 3.1098593945 
3.1415926536 
_radius 1 100 double
4.7936956692e-14 0.20777282907 0.41902024439 0.63684691844 0.86355051365 1.1002133099 1.3464237451 1.600215732 1.8582420652 
2.1161447133 2.3690636527 2.6122200972 2.8415036628 3.0539848296 3.2482741449 3.4246680188 3.5850575351 3.732620328 
3.8713515553 4.005508932 4.13904925 4.275127729 4.4157232855 4.5614402316 4.7115130437 4.864005211 5.0161568565 
5.1648131942 5.306863146 5.4396297602 5.5611716699 5.6704704024 5.767490392 5.8531097934 5.9289335251 5.9970151519 
6.0595277789 6.1184318924 6.1751883137 6.2305586073 6.2845256341 6.3363527819 6.3847784114 6.4283125558 6.4655754235 
6.4956055128 6.5180752348 6.5333773458 6.5425739848 6.547223045 6.5491122759 6.5499421602 6.5510058913 6.5529175112 
6.5554345709 6.5574079896 6.5568710956 6.5512570323 6.5377140122 6.5134742798 6.4762256291 6.4244333634 6.3575653426 
6.2761831735 6.1818781844 6.0770504949 5.9645518988 5.8472368316 5.7274876966 5.6067962315 5.4854843616 5.3626301835 
5.2362272927 5.1035569659 4.9617069132 4.808140852 4.6412167419 4.4605665293 4.2672792773 4.0638636906 3.8539985359 
3.6421073839 3.4328176132 3.2303825251 3.0381541207 2.8581806615 2.6909612278 2.5353382042 2.3884906552 2.2460308382 
2.1022662971 1.9506990372 1.7847620438 1.5986912388 1.3883690793 1.1519790498 0.8903579143 0.60699702496 0.30770609924 
4.3508414751e-14 
_area 1 100 double
0 0.12147097765 0.49921510137 1.1707474737 2.1894576432 3.6102873351 5.4731070089 7.7899955878 10.540794763 
13.676937515 17.129679616 20.81765232 24.651142105 28.535243294 32.376617567 36.095963744 39.643143307 43.00910459 
46.229789402 49.380437621 52.561907849 55.882412316 59.438254534 63.296467554 67.481492009 71.967723202 76.680047289 
81.504078097 86.304754648 90.947992579 95.31942557 99.337555122 102.96204426 106.19775283 109.09253562 111.726114 
114.19017405 116.56422624 118.89463928 121.1837732 123.39262123 125.45559801 127.30192404 128.87612924 130.15149415 
131.13371868 131.85547095 132.36494462 132.71387924 132.95077458 133.12028893 133.26381763 133.41541971 133.59137719 
133.7768824 133.91668537 133.91533611 133.64814246 132.98047434 131.79123354 129.99501047 127.5574617 124.50058715 
120.8978873 116.86199443 112.5282033 108.03665961 103.51489331 99.061856027 94.734888436 90.541731403 86.440148998 
82.347226692 78.158455829 73.773655879 69.12394112 64.192785836 59.025453446 53.724262756 48.431177145 43.302462168 
38.481637228 34.076744821 30.146645899 26.69868117 23.696584478 21.074260959 18.750067823 16.63818587 14.656956907 
12.736399446 10.827076165 8.9099764748 7.003706513 5.1642627191 3.4755934234 2.0337028573 0.92969553113 0.2363718717 
2.5421149729e-13 
