# vtk DataFile Version 5.1
vtk output
ASCII
DATASET POLYDATA
POINTS 1002 float
-5.7166 -0.593766 -4.4277 5.17765 0.601185 -2.84002 -5.47416 0.57391 4.56026 
5.01014 -0.994993 3.24191 1.14323 6.01606 -3.33166 -0.175931 5.08722 2.04796 
0.0571372 -6.46282 -3.79496 1.22443 -5.18453 2.26392 9.6946 5.38225 0.434446 
-9.40464 3.98621 -0.234906 9.30608 -4.63166 0.132009 -9.26758 -4.41187 -0.325756 
-4.83046 -0.737307 -4.28548 -3.81432 -0.751819 -4.04047 -2.6222 -0.688816 -3.93132 
-1.31468 -0.638305 -4.00473 -0.0362715 -0.529102 -3.93889 1.14851 -0.241671 -3.51874 
2.27555 0.117593 -3.03805 3.34832 0.359853 -2.83877 4.32256 0.484923 -2.85257 
-5.38533 0.0173352 -4.2943 -4.90314 0.605871 -4.129 -4.30545 1.11305 -3.93204 
-3.61852 1.6559 -3.65669 -2.79219 2.38794 -3.32306 -1.81429 3.23103 -3.09241 
-0.832646 4.00178 -3.0788 -0.0157749 4.6935 -3.19615 0.616787 5.37843 -3.29946 
-5.40005 -1.27523 -4.50353 -4.93917 -1.88728 -4.60734 -4.3322 -2.53396 -4.83394 
-3.66031 -3.36483 -5.20328 -3.01979 -4.26829 -5.52252 -2.42584 -4.98148 -5.52926 
-1.82635 -5.48086 -5.20016 -1.19336 -5.90299 -4.72577 -0.552846 -6.25404 -4.24926 
-6.44928 0.0210386 -4.32273 -7.26675 0.620073 -4.10696 -8.06433 0.992156 -3.88339 
-8.73343 1.23669 -3.62868 -9.29984 1.77689 -3.22678 -9.80379 2.72844 -2.74625 
-10.1191 3.62026 -2.30397 -10.1082 4.03143 -1.78165 -9.82 4.04868 -1.05512 
-6.41624 -0.839046 -4.41013 -7.18672 -1.10303 -4.11121 -8.01915 -1.43487 -3.65284 
-8.78346 -1.88699 -3.36646 -9.33393 -2.46113 -3.31229 -9.65214 -3.10302 -3.10391 
-9.78029 -3.71313 -2.48581 -9.72602 -4.16204 -1.66646 -9.52421 -4.37841 -0.92882 
5.02354 1.10806 -3.10266 4.86808 1.61807 -3.48557 4.65639 2.21246 -3.75372 
4.25087 2.92453 -3.72507 3.62165 3.62254 -3.60583 2.97581 4.17742 -3.7579 
2.50951 4.66319 -4.10724 2.15065 5.1836 -4.22597 1.71276 5.67469 -3.91296 
4.77509 -0.0807591 -2.80992 4.23127 -0.934509 -2.99344 3.55138 -1.82721 -3.17261 
2.87277 -2.54172 -3.05959 2.36512 -3.10299 -2.87089 1.98693 -3.80115 -3.15743 
1.54475 -4.72189 -3.88146 0.996663 -5.59198 -4.39135 0.470714 -6.16815 -4.3033 
5.89348 1.08129 -2.85886 6.6357 1.62089 -2.81699 7.37623 2.19472 -2.71023 
8.04991 2.79186 -2.57629 8.66026 3.48419 -2.42179 9.25756 4.29341 -2.16184 
9.7606 5.02361 -1.69101 10.0004 5.43722 -1.00983 9.94099 5.51092 -0.246346 
5.79088 0.361553 -2.66004 6.4081 0.117557 -2.36585 6.97765 -0.189958 -2.00996 
7.51607 -0.661197 -1.79609 8.03843 -1.29708 -1.74467 8.50599 -1.99306 -1.57126 
8.88477 -2.69833 -1.15283 9.1567 -3.417 -0.691337 9.29575 -4.09167 -0.300055 
-4.53159 0.74621 4.82679 -3.48114 0.852095 5.07621 -2.35662 0.802651 5.22333 
-1.17997 0.622193 5.30442 0.00872716 0.40512 5.33115 1.13839 0.125208 5.08741 
2.18482 -0.289541 4.44325 3.18517 -0.721514 3.71019 4.14417 -0.969381 3.29452 
-4.98543 1.22338 4.62238 -4.49641 1.88582 4.61957 -4.04736 2.60893 4.5421 
-3.59285 3.40011 4.4815 -3.07324 4.13946 4.43278 -2.53021 4.68677 4.20332 
-2.01948 5.01342 3.69564 -1.48682 5.15146 3.06253 -0.862951 5.14582 2.49216 
-5.35233 -0.0222028 4.59998 -5.09344 -0.720836 4.54155 -4.65155 -1.4183 4.44202 
-4.04688 -2.01634 4.37963 -3.31902 -2.59306 4.27101 -2.45683 -3.25354 3.94625 
-1.4594 -3.89389 3.42956 -0.428855 -4.37917 2.91842 0.490146 -4.76765 2.534 
-6.071 0.821373 4.36745 -6.70092 1.13675 4.3157 -7.34905 1.51557 4.4283 
-7.92483 1.89273 4.30774 -8.35739 2.21533 3.55795 -8.66841 2.48742 2.45016 
-8.91254 2.74852 1.56005 -9.12381 3.06789 0.971727 -9.30274 3.49663 0.40924 
-6.33136 0.0376767 4.41156 -7.17315 -0.514937 4.3315 -7.93932 -1.05775 4.17488 
-8.6532 -1.6264 3.7375 -9.29653 -2.21249 3.0199 -9.71139 -2.72741 2.24745 
-9.78737 -3.15572 1.5647 -9.63192 -3.58284 0.926198 -9.431 -4.02998 0.283397 
4.64332 -0.52401 2.83488 4.23069 0.078709 2.67424 3.78 0.803425 2.82774 
3.29719 1.56764 3.05929 2.76302 2.31039 3.08282 2.14753 2.99578 2.86609 
1.47831 3.57279 2.54623 0.842187 4.05604 2.25108 0.295245 4.54255 2.07513 
4.87126 -1.45626 3.6759 4.75036 -1.96666 4.00741 4.56933 -2.59036 4.05864 
4.21096 -3.30586 3.91466 3.6588 -3.99567 3.86542 3.05119 -4.56571 3.93514 
2.53447 -4.9727 3.8146 2.11608 -5.18225 3.36194 1.70285 -5.21951 2.77112 
5.63075 -0.608244 3.05727 6.28299 -0.111904 2.94288 6.91416 0.394618 2.80489 
7.48846 0.875138 2.48598 7.96924 1.453 1.96891 8.32617 2.22764 1.46577 
8.61648 3.0988 1.17258 8.95209 3.92879 1.03151 9.34689 4.69203 0.830237 
5.71304 -1.23836 3.55836 6.38962 -1.63912 3.5554 7.08836 -2.31139 2.98327 
7.89509 -3.03408 2.33856 8.74372 -3.41342 2.31698 9.40045 -3.47577 2.61019 
9.71368 -3.65002 2.33296 9.73079 -4.08189 1.43787 9.56799 -4.49093 0.585948 
1.06576 6.44544 -2.89178 1.00019 6.64835 -2.39639 0.933139 6.64803 -1.8663 
0.802924 6.59266 -1.27779 0.603068 6.54669 -0.619966 0.412447 6.41199 0.0995917 
0.274363 6.12981 0.823769 0.145296 5.77312 1.41918 -0.01233 5.41927 1.80439 
2.03573 6.44363 -3.67561 2.96111 6.85543 -3.76289 3.90262 7.19553 -3.37897 
4.84984 7.33631 -2.62809 5.87112 7.17851 -1.94086 7.06191 6.87122 -1.5449 
8.31047 6.66189 -1.17753 9.27341 6.49683 -0.589448 9.70997 6.10335 0.0499804 
0.10101 5.86032 -2.67679 -1.14192 5.58503 -2.08722 -2.44101 5.19379 -1.62002 
-3.67179 4.80811 -1.16308 -4.86619 4.65258 -0.729218 -6.09618 4.83552 -0.542594 
-7.27898 5.12688 -0.618586 -8.25114 5.13122 -0.662521 -8.94515 4.69382 -0.500246 
0.857467 4.80268 1.73472 1.98236 4.83485 1.65366 3.11694 5.1044 1.67108 
4.20968 5.25747 1.44031 5.30121 5.08229 0.886355 6.47308 4.86226 0.468451 
7.68099 4.97987 0.538997 8.71026 5.34409 0.80443 9.37539 5.5499 0.795664 
-1.10035 5.80696 2.42034 -2.11812 6.65349 2.89023 -3.15441 7.34998 3.16263 
-4.08738 7.69786 2.97837 -4.91411 7.67472 2.43693 -5.79521 7.25182 1.89577 
-6.80821 6.41257 1.48426 -7.81997 5.39311 1.02841 -8.68678 4.54343 0.423622 
0.226195 -6.6136 -3.10353 0.433277 -6.63114 -2.41755 0.643435 -6.51848 -1.79474 
0.8259 -6.38574 -1.12579 0.975249 -6.35806 -0.342171 1.10059 -6.36701 0.404227 
1.19942 -6.21507 0.970024 1.25962 -5.87025 1.41454 1.27109 -5.48675 1.84145 
0.918275 -6.40354 -3.64282 1.89579 -6.24314 -3.24196 2.98839 -6.08382 -2.60748 
4.14027 -5.95971 -2.01554 5.24548 -5.77038 -1.61965 6.23837 -5.49026 -1.17062 
7.13977 -5.26581 -0.52724 7.97433 -5.14806 0.00268215 8.71135 -4.98227 0.170947 
-0.68672 -6.5234 -3.41653 -1.50692 -6.50644 -3.04917 -2.46252 -6.36505 -2.74797 
-3.59944 -5.9244 -2.34688 -4.90224 -5.22522 -1.76249 -6.23892 -4.71852 -1.22975 
-7.38462 -4.70136 -0.961993 -8.20485 -4.87528 -0.842034 -8.77675 -4.80302 -0.648872 
2.14164 -5.73421 2.38457 2.985 -6.37363 2.64152 3.90066 -6.874 2.88052 
5.02884 -7.05399 2.9141 6.21828 -7.01969 2.70333 7.16323 -6.93294 2.33403 
7.81922 -6.69109 1.8611 8.36606 -6.14873 1.2985 8.88159 -5.3978 0.695397 
0.172864 -4.88163 2.04203 -1.09955 -4.58112 1.89459 -2.4173 -4.25168 1.70696 
-3.66375 -4.00815 1.50449 -4.9068 -4.08583 1.40573 -6.17585 -4.46192 1.32882 
-7.28938 -4.7846 1.05024 -8.10586 -4.82703 0.562626 -8.71334 -4.66299 0.0625676 
9.64382 4.4157 0.122511 9.67703 3.20657 -0.335899 10.0977 2.19519 -0.56279 
10.7905 1.47633 -0.353597 11.2268 0.634604 -0.029183 11.115 -0.574596 -0.0350054 
10.6936 -1.86379 -0.299979 10.2518 -2.94759 -0.414686 9.81122 -3.84561 -0.216324 
-10.0706 3.20491 -0.481837 -10.8268 2.3151 -0.751136 -11.6856 1.28028 -0.97263 
-12.5046 0.145259 -0.98195 -12.9733 -0.930272 -0.687926 -12.8164 -1.81194 -0.275742 
-12.0523 -2.52624 -0.0528724 -11.0023 -3.19182 -0.0996143 -10.0225 -3.84858 -0.247238 
-4.35956 -0.115428 -4.15206 -3.69841 0.515197 -4.07361 -3.20422 -0.114617 -3.99792 
-2.95179 1.1357 -3.91742 -2.43316 0.572545 -3.99594 -1.92312 -0.0232025 -3.96699 
-2.18134 1.84163 -3.55913 -1.66433 1.31736 -3.73343 -1.13686 0.738931 -3.88931 
-0.563229 0.102644 -3.96674 -1.32297 2.66183 -3.19544 -0.919452 2.14139 -3.23285 
-0.401673 1.58017 -3.4476 0.248108 0.940037 -3.74228 0.802347 0.316791 -3.76919 
-0.379121 3.46459 -3.16811 -0.0915416 2.96477 -3.01431 0.326319 2.44323 -3.00119 
1.02168 1.8041 -3.34999 1.70232 1.15563 -3.62236 2.09288 0.618957 -3.42754 
0.490485 4.19303 -3.46631 0.781457 3.69988 -3.35743 1.11197 3.23432 -3.10328 
1.75336 2.65537 -3.19687 2.52032 1.96282 -3.56381 3.02542 1.35415 -3.60536 
3.22999 0.868815 -3.21129 1.17518 4.92782 -3.78166 1.54484 4.41259 -3.90588 
1.86819 3.94307 -3.64952 2.41519 3.45138 -3.43865 3.16291 2.80316 -3.60277 
3.76805 2.09126 -3.80521 4.06046 1.49953 -3.60929 4.19094 1.00589 -3.16049 
-6.13664 0.649626 -4.18729 -6.9802 1.15103 -3.94441 -5.72268 1.13654 -3.92994 
-7.73686 1.41351 -3.61431 -6.62651 1.49319 -3.55495 -5.20254 1.54298 -3.59378 
-8.26809 1.77815 -3.16674 -7.33058 1.78565 -3.05093 -6.12187 1.92594 -3.0699 
-4.49085 2.1475 -3.23842 -8.65734 2.64118 -2.66466 -7.69514 2.41898 -2.50169 
-6.71179 2.44378 -2.46345 -5.30502 2.72815 -2.66517 -3.51148 3.02363 -2.93888 
-9.0053 3.73571 -2.27679 -7.90563 3.44609 -2.08184 -6.9076 3.22022 -1.93921 
-5.75483 3.36442 -2.07264 -4.1831 3.6768 -2.41224 -2.39177 3.89416 -2.76383 
-9.22076 4.4554 -1.91014 -8.12958 4.37066 -1.7888 -6.9962 4.0368 -1.56599 
-5.87202 3.92439 -1.56897 -4.58156 4.13431 -1.86575 -3.00836 4.4154 -2.26666 
-1.37627 4.59895 -2.70022 -9.19162 4.67147 -1.31223 -8.28572 4.87561 -1.35238 
-7.15353 4.65159 -1.17505 -5.94497 4.36637 -1.08956 -4.74016 4.37506 -1.32375 
-3.4406 4.6594 -1.7311 -1.99123 4.99545 -2.16175 -0.565612 5.24049 -2.6816 
-8.1551 5.2767 0.195896 -7.19524 6.12564 0.7927 -7.38115 5.63959 0.0671468 
-6.13698 7.02753 1.17775 -6.35548 6.35919 0.625267 -6.32227 5.52106 0.0558353 
-5.13742 7.63865 1.54534 -5.28704 7.07732 0.921381 -5.25253 6.13885 0.457343 
-5.06115 5.22531 -0.0972584 -4.22343 7.8268 2.08064 -4.27354 7.52013 1.20636 
-4.17137 6.81189 0.58308 -3.9603 5.91757 0.0541984 -3.77739 5.18744 -0.556435 
-3.24675 7.61071 2.5201 -3.25162 7.55351 1.5828 -3.10924 7.21964 0.687606 
-2.85853 6.65733 0.0151059 -2.65023 6.00349 -0.559553 -2.54597 5.49164 -1.1174 
-2.14242 7.00308 2.51307 -2.12326 7.151 1.76574 -2.00589 7.13956 0.811807 
[...]
POINT_DATA 1002
FIELD FieldData 4
_paraPhi 1 1002 double
6.2831853072 3.1415926536 6.2831853072 3.1415926536 4.7123889804 4.7123889804 1.5707963268 1.5707963268 3.6951670125 
5.7296109483 2.5880182947 0.5535743589 6.2831853072 6.2831853072 6.2831853072 6.2831853072 3.1415926536 3.1415926536 
3.1415926536 3.1415926536 3.1415926536 6.1053039672 5.898798347 5.6768734901 5.4599499503 5.2659633393 5.1032165617 
4.9713148346 4.8656852733 4.7809517865 0.17788134 0.38438696014 0.60631181711 0.82323535693 1.0172219679 1.1799687454 
1.3118704726 1.4175000338 1.5022335207 6.1892828907 6.1070320098 6.035312792 5.9728339911 5.9183214791 5.8706119594 
5.8286879411 5.7916808611 5.7588591896 0.093902416448 0.17615329733 0.2478725152 0.31035131605 0.36486382811 0.41257334776 
0.45449736604 0.4915044461 0.52432611754 3.3194739936 3.5259796137 3.7479044707 3.9648280105 4.1588146215 4.321561399 
4.4534631262 4.5590926874 4.6438261743 2.9637113136 2.7572056934 2.5352808365 2.3183572967 2.1243706857 1.9616239082 
1.829722181 1.7240926197 1.6393591329 3.23549507 3.3177459509 3.3894651688 3.4519439696 3.5064564817 3.5541660013 
3.5960900196 3.6330970997 3.6659187711 3.0476902371 2.9654393563 2.8937201384 2.8312413375 2.7767288255 2.7290193058 
2.6870952876 2.6500882075 2.617266536 6.2831853072 6.2831853072 6.2831853072 6.2831853072 3.1415926536 3.1415926536 
3.1415926536 3.1415926536 3.1415926536 6.1053039672 5.898798347 5.6768734901 5.4599499503 5.2659633393 5.1032165617 
4.9713148346 4.8656852733 4.7809517865 0.17788134 0.38438696014 0.60631181711 0.82323535693 1.0172219679 1.1799687454 
1.3118704726 1.4175000338 1.5022335207 6.1892828907 6.1070320098 6.035312792 5.9728339911 5.9183214791 5.8706119594 
5.8286879411 5.7916808611 5.7588591896 0.093902416448 0.17615329733 0.2478725152 0.31035131605 0.36486382811 0.41257334776 
0.45449736604 0.4915044461 0.52432611754 3.3194739936 3.5259796137 3.7479044707 3.9648280105 4.1588146215 4.321561399 
4.4534631262 4.5590926874 4.6438261743 2.9637113136 2.7572056934 2.5352808365 2.3183572967 2.1243706857 1.9616239082 
1.829722181 1.7240926197 1.6393591329 3.23549507 3.3177459509 3.3894651688 3.4519439696 3.5064564817 3.5541660013 
3.5960900196 3.6330970997 3.6659187711 3.0476902371 2.9654393563 2.8937201384 2.8312413375 2.7767288255 2.7290193058 
2.6870952876 2.6500882075 2.617266536 4.7123889804 4.7123889804 4.7123889804 4.7123889804 4.7123889804 4.7123889804 
4.7123889804 4.7123889804 4.7123889804 4.6087898617 4.4991390697 4.3857031936 4.2712800401 4.1588146215 4.0509635631 
3.94975894 3.8564636551 3.7716124825 4.8159880991 4.9256388911 5.0390747672 5.1534979207 5.2659633393 5.3738143976 
5.4750190208 5.5683143056 5.6531654782 4.6087898617 4.4991390697 4.3857031936 4.2712800401 4.1588146215 4.0509635631 
3.94975894 3.8564636551 3.7716124825 4.8159880991 4.9256388911 5.0390747672 5.1534979207 5.2659633393 5.3738143976 
5.4750190208 5.5683143056 5.6531654782 1.5707963268 1.5707963268 1.5707963268 1.5707963268 1.5707963268 1.5707963268 
1.5707963268 1.5707963268 1.5707963268 1.6743954455 1.7840462375 1.8974821136 2.0119052671 2.1243706857 2.232221744 
2.3334263672 2.426721652 2.5115728246 1.4671972081 1.3575464161 1.24411054 1.1296873865 1.0172219679 0.90937090954 
0.80816628637 0.71487100155 0.63001982895 1.6743954455 1.7840462375 1.8974821136 2.0119052671 2.1243706857 2.232221744 
2.3334263672 2.426721652 2.5115728246 1.4671972081 1.3575464161 1.24411054 1.1296873865 1.0172219679 0.90937090954 
0.80816628637 0.71487100155 0.63001982895 3.6007720849 3.4966939854 3.3839471039 3.2645756454 3.1415926536 3.0186096618 
2.8992382033 2.7864913217 2.6824132222 5.8240058758 5.9280839753 6.0408308569 6.1602023154 6.2831853072 0.12298299178 
0.2423544503 0.35510133185 0.45917943135 6.0560271438 5.7885595667 5.9702140275 5.5125918794 5.6029703303 5.7885595667 
5.2659633393 5.2659633393 5.2659633393 5.2659633393 5.0674903122 5.0120975802 4.9155579264 4.7123889804 4.1588146215 
4.9155579264 4.8353719722 4.7123889804 4.5092200343 4.1588146215 3.6362183941 4.8004512023 4.7123889804 4.5894059886 
4.4126803806 4.1588146215 3.8218076305 3.4545639333 4.7123889804 4.6243267584 4.5092200343 4.3572876485 4.1588146215 
3.9121860814 3.6362183941 3.368750817 6.0174235957 5.9434319871 5.8263323547 5.8809213739 5.7674481418 5.6279784266 
5.8278025282 5.718968232 5.5891129425 5.4372443565 5.7823484065 5.678536687 5.5575666702 5.4192596322 5.2659633393 
5.743164462 5.6444075337 5.5314983644 5.4046708639 5.2659633393 5.1195510325 5.7091357773 5.6152775188 5.5096229709 
5.3926039573 5.2659633393 5.1329233157 4.9978930058 5.6793730533 5.5901633916 5.4910209005 5.3824597928 5.2659633393 
5.1440684722 5.0201624502 4.8979782167 5.5683143056 5.4750190208 5.4750190208 5.3738143976 5.3738143976 5.3738143976 
5.2659633393 5.2659633393 5.2659633393 5.2659633393 5.1534979207 5.1534979207 5.1534979207 5.1534979207 5.1534979207 
5.0390747672 5.0390747672 5.0390747672 5.0390747672 5.0390747672 5.0390747672 4.9256388911 4.9256388911 4.9256388911 
4.9256388911 4.9256388911 4.9256388911 4.9256388911 4.8159880991 4.8159880991 4.8159880991 4.8159880991 4.8159880991 
4.8159880991 4.8159880991 4.8159880991 4.6087898617 4.6087898617 4.4991390697 4.6087898617 4.4991390697 4.3857031936 
4.6087898617 4.4991390697 4.3857031936 4.2712800401 4.6087898617 4.4991390697 4.3857031936 4.2712800401 4.1588146215 
4.6087898617 4.4991390697 4.3857031936 4.2712800401 4.1588146215 4.0509635631 4.6087898617 4.4991390697 4.3857031936 
4.2712800401 4.1588146215 4.0509635631 3.94975894 4.6087898617 4.4991390697 4.3857031936 4.2712800401 4.1588146215 
4.0509635631 3.94975894 3.8564636551 4.526799744 4.4046155105 4.426884955 4.2807094886 4.2918546451 4.3052269283 
4.1588146215 4.1588146215 4.1588146215 4.1588146215 4.042318168 4.0321740035 4.0201070968 4.0055183285 3.9875336042 
3.9337570603 3.9151549899 3.8932795963 3.8672112905 3.8356650183 3.7967995342 3.8346145692 3.809500442 3.7803704271 
3.7462412737 3.7058097288 3.657329819 3.5984456061 3.7454049075 3.7156421835 3.6816134988 3.6424295543 3.5969754326 
3.5438565869 3.4813459737 3.4073543651 3.5642842451 3.4524645613 3.5233842518 3.3320300872 3.403123212 3.4773852225 
3.20576226 3.2746326772 3.348015857 3.4255060145 3.0774230472 3.1415926536 3.2112816139 3.2864685043 3.3668817272 
2.95115522 3.00855263 3.0719036933 3.1415926536 3.2178377658 3.3005964304 2.8307207459 2.8800620952 2.9351694502 
2.9967168029 3.0653475414 3.1415926536 3.225752376 2.718901062 2.7598010554 2.8058000847 2.8576792927 2.91630358 
2.9825888767 3.0574329311 3.1415926536 3.5642842451 3.5233842518 3.4524645613 3.4773852225 3.403123212 3.3320300872 
3.4255060145 3.348015857 3.2746326772 3.20576226 3.3668817272 3.2864685043 3.2112816139 3.1415926536 3.0774230472 
3.3005964304 3.2178377658 3.1415926536 3.0719036933 3.00855263 2.95115522 3.225752376 3.1415926536 3.0653475414 
2.9967168029 2.9351694502 2.8800620952 2.8307207459 3.1415926536 3.0574329311 2.9825888767 2.91630358 2.8576792927 
2.8058000847 2.7598010554 2.718901062 4.526799744 4.426884955 4.4046155105 4.3052269283 4.2918546451 4.2807094886 
4.1588146215 4.1588146215 4.1588146215 4.1588146215 3.9875336042 4.0055183285 4.0201070968 4.0321740035 4.042318168 
3.7967995342 3.8356650183 3.8672112905 3.8932795963 3.9151549899 3.9337570603 3.5984456061 3.657329819 3.7058097288 
3.7462412737 3.7803704271 3.809500442 3.8346145692 3.4073543651 3.4813459737 3.5438565869 3.5969754326 3.6424295543 
3.6816134988 3.7156421835 3.7454049075 4.7123889804 4.8004512023 4.6243267584 4.9155579264 4.7123889804 4.5092200343 
5.0674903122 4.8353719722 4.5894059886 4.3572876485 5.2659633393 5.0120975802 4.7123889804 4.4126803806 4.1588146215 
5.5125918794 5.2659633393 4.9155579264 4.5092200343 4.1588146215 3.9121860814 5.7885595667 5.6029703303 5.2659633393 
4.7123889804 4.1588146215 3.8218076305 3.6362183941 6.0560271438 5.9702140275 5.7885595667 5.2659633393 4.1588146215 
3.6362183941 3.4545639333 3.368750817 0.22715816343 0.49462574053 0.3129712797 0.77059342779 0.68021497688 0.49462574053 
1.0172219679 1.0172219679 1.0172219679 1.0172219679 1.2156949949 1.271087727 1.3676273807 1.5707963268 2.1243706857 
1.3676273807 1.447813335 1.5707963268 1.7739652728 2.1243706857 2.6469669131 1.4827341049 1.5707963268 1.6937793186 
1.8705049266 2.1243706857 2.4613776767 2.8286213739 1.5707963268 1.6588585487 1.7739652728 1.9258976586 2.1243706857 
2.3709992258 2.6469669131 2.9144344902 1.7563855631 1.8785697967 1.8563003522 2.0024758186 1.9913306621 1.9779583789 
2.1243706857 2.1243706857 2.1243706857 2.1243706857 2.2408671392 2.2510113037 2.2630782103 2.2776669786 2.295651703 
2.3494282469 2.3680303173 2.3899057108 2.4159740166 2.4475202889 2.486385773 2.448570738 2.4736848652 2.5028148801 
2.5369440334 2.5773755784 2.6258554882 2.6847397011 2.5377803997 2.5675431237 2.6015718084 2.6407557529 2.6862098746 
2.7393287203 2.8018393335 2.8758309421 1.6743954455 1.6743954455 1.7840462375 1.6743954455 1.7840462375 1.8974821136 
1.6743954455 1.7840462375 1.8974821136 2.0119052671 1.6743954455 1.7840462375 1.8974821136 2.0119052671 2.1243706857 
1.6743954455 1.7840462375 1.8974821136 2.0119052671 2.1243706857 2.232221744 1.6743954455 1.7840462375 1.8974821136 
2.0119052671 2.1243706857 2.232221744 2.3334263672 1.6743954455 1.7840462375 1.8974821136 2.0119052671 2.1243706857 
2.232221744 2.3334263672 2.426721652 1.4671972081 1.3575464161 1.4671972081 1.24411054 1.3575464161 1.4671972081 
1.1296873865 1.24411054 1.3575464161 1.4671972081 1.0172219679 1.1296873865 1.24411054 1.3575464161 1.4671972081 
0.90937090954 1.0172219679 1.1296873865 1.24411054 1.3575464161 1.4671972081 0.80816628637 0.90937090954 1.0172219679 
1.1296873865 1.24411054 1.3575464161 1.4671972081 0.71487100155 0.80816628637 0.90937090954 1.0172219679 1.1296873865 
1.24411054 1.3575464161 1.4671972081 0.60381225391 0.57404952988 0.69302191562 0.54002084522 0.66790778838 0.79216440667 
0.50083690068 0.63877777351 0.77356233629 0.90072551443 0.45538277901 0.60464862014 0.75168694275 0.89058134991 1.0172219679 
0.40226393329 0.56421707518 0.72561863695 0.87851444325 1.0172219679 1.139116835 0.33975332011 0.51573716537 0.69407236469 
0.86392567495 1.0172219679 1.1502619915 1.2630228569 0.26576171152 0.45685295248 0.6552068806 0.84594095064 1.0172219679 
1.1636342747 1.2852923014 1.3852070904 0.22715816343 0.3129712797 0.49462574053 0.49462574053 0.68021497688 0.77059342779 
1.0172219679 1.0172219679 1.0172219679 1.0172219679 2.1243706857 1.5707963268 1.3676273807 1.271087727 1.2156949949 
2.6469669131 2.1243706857 1.7739652728 1.5707963268 1.447813335 1.3676273807 2.8286213739 2.4613776767 2.1243706857 
1.8705049266 1.6937793186 1.5707963268 1.4827341049 2.9144344902 2.6469669131 2.3709992258 2.1243706857 1.9258976586 
1.7739652728 1.6588585487 1.5707963268 1.7563855631 1.8563003522 1.8785697967 1.9779583789 1.9913306621 2.0024758186 
2.1243706857 2.1243706857 2.1243706857 2.1243706857 2.295651703 2.2776669786 2.2630782103 2.2510113037 2.2408671392 
2.486385773 2.4475202889 2.4159740166 2.3899057108 2.3680303173 2.3494282469 2.6847397011 2.6258554882 2.5773755784 
2.5369440334 2.5028148801 2.4736848652 2.448570738 2.8758309421 2.8018393335 2.7393287203 2.6862098746 2.6407557529 
2.6015718084 2.5675431237 2.5377803997 5.8604937156 5.901393709 5.9723133995 5.9473927383 6.0216547488 6.0927478736 
5.9992719463 6.0767621038 6.1501452836 6.2190157008 6.0578962336 6.1383094565 6.2134963469 0 0.064169606361 
6.1241815303 6.206940195 6.2831853072 0.069688960264 0.13304002361 0.19043743361 6.1990255847 0 0.07624511221 
0.14487585072 0.20642320337 0.26153055843 0.3108719077 0 0.084159722458 0.15900377685 0.22528907359 0.28391336087 
0.3357925689 0.38179159818 0.42269159155 5.8604937156 5.9723133995 5.901393709 6.0927478736 6.0216547488 5.9473927383 
6.2190157008 6.1501452836 6.0767621038 5.9992719463 0.064169606361 0 6.2134963469 6.1383094565 6.0578962336 
0.19043743361 0.13304002361 0.069688960264 6.2831853072 6.206940195 6.1241815303 0.3108719077 0.26153055843 0.20642320337 
0.14487585072 0.07624511221 6.2831853072 6.1990255847 0.42269159155 0.38179159818 0.3357925689 0.28391336087 0.22528907359 
0.15900377685 0.084159722458 0 5.6793730533 5.7091357773 5.5901633916 5.743164462 5.6152775188 5.4910209005 
5.7823484065 5.6444075337 5.5096229709 5.3824597928 5.8278025282 5.678536687 5.5314983644 5.3926039573 5.2659633393 
5.8809213739 5.718968232 5.5575666702 5.4046708639 5.2659633393 5.1440684722 5.9434319871 5.7674481418 5.5891129425 
5.4192596322 5.2659633393 5.1329233157 5.0201624502 6.0174235957 5.8263323547 5.6279784266 5.4372443565 5.2659633393 
5.1195510325 4.9978930058 4.8979782167 1.3852070904 1.2852923014 1.2630228569 1.1636342747 1.1502619915 1.139116835 
1.0172219679 1.0172219679 1.0172219679 1.0172219679 0.84594095064 0.86392567495 0.87851444325 0.89058134991 0.90072551443 
0.6552068806 0.69407236469 0.72561863695 0.75168694275 0.77356233629 0.79216440667 0.45685295248 0.51573716537 0.56421707518 
0.60464862014 0.63877777351 0.66790778838 0.69302191562 0.26576171152 0.33975332011 0.40226393329 0.45538277901 0.50083690068 
0.54002084522 0.57404952988 0.60381225391 
_paraPhiHalf 1 1002 double
0 3.1415926536 0 3.1415926536 1.5707963268 1.5707963268 1.5707963268 1.5707963268 2.5880182947 
0.5535743589 2.5880182947 0.5535743589 0 0 0 0 3.1415926536 3.1415926536 
3.1415926536 3.1415926536 3.1415926536 0.17788134 0.38438696014 0.60631181711 0.82323535693 1.0172219679 1.1799687454 
1.3118704726 1.4175000338 1.5022335207 0.17788134 0.38438696014 0.60631181711 0.82323535693 1.0172219679 1.1799687454 
1.3118704726 1.4175000338 1.5022335207 0.093902416448 0.17615329733 0.2478725152 0.31035131605 0.36486382811 0.41257334776 
0.45449736604 0.4915044461 0.52432611754 0.093902416448 0.17615329733 0.2478725152 0.31035131605 0.36486382811 0.41257334776 
0.45449736604 0.4915044461 0.52432611754 2.9637113136 2.7572056934 2.5352808365 2.3183572967 2.1243706857 1.9616239082 
1.829722181 1.7240926197 1.6393591329 2.9637113136 2.7572056934 2.5352808365 2.3183572967 2.1243706857 1.9616239082 
1.829722181 1.7240926197 1.6393591329 3.0476902371 2.9654393563 2.8937201384 2.8312413375 2.7767288255 2.7290193058 
2.6870952876 2.6500882075 2.617266536 3.0476902371 2.9654393563 2.8937201384 2.8312413375 2.7767288255 2.7290193058 
2.6870952876 2.6500882075 2.617266536 0 0 0 0 3.1415926536 3.1415926536 
3.1415926536 3.1415926536 3.1415926536 0.17788134 0.38438696014 0.60631181711 0.82323535693 1.0172219679 1.1799687454 
1.3118704726 1.4175000338 1.5022335207 0.17788134 0.38438696014 0.60631181711 0.82323535693 1.0172219679 1.1799687454 
1.3118704726 1.4175000338 1.5022335207 0.093902416448 0.17615329733 0.2478725152 0.31035131605 0.36486382811 0.41257334776 
0.45449736604 0.4915044461 0.52432611754 0.093902416448 0.17615329733 0.2478725152 0.31035131605 0.36486382811 0.41257334776 
0.45449736604 0.4915044461 0.52432611754 2.9637113136 2.7572056934 2.5352808365 2.3183572967 2.1243706857 1.9616239082 
1.829722181 1.7240926197 1.6393591329 2.9637113136 2.7572056934 2.5352808365 2.3183572967 2.1243706857 1.9616239082 
1.829722181 1.7240926197 1.6393591329 3.0476902371 2.9654393563 2.8937201384 2.8312413375 2.7767288255 2.7290193058 
2.6870952876 2.6500882075 2.617266536 3.0476902371 2.9654393563 2.8937201384 2.8312413375 2.7767288255 2.7290193058 
2.6870952876 2.6500882075 2.617266536 1.5707963268 1.5707963268 1.5707963268 1.5707963268 1.5707963268 1.5707963268 
1.5707963268 1.5707963268 1.5707963268 1.6743954455 1.7840462375 1.8974821136 2.0119052671 2.1243706857 2.232221744 
2.3334263672 2.426721652 2.5115728246 1.4671972081 1.3575464161 1.24411054 1.1296873865 1.0172219679 0.90937090954 
0.80816628637 0.71487100155 0.63001982895 1.6743954455 1.7840462375 1.8974821136 2.0119052671 2.1243706857 2.232221744 
2.3334263672 2.426721652 2.5115728246 1.4671972081 1.3575464161 1.24411054 1.1296873865 1.0172219679 0.90937090954 
0.80816628637 0.71487100155 0.63001982895 1.5707963268 1.5707963268 1.5707963268 1.5707963268 1.5707963268 1.5707963268 
1.5707963268 1.5707963268 1.5707963268 1.6743954455 1.7840462375 1.8974821136 2.0119052671 2.1243706857 2.232221744 
2.3334263672 2.426721652 2.5115728246 1.4671972081 1.3575464161 1.24411054 1.1296873865 1.0172219679 0.90937090954 
0.80816628637 0.71487100155 0.63001982895 1.6743954455 1.7840462375 1.8974821136 2.0119052671 2.1243706857 2.232221744 
2.3334263672 2.426721652 2.5115728246 1.4671972081 1.3575464161 1.24411054 1.1296873865 1.0172219679 0.90937090954 
0.80816628637 0.71487100155 0.63001982895 2.6824132222 2.7864913217 2.8992382033 3.0186096618 3.1415926536 3.0186096618 
2.8992382033 2.7864913217 2.6824132222 0.45917943135 0.35510133185 0.2423544503 0.12298299178 0 0.12298299178 
0.2423544503 0.35510133185 0.45917943135 0.22715816343 0.49462574053 0.3129712797 0.77059342779 0.68021497688 0.49462574053 
1.0172219679 1.0172219679 1.0172219679 1.0172219679 1.2156949949 1.271087727 1.3676273807 1.5707963268 2.1243706857 
1.3676273807 1.447813335 1.5707963268 1.7739652728 2.1243706857 2.6469669131 1.4827341049 1.5707963268 1.6937793186 
1.8705049266 2.1243706857 2.4613776767 2.8286213739 1.5707963268 1.6588585487 1.7739652728 1.9258976586 2.1243706857 
2.3709992258 2.6469669131 2.9144344902 0.26576171152 0.33975332011 0.45685295248 0.40226393329 0.51573716537 0.6552068806 
0.45538277901 0.56421707518 0.69407236469 0.84594095064 0.50083690068 0.60464862014 0.72561863695 0.86392567495 1.0172219679 
0.54002084522 0.63877777351 0.75168694275 0.87851444325 1.0172219679 1.1636342747 0.57404952988 0.66790778838 0.77356233629 
0.89058134991 1.0172219679 1.1502619915 1.2852923014 0.60381225391 0.69302191562 0.79216440667 0.90072551443 1.0172219679 
1.139116835 1.2630228569 1.3852070904 0.71487100155 0.80816628637 0.80816628637 0.90937090954 0.90937090954 0.90937090954 
1.0172219679 1.0172219679 1.0172219679 1.0172219679 1.1296873865 1.1296873865 1.1296873865 1.1296873865 1.1296873865 
1.24411054 1.24411054 1.24411054 1.24411054 1.24411054 1.24411054 1.3575464161 1.3575464161 1.3575464161 
1.3575464161 1.3575464161 1.3575464161 1.3575464161 1.4671972081 1.4671972081 1.4671972081 1.4671972081 1.4671972081 
1.4671972081 1.4671972081 1.4671972081 1.6743954455 1.6743954455 1.7840462375 1.6743954455 1.7840462375 1.8974821136 
1.6743954455 1.7840462375 1.8974821136 2.0119052671 1.6743954455 1.7840462375 1.8974821136 2.0119052671 2.1243706857 
1.6743954455 1.7840462375 1.8974821136 2.0119052671 2.1243706857 2.232221744 1.6743954455 1.7840462375 1.8974821136 
2.0119052671 2.1243706857 2.232221744 2.3334263672 1.6743954455 1.7840462375 1.8974821136 2.0119052671 2.1243706857 
2.232221744 2.3334263672 2.426721652 1.7563855631 1.8785697967 1.8563003522 2.0024758186 1.9913306621 1.9779583789 
2.1243706857 2.1243706857 2.1243706857 2.1243706857 2.2408671392 2.2510113037 2.2630782103 2.2776669786 2.295651703 
2.3494282469 2.3680303173 2.3899057108 2.4159740166 2.4475202889 2.486385773 2.448570738 2.4736848652 2.5028148801 
2.5369440334 2.5773755784 2.6258554882 2.6847397011 2.5377803997 2.5675431237 2.6015718084 2.6407557529 2.6862098746 
2.7393287203 2.8018393335 2.8758309421 2.718901062 2.8307207459 2.7598010554 2.95115522 2.8800620952 2.8058000847 
3.0774230472 3.00855263 2.9351694502 2.8576792927 3.0774230472 3.1415926536 3.0719036933 2.9967168029 2.91630358 
2.95115522 3.00855263 3.0719036933 3.1415926536 3.0653475414 2.9825888767 2.8307207459 2.8800620952 2.9351694502 
2.9967168029 3.0653475414 3.1415926536 3.0574329311 2.718901062 2.7598010554 2.8058000847 2.8576792927 2.91630358 
2.9825888767 3.0574329311 3.1415926536 2.718901062 2.7598010554 2.8307207459 2.8058000847 2.8800620952 2.95115522 
2.8576792927 2.9351694502 3.00855263 3.0774230472 2.91630358 2.9967168029 3.0719036933 3.1415926536 3.0774230472 
2.9825888767 3.0653475414 3.1415926536 3.0719036933 3.00855263 2.95115522 3.0574329311 3.1415926536 3.0653475414 