# vtk DataFile Version 5.1
vtk output
ASCII
DATASET POLYDATA
POINTS 1002 float
24.1527 38.8273 16.6567 13.259 36.3758 18.3553 24.1731 34.6744 10.3349 
13.5652 32.0008 11.9685 16.2823 42.428 12.781 16.8959 39.0023 7.3339 
20.2453 31.3034 19.5501 21.9045 27.7912 14.1422 7.62556 37.3076 12.8142 
27.4618 42.435 10.3178 8.91395 29.0056 19.2344 29.7123 34.7453 16.3206 
23.0641 38.7451 16.8337 21.8154 38.4161 16.7993 20.4003 37.9275 16.6446 
18.9854 37.6785 16.7589 17.8561 37.9091 17.3957 17.0533 38.2586 18.2332 
16.283 38.1869 18.7161 15.3254 37.635 18.7089 14.2591 36.9401 18.4973 
23.4779 39.2591 16.3619 22.8034 39.6856 15.9346 22.1956 40.0457 15.4574 
21.5798 40.3621 15.0658 20.8055 40.6421 14.673 19.8701 40.8424 14.0748 
18.9169 41.0328 13.3846 18.0176 41.3785 12.9387 17.1403 41.8984 12.8127 
24.0674 38.4444 17.0787 23.8029 38.0597 17.5523 23.453 37.5721 18.0648 
23.1193 36.9338 18.5524 22.7766 36.149 18.8833 22.3326 35.155 19.0322 
21.7873 33.9453 19.1627 21.2247 32.7593 19.3665 20.7054 31.8708 19.5306 
24.7226 39.1245 16.2615 25.1877 39.5857 15.9229 25.6587 40.2127 15.6309 
26.2307 40.8181 15.2298 26.8059 41.2607 14.6273 27.2408 41.6479 13.8729 
27.5515 42.0813 12.9763 27.7561 42.4334 11.956 27.7472 42.5503 11.0011 
25.269 38.5685 16.6379 26.4902 38.4186 16.7606 27.6281 38.4812 17.2755 
28.5445 38.5582 18.0917 29.3 38.3195 18.7042 29.9503 37.7172 18.7128 
30.3244 36.9685 18.2309 30.2835 36.2122 17.5923 29.9893 35.4595 16.954 
13.4261 37.1441 18.1865 13.5776 37.955 18.0028 13.7704 38.7648 17.6864 
14.0515 39.5096 17.1498 14.3874 40.0968 16.4047 14.746 40.5034 15.5044 
15.1492 40.8721 14.5466 15.5747 41.3581 13.7181 15.9556 41.9283 13.1493 
13.6697 35.9046 18.6179 14.1178 35.411 18.9674 14.6419 34.9285 19.3694 
15.2465 34.4166 19.6644 15.8867 33.7714 19.6462 16.584 32.9864 19.3162 
17.4218 32.2416 18.9974 18.3852 31.7269 19.0007 19.3564 31.4539 19.2777 
12.4322 36.3995 18.1853 11.6516 36.4705 17.9746 10.9214 36.509 17.5874 
10.1411 36.521 17.0354 9.29967 36.6544 16.5189 8.57116 36.9596 16.1024 
8.08885 37.2614 15.5628 7.80658 37.4023 14.7317 7.65138 37.3957 13.7344 
12.5388 35.639 18.5018 11.7521 34.8905 18.7859 10.9486 34.069 19.0895 
10.225 33.1751 19.2889 9.60795 32.2965 19.4724 9.02343 31.4484 19.8169 
8.50521 30.565 20.1946 8.26259 29.7339 20.253 8.43018 29.183 19.8702 
23.3694 34.417 10.3307 22.3898 34.0954 10.3988 21.2669 33.6869 10.4625 
20.0545 33.2347 10.4932 18.8281 32.8252 10.5608 17.6347 32.5144 10.7445 
16.4728 32.2975 11.0295 15.3715 32.149 11.3483 14.3982 32.0548 11.6638 
23.4604 35.1752 10.1201 22.6147 35.7329 9.91369 21.8543 36.2779 9.592 
21.289 36.7532 9.10789 20.7646 37.1487 8.5459 20.0936 37.4784 7.98742 
19.2928 37.7802 7.48956 18.4646 38.1221 7.17819 17.6567 38.5414 7.14782 
24.2587 34.0299 10.6124 24.1857 33.255 10.943 24.0581 32.3507 11.1906 
24.0029 31.4875 11.4345 23.9613 30.7881 11.9249 23.7774 30.0953 12.5885 
23.4335 29.2521 13.0491 22.9987 28.4361 13.2627 22.4889 27.9315 13.5626 
24.4846 35.2431 10.3149 24.7825 35.9287 10.4279 25.1851 36.7085 10.4951 
25.7487 37.5071 10.3144 26.3086 38.3296 10.019 26.6444 39.2446 9.94129 
26.8009 40.2111 10.0738 26.9916 41.1008 10.154 27.2607 41.8457 10.1653 
24.9342 34.5642 10.5996 25.5805 34.5377 11.0568 26.2201 34.5706 11.667 
27.0794 34.5423 12.2615 28.2058 34.3751 12.7147 29.2609 34.1541 13.1292 
29.8382 34.0517 13.7261 29.9199 34.1616 14.5636 29.8027 34.4336 15.4885 
13.6836 32.5406 11.5538 13.8481 33.0836 11.0072 14.0626 33.5899 10.3116 
14.3427 34.1835 9.63953 14.7193 35.0304 9.1999 15.1845 36.0212 8.94012 
15.6652 36.8807 8.62277 16.1005 37.5721 8.16151 16.4996 38.2584 7.68215 
13.9807 31.4611 12.1552 14.477 30.8324 12.323 15.0981 30.2402 12.5189 
15.8996 29.8241 12.8188 16.8987 29.504 13.1822 18.0133 29.0594 13.4232 
19.0968 28.4963 13.4654 20.0759 28.0462 13.4874 20.9948 27.8344 13.7019 
12.7994 32.264 12.0193 11.9242 32.5164 12.0364 10.9712 32.8163 12.0121 
10.0341 33.2409 11.9592 9.18614 33.8197 11.9016 8.45125 34.5245 11.8601 
7.88209 35.3012 11.8783 7.56207 36.0765 12.03 7.50303 36.7651 12.3555 
12.9908 31.6742 12.4352 12.3207 31.376 13.0101 11.5196 30.9774 13.5753 
10.613 30.3022 13.95 9.72898 29.4844 14.2498 9.07499 28.9595 14.8712 
8.78122 28.8856 15.9365 8.76425 28.9782 17.1613 8.83844 29.0011 18.2819 
15.9658 42.9302 12.4411 15.7169 43.2099 11.759 15.6392 43.151 10.7128 
15.7964 42.8071 9.65132 16.1154 42.3435 8.95448 16.3954 41.8599 8.55898 
16.5212 41.31 8.16557 16.5834 40.6129 7.73043 16.7065 39.8 7.42371 
15.2104 42.5275 12.86 14.154 42.2795 12.7987 13.2942 41.643 12.6511 
12.6265 40.8187 12.5894 11.8672 40.0474 12.6934 10.8057 39.4002 12.8377 
9.62978 38.8526 12.8857 8.6721 38.3732 12.8518 8.03664 37.885 12.815 
17.1656 42.4862 12.4855 18.1774 42.4594 12.1243 19.3281 42.4675 11.7137 
20.5788 42.572 11.4141 21.9267 42.764 11.351 23.4421 43.029 11.3337 
25.0265 43.2737 11.077 26.3306 43.2978 10.6494 27.1116 42.9891 10.3518 
15.8794 38.9924 7.7405 14.7562 38.9285 8.03178 13.5343 38.7758 8.195 
12.3534 38.5794 8.49304 11.3787 38.3949 9.12597 10.5294 38.2042 9.92381 
9.61077 37.9818 10.6385 8.69014 37.7583 11.2867 8.00413 37.5477 12.0039 
17.8122 39.5114 6.96568 18.8609 40.0883 6.76143 20.0233 40.6891 6.80533 
21.2382 41.2272 7.09744 22.4049 41.6007 7.58724 23.5071 41.8286 8.18373 
24.6385 42.0615 8.76421 25.7873 42.3371 9.27598 26.7735 42.5021 9.77363 
20.5358 30.9306 19.5468 20.9253 30.4442 19.3349 21.3552 29.7675 18.9695 
21.6726 29.0197 18.5714 21.8309 28.4428 18.1889 21.9549 28.1533 17.7337 
22.0973 28.0478 17.0525 22.1555 27.962 16.0984 22.0715 27.8502 15.0407 
19.2319 30.9095 19.3601 18.1234 30.4064 19.2976 16.9976 29.8016 19.584 
15.8572 29.2834 20.1898 14.5702 28.9972 20.8181 13.0975 28.8886 21.1511 
11.6739 28.877 21.0574 10.5352 28.9408 20.6057 9.65924 29.0115 19.9544 
21.3655 31.4624 19.6632 22.4445 31.6893 19.4324 23.4235 32.0839 18.8774 
24.4128 32.6608 18.3114 25.5747 33.2733 17.9961 26.83 33.751 17.8563 
27.9165 34.0739 17.6753 28.7228 34.3223 17.3499 29.3083 34.5444 16.8822 
20.6571 27.8609 14.6244 19.2795 28.0133 15.2418 17.71 28.0963 15.8492 
15.9051 28.0086 16.4241 14.1528 27.9089 17.0631 12.8873 28.0948 17.7292 
12.0534 28.5519 18.2607 11.1715 28.9319 18.6386 10.041 29.0356 18.9598 
23.2582 27.823 14.3152 24.5853 27.94 14.6375 25.5307 28.3023 15.0377 
25.9533 29.1859 15.4131 26.2225 30.5808 15.666 26.8208 31.9599 15.7522 
27.7368 32.8582 15.7547 28.6115 33.4114 15.8308 29.2521 34.0006 16.0441 
7.27494 36.6148 13.3907 6.88863 35.6245 14.0526 6.49241 34.5104 14.7719 
6.32879 33.5676 15.5195 6.50989 32.7046 16.2699 6.76049 31.5284 17.0044 
6.89952 30.1686 17.705 7.19408 29.2446 18.3378 7.90464 28.9732 18.8563 
27.9052 41.834 10.7733 28.4253 41.1385 11.3077 29.1124 40.4703 11.8717 
29.759 39.6987 12.4922 30.0706 38.6725 13.2679 30.1014 37.6113 14.1876 
30.1219 36.7893 15.0576 30.1641 36.1129 15.6948 30.0544 35.4133 16.0843 
22.4185 39.0304 16.3621 21.7805 39.2512 15.7094 21.1206 38.5406 16.1822 
21.1343 39.474 15.0961 20.4452 38.6854 15.4719 19.634 38.1161 16.1449 
20.3666 39.8082 14.7161 19.7317 39.0355 14.9676 18.9703 38.5207 15.7325 
18.296 38.2271 16.6698 19.454 40.2092 14.4089 18.892 39.6245 14.7784 
18.2853 39.2172 15.5646 17.7568 38.9928 16.6766 17.3623 38.7545 17.6367 
18.5332 40.5687 13.9551 18.0053 40.2174 14.6297 17.4771 39.9864 15.5398 
17.0952 39.7883 16.6775 16.8428 39.5092 17.7272 16.5976 38.9962 18.3958 
17.6766 40.9404 13.4947 17.1887 40.6462 14.3205 16.6553 40.5048 15.373 
16.2556 40.3337 16.51 16.032 39.9764 17.5296 15.8669 39.396 18.2305 
15.6393 38.5906 18.5725 16.8231 41.4163 13.2465 16.3973 40.9957 13.9773 
15.8967 40.7359 14.992 15.4467 40.5208 16.0864 15.1199 40.1341 17.0539 
14.8911 39.5129 17.7746 14.7043 38.7232 18.1958 14.5026 37.8371 18.385 
23.9027 39.7026 16.006 24.2673 40.2163 15.6398 23.1501 40.2779 15.6795 
24.754 40.7125 15.1568 23.5058 40.8044 15.2902 22.5511 40.7684 15.3368 
25.4016 41.1207 14.5067 24.0415 41.1805 14.6 22.943 41.3252 14.8717 
21.9462 41.151 14.9418 26.0468 41.5813 13.8404 24.7047 41.5503 13.8074 
23.4446 41.6872 13.9876 22.2919 41.7206 14.2685 21.106 41.3634 14.2933 
26.596 42.2191 13.1812 25.3416 42.1546 13.2229 23.9681 42.0835 13.1822 
22.6263 42.0675 13.2721 21.3201 41.8671 13.4266 20.0644 41.4254 13.4322 
27.0385 42.8205 12.3188 25.8977 42.8709 12.6414 24.4462 42.6426 12.6898 
22.9383 42.3895 12.5542 21.5051 42.1738 12.5315 20.1848 41.8804 12.6457 
19.0266 41.5672 12.7671 27.2501 43.0873 11.2712 26.2774 43.3029 11.7265 
24.8373 43.1247 12.067 23.23 42.7606 12.0653 21.7192 42.4529 11.9335 
20.3498 42.2298 11.997 19.1276 42.0581 12.2434 18.0714 41.9584 12.5221 
26.2233 42.9226 9.71713 24.9608 42.6521 9.11368 25.1507 43.0933 9.91948 
23.5892 42.4244 8.51194 23.6533 42.8492 9.15958 23.6307 43.0775 10.2405 
22.3358 42.2753 7.90211 22.184 42.7628 8.43842 22.1053 43.0252 9.33891 
22.056 43.006 10.4554 21.1515 41.973 7.37404 20.8883 42.5909 7.86715 
20.6986 43.0173 8.57967 20.6829 43.1271 9.57341 20.6781 42.9145 10.6276 
19.9387 41.4547 7.05665 19.6856 42.117 7.5549 19.4376 42.6817 8.14741 
19.3749 43.0512 8.91787 19.4188 43.0825 9.96534 19.3996 42.8278 11.001 
18.7545 40.886 6.99905 18.5623 41.5606 7.50456 18.3321 42.1261 8.05282 
18.177 42.6289 8.60365 18.1357 42.9775 9.44275 18.1325 43.0467 10.577 
18.1311 42.8412 11.558 17.6734 40.3426 7.15326 17.5424 41.0946 7.60216 
17.3988 41.6886 8.12183 17.206 42.19 8.54994 16.9951 42.6645 9.10919 
16.8549 43.0322 10.0866 16.8423 43.1431 11.2371 16.9589 42.9338 12.0737 
14.8499 42.9535 12.319 14.6146 43.0764 11.4311 13.8531 42.5339 12.055 
14.6281 42.8517 10.3445 13.7078 42.4863 11.0966 13.1113 41.7052 11.8355 
14.9186 42.4174 9.43873 13.7864 42.1765 10.1388 13.0159 41.5555 10.9725 
12.4844 40.7645 11.8224 15.2897 41.9145 8.87152 14.0421 41.7257 9.36529 
13.0113 41.2517 10.1499 12.3282 40.6188 11.0501 11.6574 39.9692 11.9344 
15.4863 41.3397 8.4564 14.2569 41.1684 8.75046 13.06 40.8098 9.34771 
12.1823 40.3709 10.2291 11.4483 39.8707 11.1301 10.5569 39.3266 11.9894 
[...]
POINT_DATA 1002
FIELD FieldData 4
_paraPhi 1 1002 double
6.2831853072 3.1415926536 6.2831853072 3.1415926536 4.7123889804 4.7123889804 1.5707963268 1.5707963268 3.6951670125 
5.7296109483 2.5880182947 0.5535743589 6.2831853072 6.2831853072 6.2831853072 6.2831853072 3.1415926536 3.1415926536 
3.1415926536 3.1415926536 3.1415926536 6.1053039672 5.898798347 5.6768734901 5.4599499503 5.2659633393 5.1032165617 
4.9713148346 4.8656852733 4.7809517865 0.17788134 0.38438696014 0.60631181711 0.82323535693 1.0172219679 1.1799687454 
1.3118704726 1.4175000338 1.5022335207 6.1892828907 6.1070320098 6.035312792 5.9728339911 5.9183214791 5.8706119594 
5.8286879411 5.7916808611 5.7588591896 0.093902416448 0.17615329733 0.2478725152 0.31035131605 0.36486382811 0.41257334776 
0.45449736604 0.4915044461 0.52432611754 3.3194739936 3.5259796137 3.7479044707 3.9648280105 4.1588146215 4.321561399 
4.4534631262 4.5590926874 4.6438261743 2.9637113136 2.7572056934 2.5352808365 2.3183572967 2.1243706857 1.9616239082 
1.829722181 1.7240926197 1.6393591329 3.23549507 3.3177459509 3.3894651688 3.4519439696 3.5064564817 3.5541660013 
3.5960900196 3.6330970997 3.6659187711 3.0476902371 2.9654393563 2.8937201384 2.8312413375 2.7767288255 2.7290193058 
2.6870952876 2.6500882075 2.617266536 6.2831853072 6.2831853072 6.2831853072 6.2831853072 3.1415926536 3.1415926536 
3.1415926536 3.1415926536 3.1415926536 6.1053039672 5.898798347 5.6768734901 5.4599499503 5.2659633393 5.1032165617 
4.9713148346 4.8656852733 4.7809517865 0.17788134 0.38438696014 0.60631181711 0.82323535693 1.0172219679 1.1799687454 
1.3118704726 1.4175000338 1.5022335207 6.1892828907 6.1070320098 6.035312792 5.9728339911 5.9183214791 5.8706119594 
5.8286879411 5.7916808611 5.7588591896 0.093902416448 0.17615329733 0.2478725152 0.31035131605 0.36486382811 0.41257334776 
0.45449736604 0.4915044461 0.52432611754 3.3194739936 3.5259796137 3.7479044707 3.9648280105 4.1588146215 4.321561399 
4.4534631262 4.5590926874 4.6438261743 2.9637113136 2.7572056934 2.5352808365 2.3183572967 2.1243706857 1.9616239082 
1.829722181 1.7240926197 1.6393591329 3.23549507 3.3177459509 3.3894651688 3.4519439696 3.5064564817 3.5541660013 
3.5960900196 3.6330970997 3.6659187711 3.0476902371 2.9654393563 2.8937201384 2.8312413375 2.7767288255 2.7290193058 
2.6870952876 2.6500882075 2.617266536 4.7123889804 4.7123889804 4.7123889804 4.7123889804 4.7123889804 4.7123889804 
4.7123889804 4.7123889804 4.7123889804 4.6087898617 4.4991390697 4.3857031936 4.2712800401 4.1588146215 4.0509635631 
3.94975894 3.8564636551 3.7716124825 4.8159880991 4.9256388911 5.0390747672 5.1534979207 5.2659633393 5.3738143976 
5.4750190208 5.5683143056 5.6531654782 4.6087898617 4.4991390697 4.3857031936 4.2712800401 4.1588146215 4.0509635631 
3.94975894 3.8564636551 3.7716124825 4.8159880991 4.9256388911 5.0390747672 5.1534979207 5.2659633393 5.3738143976 
5.4750190208 5.5683143056 5.6531654782 1.5707963268 1.5707963268 1.5707963268 1.5707963268 1.5707963268 1.5707963268 
1.5707963268 1.5707963268 1.5707963268 1.6743954455 1.7840462375 1.8974821136 2.0119052671 2.1243706857 2.232221744 
2.3334263672 2.426721652 2.5115728246 1.4671972081 1.3575464161 1.24411054 1.1296873865 1.0172219679 0.90937090954 
0.80816628637 0.71487100155 0.63001982895 1.6743954455 1.7840462375 1.8974821136 2.0119052671 2.1243706857 2.232221744 
2.3334263672 2.426721652 2.5115728246 1.4671972081 1.3575464161 1.24411054 1.1296873865 1.0172219679 0.90937090954 
0.80816628637 0.71487100155 0.63001982895 3.6007720849 3.4966939854 3.3839471039 3.2645756454 3.1415926536 3.0186096618 
2.8992382033 2.7864913217 2.6824132222 5.8240058758 5.9280839753 6.0408308569 6.1602023154 6.2831853072 0.12298299178 
0.2423544503 0.35510133185 0.45917943135 6.0560271438 5.7885595667 5.9702140275 5.5125918794 5.6029703303 5.7885595667 
5.2659633393 5.2659633393 5.2659633393 5.2659633393 5.0674903122 5.0120975802 4.9155579264 4.7123889804 4.1588146215 
4.9155579264 4.8353719722 4.7123889804 4.5092200343 4.1588146215 3.6362183941 4.8004512023 4.7123889804 4.5894059886 
4.4126803806 4.1588146215 3.8218076305 3.4545639333 4.7123889804 4.6243267584 4.5092200343 4.3572876485 4.1588146215 
3.9121860814 3.6362183941 3.368750817 6.0174235957 5.9434319871 5.8263323547 5.8809213739 5.7674481418 5.6279784266 
5.8278025282 5.718968232 5.5891129425 5.4372443565 5.7823484065 5.678536687 5.5575666702 5.4192596322 5.2659633393 
5.743164462 5.6444075337 5.5314983644 5.4046708639 5.2659633393 5.1195510325 5.7091357773 5.6152775188 5.5096229709 
5.3926039573 5.2659633393 5.1329233157 4.9978930058 5.6793730533 5.5901633916 5.4910209005 5.3824597928 5.2659633393 
5.1440684722 5.0201624502 4.8979782167 5.5683143056 5.4750190208 5.4750190208 5.3738143976 5.3738143976 5.3738143976 
5.2659633393 5.2659633393 5.2659633393 5.2659633393 5.1534979207 5.1534979207 5.1534979207 5.1534979207 5.1534979207 
5.0390747672 5.0390747672 5.0390747672 5.0390747672 5.0390747672 5.0390747672 4.9256388911 4.9256388911 4.9256388911 
4.9256388911 4.9256388911 4.9256388911 4.9256388911 4.8159880991 4.8159880991 4.8159880991 4.8159880991 4.8159880991 
4.8159880991 4.8159880991 4.8159880991 4.6087898617 4.6087898617 4.4991390697 4.6087898617 4.4991390697 4.3857031936 
4.6087898617 4.4991390697 4.3857031936 4.2712800401 4.6087898617 4.4991390697 4.3857031936 4.2712800401 4.1588146215 
4.6087898617 4.4991390697 4.3857031936 4.2712800401 4.1588146215 4.0509635631 4.6087898617 4.4991390697 4.3857031936 
4.2712800401 4.1588146215 4.0509635631 3.94975894 4.6087898617 4.4991390697 4.3857031936 4.2712800401 4.1588146215 
4.0509635631 3.94975894 3.8564636551 4.526799744 4.4046155105 4.426884955 4.2807094886 4.2918546451 4.3052269283 
4.1588146215 4.1588146215 4.1588146215 4.1588146215 4.042318168 4.0321740035 4.0201070968 4.0055183285 3.9875336042 
3.9337570603 3.9151549899 3.8932795963 3.8672112905 3.8356650183 3.7967995342 3.8346145692 3.809500442 3.7803704271 
3.7462412737 3.7058097288 3.657329819 3.5984456061 3.7454049075 3.7156421835 3.6816134988 3.6424295543 3.5969754326 
3.5438565869 3.4813459737 3.4073543651 3.5642842451 3.4524645613 3.5233842518 3.3320300872 3.403123212 3.4773852225 
3.20576226 3.2746326772 3.348015857 3.4255060145 3.0774230472 3.1415926536 3.2112816139 3.2864685043 3.3668817272 
2.95115522 3.00855263 3.0719036933 3.1415926536 3.2178377658 3.3005964304 2.8307207459 2.8800620952 2.9351694502 
2.9967168029 3.0653475414 3.1415926536 3.225752376 2.718901062 2.7598010554 2.8058000847 2.8576792927 2.91630358 
2.9825888767 3.0574329311 3.1415926536 3.5642842451 3.5233842518 3.4524645613 3.4773852225 3.403123212 3.3320300872 
3.4255060145 3.348015857 3.2746326772 3.20576226 3.3668817272 3.2864685043 3.2112816139 3.1415926536 3.0774230472 
3.3005964304 3.2178377658 3.1415926536 3.0719036933 3.00855263 2.95115522 3.225752376 3.1415926536 3.0653475414 
2.9967168029 2.9351694502 2.8800620952 2.8307207459 3.1415926536 3.0574329311 2.9825888767 2.91630358 2.8576792927 
2.8058000847 2.7598010554 2.718901062 4.526799744 4.426884955 4.4046155105 4.3052269283 4.2918546451 4.2807094886 
4.1588146215 4.1588146215 4.1588146215 4.1588146215 3.9875336042 4.0055183285 4.0201070968 4.0321740035 4.042318168 
3.7967995342 3.8356650183 3.8672112905 3.8932795963 3.9151549899 3.9337570603 3.5984456061 3.657329819 3.7058097288 
3.7462412737 3.7803704271 3.809500442 3.8346145692 3.4073543651 3.4813459737 3.5438565869 3.5969754326 3.6424295543 
3.6816134988 3.7156421835 3.7454049075 4.7123889804 4.8004512023 4.6243267584 4.9155579264 4.7123889804 4.5092200343 
5.0674903122 4.8353719722 4.5894059886 4.3572876485 5.2659633393 5.0120975802 4.7123889804 4.4126803806 4.1588146215 
5.5125918794 5.2659633393 4.9155579264 4.5092200343 4.1588146215 3.9121860814 5.7885595667 5.6029703303 5.2659633393 
4.7123889804 4.1588146215 3.8218076305 3.6362183941 6.0560271438 5.9702140275 5.7885595667 5.2659633393 4.1588146215 
3.6362183941 3.4545639333 3.368750817 0.22715816343 0.49462574053 0.3129712797 0.77059342779 0.68021497688 0.49462574053 
1.0172219679 1.0172219679 1.0172219679 1.0172219679 1.2156949949 1.271087727 1.3676273807 1.5707963268 2.1243706857 
1.3676273807 1.447813335 1.5707963268 1.7739652728 2.1243706857 2.6469669131 1.4827341049 1.5707963268 1.6937793186 
1.8705049266 2.1243706857 2.4613776767 2.8286213739 1.5707963268 1.6588585487 1.7739652728 1.9258976586 2.1243706857 
2.3709992258 2.6469669131 2.9144344902 1.7563855631 1.8785697967 1.8563003522 2.0024758186 1.9913306621 1.9779583789 
2.1243706857 2.1243706857 2.1243706857 2.1243706857 2.2408671392 2.2510113037 2.2630782103 2.2776669786 2.295651703 
2.3494282469 2.3680303173 2.3899057108 2.4159740166 2.4475202889 2.486385773 2.448570738 2.4736848652 2.5028148801 
2.5369440334 2.5773755784 2.6258554882 2.6847397011 2.5377803997 2.5675431237 2.6015718084 2.6407557529 2.6862098746 
2.7393287203 2.8018393335 2.8758309421 1.6743954455 1.6743954455 1.7840462375 1.6743954455 1.7840462375 1.8974821136 
1.6743954455 1.7840462375 1.8974821136 2.0119052671 1.6743954455 1.7840462375 1.8974821136 2.0119052671 2.1243706857 
1.6743954455 1.7840462375 1.8974821136 2.0119052671 2.1243706857 2.232221744 1.6743954455 1.7840462375 1.8974821136 
2.0119052671 2.1243706857 2.232221744 2.3334263672 1.6743954455 1.7840462375 1.8974821136 2.0119052671 2.1243706857 
2.232221744 2.3334263672 2.426721652 1.4671972081 1.3575464161 1.4671972081 1.24411054 1.3575464161 1.4671972081 
1.1296873865 1.24411054 1.3575464161 1.4671972081 1.0172219679 1.1296873865 1.24411054 1.3575464161 1.4671972081 
0.90937090954 1.0172219679 1.1296873865 1.24411054 1.3575464161 1.4671972081 0.80816628637 0.90937090954 1.0172219679 
1.1296873865 1.24411054 1.3575464161 1.4671972081 0.71487100155 0.80816628637 0.90937090954 1.0172219679 1.1296873865 
1.24411054 1.3575464161 1.4671972081 0.60381225391 0.57404952988 0.69302191562 0.54002084522 0.66790778838 0.79216440667 
0.50083690068 0.63877777351 0.77356233629 0.90072551443 0.45538277901 0.60464862014 0.75168694275 0.89058134991 1.0172219679 
0.40226393329 0.56421707518 0.72561863695 0.87851444325 1.0172219679 1.139116835 0.33975332011 0.51573716537 0.69407236469 
0.86392567495 1.0172219679 1.1502619915 1.2630228569 0.26576171152 0.45685295248 0.6552068806 0.84594095064 1.0172219679 
1.1636342747 1.2852923014 1.3852070904 0.22715816343 0.3129712797 0.49462574053 0.49462574053 0.68021497688 0.77059342779 
1.0172219679 1.0172219679 1.0172219679 1.0172219679 2.1243706857 1.5707963268 1.3676273807 1.271087727 1.2156949949 
2.6469669131 2.1243706857 1.7739652728 1.5707963268 1.447813335 1.3676273807 2.8286213739 2.4613776767 2.1243706857 
1.8705049266 1.6937793186 1.5707963268 1.4827341049 2.9144344902 2.6469669131 2.3709992258 2.1243706857 1.9258976586 
1.7739652728 1.6588585487 1.5707963268 1.7563855631 1.8563003522 1.8785697967 1.9779583789 1.9913306621 2.0024758186 
2.1243706857 2.1243706857 2.1243706857 2.1243706857 2.295651703 2.2776669786 2.2630782103 2.2510113037 2.2408671392 
2.486385773 2.4475202889 2.4159740166 2.3899057108 2.3680303173 2.3494282469 2.6847397011 2.6258554882 2.5773755784 
2.5369440334 2.5028148801 2.4736848652 2.448570738 2.8758309421 2.8018393335 2.7393287203 2.6862098746 2.6407557529 
2.6015718084 2.5675431237 2.5377803997 5.8604937156 5.901393709 5.9723133995 5.9473927383 6.0216547488 6.0927478736 
5.9992719463 6.0767621038 6.1501452836 6.2190157008 6.0578962336 6.1383094565 6.2134963469 0 0.064169606361 
6.1241815303 6.206940195 6.2831853072 0.069688960264 0.13304002361 0.19043743361 6.1990255847 0 0.07624511221 
0.14487585072 0.20642320337 0.26153055843 0.3108719077 0 0.084159722458 0.15900377685 0.22528907359 0.28391336087 
0.3357925689 0.38179159818 0.42269159155 5.8604937156 5.9723133995 5.901393709 6.0927478736 6.0216547488 5.9473927383 
6.2190157008 6.1501452836 6.0767621038 5.9992719463 0.064169606361 0 6.2134963469 6.1383094565 6.0578962336 
0.19043743361 0.13304002361 0.069688960264 6.2831853072 6.206940195 6.1241815303 0.3108719077 0.26153055843 0.20642320337 
0.14487585072 0.07624511221 6.2831853072 6.1990255847 0.42269159155 0.38179159818 0.3357925689 0.28391336087 0.22528907359 
0.15900377685 0.084159722458 0 5.6793730533 5.7091357773 5.5901633916 5.743164462 5.6152775188 5.4910209005 
5.7823484065 5.6444075337 5.5096229709 5.3824597928 5.8278025282 5.678536687 5.5314983644 5.3926039573 5.2659633393 
5.8809213739 5.718968232 5.5575666702 5.4046708639 5.2659633393 5.1440684722 5.9434319871 5.7674481418 5.5891129425 
5.4192596322 5.2659633393 5.1329233157 5.0201624502 6.0174235957 5.8263323547 5.6279784266 5.4372443565 5.2659633393 
5.1195510325 4.9978930058 4.8979782167 1.3852070904 1.2852923014 1.2630228569 1.1636342747 1.1502619915 1.139116835 
1.0172219679 1.0172219679 1.0172219679 1.0172219679 0.84594095064 0.86392567495 0.87851444325 0.89058134991 0.90072551443 
0.6552068806 0.69407236469 0.72561863695 0.75168694275 0.77356233629 0.79216440667 0.45685295248 0.51573716537 0.56421707518 
0.60464862014 0.63877777351 0.66790778838 0.69302191562 0.26576171152 0.33975332011 0.40226393329 0.45538277901 0.50083690068 
0.54002084522 0.57404952988 0.60381225391 
_paraPhiHalf 1 1002 double
0 3.1415926536 0 3.1415926536 1.5707963268 1.5707963268 1.5707963268 1.5707963268 2.5880182947 
0.5535743589 2.5880182947 0.5535743589 0 0 0 0 3.1415926536 3.1415926536 
3.1415926536 3.1415926536 3.1415926536 0.17788134 0.38438696014 0.60631181711 0.82323535693 1.0172219679 1.1799687454 
1.3118704726 1.4175000338 1.5022335207 0.17788134 0.38438696014 0.60631181711 0.82323535693 1.0172219679 1.1799687454 
1.3118704726 1.4175000338 1.5022335207 0.093902416448 0.17615329733 0.2478725152 0.31035131605 0.36486382811 0.41257334776 
0.45449736604 0.4915044461 0.52432611754 0.093902416448 0.17615329733 0.2478725152 0.31035131605 0.36486382811 0.41257334776 
0.45449736604 0.4915044461 0.52432611754 2.9637113136 2.7572056934 2.5352808365 2.3183572967 2.1243706857 1.9616239082 
1.829722181 1.7240926197 1.6393591329 2.9637113136 2.7572056934 2.5352808365 2.3183572967 2.1243706857 1.9616239082 
1.829722181 1.7240926197 1.6393591329 3.0476902371 2.9654393563 2.8937201384 2.8312413375 2.7767288255 2.7290193058 
2.6870952876 2.6500882075 2.617266536 3.0476902371 2.9654393563 2.8937201384 2.8312413375 2.7767288255 2.7290193058 
2.6870952876 2.6500882075 2.617266536 0 0 0 0 3.1415926536 3.1415926536 
3.1415926536 3.1415926536 3.1415926536 0.17788134 0.38438696014 0.60631181711 0.82323535693 1.0172219679 1.1799687454 
1.3118704726 1.4175000338 1.5022335207 0.17788134 0.38438696014 0.60631181711 0.82323535693 1.0172219679 1.1799687454 
1.3118704726 1.4175000338 1.5022335207 0.093902416448 0.17615329733 0.2478725152 0.31035131605 0.36486382811 0.41257334776 
0.45449736604 0.4915044461 0.52432611754 0.093902416448 0.17615329733 0.2478725152 0.31035131605 0.36486382811 0.41257334776 
0.45449736604 0.4915044461 0.52432611754 2.9637113136 2.7572056934 2.5352808365 2.3183572967 2.1243706857 1.9616239082 
1.829722181 1.7240926197 1.6393591329 2.9637113136 2.7572056934 2.5352808365 2.3183572967 2.1243706857 1.9616239082 
1.829722181 1.7240926197 1.6393591329 3.0476902371 2.9654393563 2.8937201384 2.8312413375 2.7767288255 2.7290193058 
2.6870952876 2.6500882075 2.617266536 3.0476902371 2.9654393563 2.8937201384 2.8312413375 2.7767288255 2.7290193058 
2.6870952876 2.6500882075 2.617266536 1.5707963268 1.5707963268 1.5707963268 1.5707963268 1.5707963268 1.5707963268 
1.5707963268 1.5707963268 1.5707963268 1.6743954455 1.7840462375 1.8974821136 2.0119052671 2.1243706857 2.232221744 
2.3334263672 2.426721652 2.5115728246 1.4671972081 1.3575464161 1.24411054 1.1296873865 1.0172219679 0.90937090954 
0.80816628637 0.71487100155 0.63001982895 1.6743954455 1.7840462375 1.8974821136 2.0119052671 2.1243706857 2.232221744 
2.3334263672 2.426721652 2.5115728246 1.4671972081 1.3575464161 1.24411054 1.1296873865 1.0172219679 0.90937090954 
0.80816628637 0.71487100155 0.63001982895 1.5707963268 1.5707963268 1.5707963268 1.5707963268 1.5707963268 1.5707963268 
1.5707963268 1.5707963268 1.5707963268 1.6743954455 1.7840462375 1.8974821136 2.0119052671 2.1243706857 2.232221744 
2.3334263672 2.426721652 2.5115728246 1.4671972081 1.3575464161 1.24411054 1.1296873865 1.0172219679 0.90937090954 
0.80816628637 0.71487100155 0.63001982895 1.6743954455 1.7840462375 1.8974821136 2.0119052671 2.1243706857 2.232221744 
2.3334263672 2.426721652 2.5115728246 1.4671972081 1.3575464161 1.24411054 1.1296873865 1.0172219679 0.90937090954 
0.80816628637 0.71487100155 0.63001982895 2.6824132222 2.7864913217 2.8992382033 3.0186096618 3.1415926536 3.0186096618 
2.8992382033 2.7864913217 2.6824132222 0.45917943135 0.35510133185 0.2423544503 0.12298299178 0 0.12298299178 
0.2423544503 0.35510133185 0.45917943135 0.22715816343 0.49462574053 0.3129712797 0.77059342779 0.68021497688 0.49462574053 
1.0172219679 1.0172219679 1.0172219679 1.0172219679 1.2156949949 1.271087727 1.3676273807 1.5707963268 2.1243706857 
1.3676273807 1.447813335 1.5707963268 1.7739652728 2.1243706857 2.6469669131 1.4827341049 1.5707963268 1.6937793186 
1.8705049266 2.1243706857 2.4613776767 2.8286213739 1.5707963268 1.6588585487 1.7739652728 1.9258976586 2.1243706857 
2.3709992258 2.6469669131 2.9144344902 0.26576171152 0.33975332011 0.45685295248 0.40226393329 0.51573716537 0.6552068806 
0.45538277901 0.56421707518 0.69407236469 0.84594095064 0.50083690068 0.60464862014 0.72561863695 0.86392567495 1.0172219679 
0.54002084522 0.63877777351 0.75168694275 0.87851444325 1.0172219679 1.1636342747 0.57404952988 0.66790778838 0.77356233629 
0.89058134991 1.0172219679 1.1502619915 1.2852923014 0.60381225391 0.69302191562 0.79216440667 0.90072551443 1.0172219679 
1.139116835 1.2630228569 1.3852070904 0.71487100155 0.80816628637 0.80816628637 0.90937090954 0.90937090954 0.90937090954 
1.0172219679 1.0172219679 1.0172219679 1.0172219679 1.1296873865 1.1296873865 1.1296873865 1.1296873865 1.1296873865 
1.24411054 1.24411054 1.24411054 1.24411054 1.24411054 1.24411054 1.3575464161 1.3575464161 1.3575464161 
1.3575464161 1.3575464161 1.3575464161 1.3575464161 1.4671972081 1.4671972081 1.4671972081 1.4671972081 1.4671972081 
1.4671972081 1.4671972081 1.4671972081 1.6743954455 1.6743954455 1.7840462375 1.6743954455 1.7840462375 1.8974821136 
1.6743954455 1.7840462375 1.8974821136 2.0119052671 1.6743954455 1.7840462375 1.8974821136 2.0119052671 2.1243706857 
1.6743954455 1.7840462375 1.8974821136 2.0119052671 2.1243706857 2.232221744 1.6743954455 1.7840462375 1.8974821136 
2.0119052671 2.1243706857 2.232221744 2.3334263672 1.6743954455 1.7840462375 1.8974821136 2.0119052671 2.1243706857 
2.232221744 2.3334263672 2.426721652 1.7563855631 1.8785697967 1.8563003522 2.0024758186 1.9913306621 1.9779583789 
2.1243706857 2.1243706857 2.1243706857 2.1243706857 2.2408671392 2.2510113037 2.2630782103 2.2776669786 2.295651703 
2.3494282469 2.3680303173 2.3899057108 2.4159740166 2.4475202889 2.486385773 2.448570738 2.4736848652 2.5028148801 
2.5369440334 2.5773755784 2.6258554882 2.6847397011 2.5377803997 2.5675431237 2.6015718084 2.6407557529 2.6862098746 
2.7393287203 2.8018393335 2.8758309421 2.718901062 2.8307207459 2.7598010554 2.95115522 2.8800620952 2.8058000847 
3.0774230472 3.00855263 2.9351694502 2.8576792927 3.0774230472 3.1415926536 3.0719036933 2.9967168029 2.91630358 
2.95115522 3.00855263 3.0719036933 3.1415926536 3.0653475414 2.9825888767 2.8307207459 2.8800620952 2.9351694502 
2.9967168029 3.0653475414 3.1415926536 3.0574329311 2.718901062 2.7598010554 2.8058000847 2.8576792927 2.91630358 
2.9825888767 3.0574329311 3.1415926536 2.718901062 2.7598010554 2.8307207459 2.8058000847 2.8800620952 2.95115522 
2.8576792927 2.9351694502 3.00855263 3.0774230472 2.91630358 2.9967168029 3.0719036933 3.1415926536 3.0774230472 
2.9825888767 3.0653475414 3.1415926536 3.0719036933 3.00855263 2.95115522 3.0574329311 3.1415926536 3.0653475414 