# vtk DataFile Version 5.1
vtk output
ASCII
DATASET POLYDATA
POINTS 1002 float
10.9805 35.75 15.7101 20.2779 42.0467 13.4521 14.151 30.4268 7.71218 
21.4167 39.0226 7.77519 20.2384 34.9751 17.804 21.8261 31.3034 12.0462 
12.7475 42.1012 10.6894 14.348 39.628 6.10562 26.9746 41.8587 13.0968 
12.2177 28.8886 15.7388 21.3636 46.2793 7.70363 7.48307 33.5374 10.6488 
11.7313 36.3367 15.6421 12.5815 37.0725 15.66 13.4429 38.002 15.7147 
14.3053 38.9314 15.6213 15.3542 39.5699 15.2199 16.6623 39.932 14.6168 
17.9338 40.3132 14.0922 18.8881 40.8633 13.7751 19.6004 41.4828 13.5928 
11.4985 35.5657 15.9401 12.2003 35.4538 16.1881 13.1356 35.3981 16.4607 
14.2598 35.3766 16.7234 15.4817 35.3706 16.8652 16.7363 35.341 16.8662 
17.9302 35.2542 16.9287 18.9265 35.1339 17.2137 19.6719 35.0325 17.589 
10.9621 36.3682 15.4401 10.9392 37.0505 15.1289 10.962 37.6779 14.6244 
11.1676 38.1852 13.8623 11.5558 38.6673 13.0044 11.9149 39.2838 12.2868 
12.1244 40.0456 11.78 12.2916 40.8171 11.4022 12.5127 41.5007 11.0576 
10.5713 35.0299 16.0222 10.1911 34.2434 16.4566 9.8947 33.3778 16.8447 
9.71082 32.4025 17.0286 9.63272 31.3173 17.1086 9.70556 30.2495 17.259 
10.0406 29.437 17.357 10.664 29.0145 17.1246 11.4467 28.8915 16.5169 
10.2591 35.5332 15.6169 9.52711 35.2436 15.4598 8.84178 34.8449 15.2303 
8.2688 34.4361 14.9147 7.80517 34.1869 14.3973 7.40091 34.1262 13.5896 
7.09435 34.1046 12.6535 7.00707 33.9856 11.8414 7.17282 33.7689 11.2065 
20.41 41.729 14.0134 20.4989 41.3591 14.6179 20.5279 40.8054 15.072 
20.4839 39.9734 15.4134 20.3848 39.0078 15.9811 20.2912 38.1613 16.8335 
20.2533 37.4497 17.5136 20.2591 36.6956 17.7353 20.2633 35.837 17.7328 
19.6483 42.0464 13.0512 18.9184 42.0864 12.6671 18.0829 42.1693 12.3278 
17.1233 42.3407 12.1559 16.0694 42.7063 12.219 15.0767 43.1693 12.298 
14.3123 43.3608 12.1007 13.758 43.0861 11.6345 13.2646 42.5616 11.1174 
21.1408 42.3515 13.6153 22.0957 42.5494 13.7407 22.9916 42.623 13.8358 
23.7896 42.6798 13.9776 24.7026 42.777 14.2565 25.8541 42.7895 14.6076 
26.9209 42.6228 14.7426 27.4568 42.3716 14.4308 27.3876 42.13 13.7804 
20.6615 42.588 13.1001 21.0985 43.1876 12.8462 21.4649 43.8114 12.5953 
21.6417 44.3666 12.1307 21.6508 44.7941 11.4653 21.6069 45.1767 10.877 
21.5638 45.6103 10.3866 21.5059 46.0208 9.69137 21.4312 46.2592 8.7081 
15.0225 31.0694 8.00985 16.0427 31.8005 8.08053 16.9885 32.6661 8.00884 
17.6622 33.7235 8.02683 18.2187 34.8587 8.11871 18.9584 35.8321 8.02429 
19.8283 36.6075 7.74011 20.5436 37.3727 7.55911 21.0268 38.2138 7.61619 
15.0037 30.2546 8.08624 15.9098 30.1988 8.56844 16.7888 30.2388 9.02934 
17.6967 30.2703 9.44676 18.7477 30.1887 9.85139 19.8799 30.0228 10.2244 
20.8327 29.9543 10.59 21.4152 30.1637 11.0327 21.6828 30.6628 11.5483 
13.8823 31.1261 7.79654 13.7399 32.0259 8.03154 13.7517 33.0033 8.06323 
13.8714 33.9295 7.66002 14.0162 34.8525 7.13495 14.1325 35.9114 6.93683 
14.2069 37.0531 6.96173 14.2488 38.077 6.82311 14.2859 38.9085 6.46471 
13.8994 29.7352 7.58298 13.6733 29.2147 7.78037 13.4012 28.9802 8.48184 
13.0762 28.9932 9.58136 12.7641 29.0571 10.7934 12.5134 29.0454 11.9362 
12.3366 29.0066 12.9761 12.244 28.989 13.933 12.2202 28.956 14.8511 
13.1982 30.1985 7.29765 12.3131 29.9871 7.02323 11.4753 29.8906 7.16865 
10.6125 30.1106 7.7867 9.78779 30.7045 8.5872 9.16088 31.3881 9.25459 
8.72089 31.8807 9.72514 8.30406 32.2815 10.0778 7.8572 32.8275 10.375 
21.5358 38.4365 8.13076 21.5736 37.7074 8.57386 21.6009 36.8426 9.03273 
21.7014 35.9726 9.41103 21.8187 35.2183 9.75623 21.8494 34.4993 10.2083 
21.8413 33.6466 10.7585 21.8802 32.6912 11.2649 21.9099 31.8549 11.6721 
20.9768 39.0989 7.34473 20.4773 39.2218 6.89049 19.9526 39.4283 6.49426 
19.3662 39.6526 6.20713 18.6102 39.7476 5.95472 17.6719 39.6553 5.68059 
16.6983 39.4968 5.5186 15.8231 39.4317 5.60459 15.0542 39.498 5.85858 
21.9674 39.4182 8.09261 22.6325 39.7418 8.36177 23.3279 40.0049 8.69976 
23.9635 40.2859 9.25631 24.5827 40.6221 9.95186 25.2785 40.9839 10.5542 
25.9844 41.3512 11.0439 26.5315 41.683 11.6016 26.8476 41.8751 12.3099 
21.5875 39.8141 7.644 21.8742 40.5787 7.36702 22.279 41.3448 6.93115 
22.6063 42.2174 6.60216 22.672 43.2082 6.63915 22.5773 44.1629 6.85657 
22.4923 44.9548 6.91891 22.3309 45.5815 6.91289 21.9369 46.0385 7.15461 
20.542 34.4236 17.9014 20.8861 33.8357 17.8346 21.2641 33.2575 17.4923 
21.6006 32.7925 16.8686 21.7863 32.5091 16.039 21.795 32.3344 15.0858 
21.7361 32.1275 14.1232 21.7308 31.837 13.2829 21.7856 31.5283 12.6073 
20.7994 35.5089 17.662 21.4702 36.2046 17.2335 22.342 37.0797 16.7438 
23.4078 37.9822 16.547 24.4842 38.6373 16.5883 25.316 39.0253 16.3628 
25.8263 39.4985 15.6277 26.1817 40.2866 14.6698 26.5622 41.1844 13.809 
19.8252 34.1706 17.8949 19.2663 33.4206 17.9021 18.5317 32.7821 17.618 
17.6274 32.1688 17.0476 16.6006 31.3974 16.6149 15.5502 30.4464 16.6458 
14.5852 29.5633 16.8537 13.7357 29.0138 16.7726 12.9567 28.8376 16.3305 
22.0937 32.294 12.2971 22.4291 33.4439 12.5498 22.853 34.6498 12.7157 
23.4736 35.7434 12.7589 24.3118 36.666 12.7536 25.0711 37.598 12.783 
25.4861 38.7298 12.8306 25.7665 39.9754 12.8655 26.2649 41.0731 12.936 
21.5345 30.5735 12.2134 21.1303 29.9913 12.5476 20.5369 29.5624 13.0151 
19.5952 29.3587 13.495 18.2836 29.3961 13.8724 16.8739 29.4506 14.1466 
15.6362 29.3002 14.4283 14.5331 29.0396 14.8139 13.3986 28.8867 15.2845 
12.5457 42.2396 10.1473 12.3774 42.3892 9.45371 12.3193 42.4705 8.65622 
12.3808 42.3728 7.86692 12.5185 42.0765 7.18287 12.737 41.6789 6.65243 
13.0755 41.2419 6.29835 13.5062 40.7384 6.11732 13.9483 40.175 6.07181 
13.2578 43.0054 10.5291 13.6885 43.9731 10.323 14.1668 44.6864 10.0066 
15.0008 44.9737 9.57449 16.2882 45.0557 9.12865 17.6363 45.2803 8.77674 
18.6491 45.701 8.49714 19.4448 46.1054 8.20464 20.3386 46.3087 7.90805 
11.9981 41.4911 10.6082 11.0771 41.1339 10.6171 10.084 40.7848 10.6173 
9.25343 40.0432 10.5163 8.7769 38.9055 10.3664 8.51616 37.7696 10.2996 
8.16809 36.7896 10.3455 7.72976 35.7644 10.4385 7.45925 34.6221 10.5392 
14.906 40.3272 5.73161 15.5473 41.2944 5.49314 16.1982 42.5049 5.32679 
16.8662 43.6499 5.15163 17.6693 44.4469 5.09391 18.6036 44.9877 5.31581 
19.4613 45.4956 5.74693 20.1259 45.9504 6.27166 20.7137 46.2145 6.91757 
13.5783 39.2991 6.47799 12.7136 38.8148 6.7563 11.6855 38.1051 6.91019 
10.4895 37.2813 7.01312 9.3519 36.5283 7.17322 8.58243 35.872 7.5135 
8.20633 35.2206 8.15169 7.98258 34.5686 9.03599 7.73937 33.9939 9.92973 
27.664 42.3909 12.7993 28.0174 42.5906 12.4148 27.5836 42.7584 11.8632 
26.5261 43.3576 11.1968 25.629 44.3841 10.5913 25.2318 45.3046 10.0907 
24.7882 45.7856 9.54548 23.8281 45.9931 8.8844 22.5509 46.1537 8.22521 
10.9904 29.0156 15.5828 9.70934 29.0673 15.3486 8.48504 28.9398 14.9855 
7.47348 28.8487 14.3953 6.93615 29.1711 13.5848 6.98376 29.9671 12.7426 
7.2993 30.9357 12.0552 7.47867 31.8411 11.5362 7.47744 32.6863 11.0921 
12.3504 36.2016 15.8597 13.1899 36.097 16.0741 13.3119 37.035 15.9047 
14.2675 36.005 16.2706 14.2937 36.9208 16.0407 14.2954 38.0277 15.9501 
15.4644 35.9832 16.4288 15.4517 36.7686 16.0813 15.3992 37.8521 15.9484 
15.3391 38.8937 15.7406 16.6628 36.0635 16.5584 16.6051 36.7605 16.1937 
16.5539 37.6572 15.9027 16.536 38.6666 15.6469 16.5762 39.4395 15.2229 
17.818 36.1312 16.7657 17.6912 36.8965 16.5449 17.6005 37.6617 16.1688 
17.6213 38.5351 15.7102 17.748 39.3247 15.2299 17.8798 39.8703 14.6813 
18.8462 36.0755 17.1308 18.71 36.9463 17.0799 18.579 37.7198 16.7621 
18.5625 38.5338 16.1401 18.6954 39.3625 15.4921 18.8668 40.0015 14.929 
18.9416 40.4452 14.3556 19.6532 35.9432 17.527 19.5797 36.832 17.5458 
19.4905 37.6169 17.303 19.4655 38.4091 16.6285 19.5484 39.3077 15.8532 
19.6797 40.1441 15.2795 19.7538 40.7263 14.7747 19.72 41.1208 14.1839 
11.1649 34.878 16.3246 10.9228 34.1156 16.7622 11.9801 34.8087 16.6062 
10.7502 33.1794 17.0094 11.8558 34.0345 16.9363 13.0143 34.7828 16.877 
10.585 32.0421 17.0589 11.7516 32.9789 16.9687 12.9697 33.9462 17.0461 
14.2253 34.7323 17.0912 10.5073 30.8282 17.2089 11.6634 31.7043 16.9452 
12.987 32.7916 16.906 14.3006 33.8035 17.126 15.5752 34.6122 17.132 
10.7427 29.7805 17.5061 11.7991 30.4755 17.2067 13.1483 31.5356 16.8585 
14.5309 32.6771 16.9302 15.8102 33.6311 17.1468 16.9657 34.4447 17.0746 
11.3645 29.1148 17.5631 12.3088 29.569 17.5203 13.5454 30.49 17.0814 
14.8982 31.6515 16.839 16.157 32.6805 17.0386 17.262 33.5016 17.2315 
18.1985 34.2966 17.1967 12.181 28.8531 17.1183 13.0383 29.1109 17.3976 
14.0831 29.8336 17.1875 15.2748 30.9025 16.8359 16.4602 31.9452 16.8891 
17.5204 32.7466 17.2767 18.4193 33.4414 17.5258 19.1378 34.2083 17.5551 
14.1616 29.0187 15.7891 15.2544 29.3989 15.1967 14.9074 29.4382 16.1158 
16.3671 29.747 14.7277 15.957 29.9646 15.4335 15.7048 30.1439 16.1577 
17.6945 29.8338 14.4407 17.1401 30.254 14.971 16.7729 30.6001 15.5565 
16.6429 30.959 16.1533 19.071 29.8184 14.2004 18.5241 30.2999 14.7514 
18.0489 30.7325 15.2533 17.7682 31.1768 15.8695 17.6838 31.6747 16.5512 
20.1254 30.0184 13.8372 19.7335 30.4756 14.546 19.3821 30.8394 15.1369 
19.0577 31.2074 15.8006 18.8184 31.7049 16.6277 18.6751 32.2642 17.3355 
20.8123 30.4379 13.3534 20.545 30.9001 14.1737 20.3993 31.2123 14.9414 
20.2546 31.4246 15.7284 20.0104 31.76 16.6469 19.7318 32.2863 17.5159 
19.4916 32.8668 17.9629 21.3383 30.9366 12.9025 21.1591 31.3682 13.6963 
21.1148 31.6945 14.5687 21.1387 31.8666 15.4859 21.0392 32.0526 16.4431 
20.7586 32.4373 17.3518 20.4126 32.9946 17.9595 20.101 33.5912 18.1 
21.1766 34.9702 17.4827 21.5769 34.3803 17.1888 21.9112 35.7325 16.8069 
21.9407 33.8274 16.7949 22.2666 35.2101 16.3683 22.7728 36.7117 16.2293 
22.2046 33.4008 16.2642 22.4858 34.7352 16.0041 22.9486 36.3139 15.719 
23.7158 37.6914 15.9931 22.3415 33.0964 15.4925 22.6468 34.3191 15.5655 
22.9703 35.9263 15.3152 23.6739 37.4005 15.3105 24.5989 38.3781 15.8246 
22.3593 32.854 14.5133 22.7936 33.9381 14.832 23.0757 35.4678 14.8431 
23.5966 37.0286 14.7119 24.4427 38.1351 14.8717 25.2566 38.834 15.3126 
[...]
POINT_DATA 1002
FIELD FieldData 4
_paraPhi 1 1002 double
6.2831853072 3.1415926536 6.2831853072 3.1415926536 4.7123889804 4.7123889804 1.5707963268 1.5707963268 3.6951670125 
5.7296109483 2.5880182947 0.5535743589 6.2831853072 6.2831853072 6.2831853072 6.2831853072 3.1415926536 3.1415926536 
3.1415926536 3.1415926536 3.1415926536 6.1053039672 5.898798347 5.6768734901 5.4599499503 5.2659633393 5.1032165617 
4.9713148346 4.8656852733 4.7809517865 0.17788134 0.38438696014 0.60631181711 0.82323535693 1.0172219679 1.1799687454 
1.3118704726 1.4175000338 1.5022335207 6.1892828907 6.1070320098 6.035312792 5.9728339911 5.9183214791 5.8706119594 
5.8286879411 5.7916808611 5.7588591896 0.093902416448 0.17615329733 0.2478725152 0.31035131605 0.36486382811 0.41257334776 
0.45449736604 0.4915044461 0.52432611754 3.3194739936 3.5259796137 3.7479044707 3.9648280105 4.1588146215 4.321561399 
4.4534631262 4.5590926874 4.6438261743 2.9637113136 2.7572056934 2.5352808365 2.3183572967 2.1243706857 1.9616239082 
1.829722181 1.7240926197 1.6393591329 3.23549507 3.3177459509 3.3894651688 3.4519439696 3.5064564817 3.5541660013 
3.5960900196 3.6330970997 3.6659187711 3.0476902371 2.9654393563 2.8937201384 2.8312413375 2.7767288255 2.7290193058 
2.6870952876 2.6500882075 2.617266536 6.2831853072 6.2831853072 6.2831853072 6.2831853072 3.1415926536 3.1415926536 
3.1415926536 3.1415926536 3.1415926536 6.1053039672 5.898798347 5.6768734901 5.4599499503 5.2659633393 5.1032165617 
4.9713148346 4.8656852733 4.7809517865 0.17788134 0.38438696014 0.60631181711 0.82323535693 1.0172219679 1.1799687454 
1.3118704726 1.4175000338 1.5022335207 6.1892828907 6.1070320098 6.035312792 5.9728339911 5.9183214791 5.8706119594 
5.8286879411 5.7916808611 5.7588591896 0.093902416448 0.17615329733 0.2478725152 0.31035131605 0.36486382811 0.41257334776 
0.45449736604 0.4915044461 0.52432611754 3.3194739936 3.5259796137 3.7479044707 3.9648280105 4.1588146215 4.321561399 
4.4534631262 4.5590926874 4.6438261743 2.9637113136 2.7572056934 2.5352808365 2.3183572967 2.1243706857 1.9616239082 
1.829722181 1.7240926197 1.6393591329 3.23549507 3.3177459509 3.3894651688 3.4519439696 3.5064564817 3.5541660013 
3.5960900196 3.6330970997 3.6659187711 3.0476902371 2.9654393563 2.8937201384 2.8312413375 2.7767288255 2.7290193058 
2.6870952876 2.6500882075 2.617266536 4.7123889804 4.7123889804 4.7123889804 4.7123889804 4.7123889804 4.7123889804 
4.7123889804 4.7123889804 4.7123889804 4.6087898617 4.4991390697 4.3857031936 4.2712800401 4.1588146215 4.0509635631 
3.94975894 3.8564636551 3.7716124825 4.8159880991 4.9256388911 5.0390747672 5.1534979207 5.2659633393 5.3738143976 
5.4750190208 5.5683143056 5.6531654782 4.6087898617 4.4991390697 4.3857031936 4.2712800401 4.1588146215 4.0509635631 
3.94975894 3.8564636551 3.7716124825 4.8159880991 4.9256388911 5.0390747672 5.1534979207 5.2659633393 5.3738143976 
5.4750190208 5.5683143056 5.6531654782 1.5707963268 1.5707963268 1.5707963268 1.5707963268 1.5707963268 1.5707963268 
1.5707963268 1.5707963268 1.5707963268 1.6743954455 1.7840462375 1.8974821136 2.0119052671 2.1243706857 2.232221744 
2.3334263672 2.426721652 2.5115728246 1.4671972081 1.3575464161 1.24411054 1.1296873865 1.0172219679 0.90937090954 
0.80816628637 0.71487100155 0.63001982895 1.6743954455 1.7840462375 1.8974821136 2.0119052671 2.1243706857 2.232221744 
2.3334263672 2.426721652 2.5115728246 1.4671972081 1.3575464161 1.24411054 1.1296873865 1.0172219679 0.90937090954 
0.80816628637 0.71487100155 0.63001982895 3.6007720849 3.4966939854 3.3839471039 3.2645756454 3.1415926536 3.0186096618 
2.8992382033 2.7864913217 2.6824132222 5.8240058758 5.9280839753 6.0408308569 6.1602023154 6.2831853072 0.12298299178 
0.2423544503 0.35510133185 0.45917943135 6.0560271438 5.7885595667 5.9702140275 5.5125918794 5.6029703303 5.7885595667 
5.2659633393 5.2659633393 5.2659633393 5.2659633393 5.0674903122 5.0120975802 4.9155579264 4.7123889804 4.1588146215 
4.9155579264 4.8353719722 4.7123889804 4.5092200343 4.1588146215 3.6362183941 4.8004512023 4.7123889804 4.5894059886 
4.4126803806 4.1588146215 3.8218076305 3.4545639333 4.7123889804 4.6243267584 4.5092200343 4.3572876485 4.1588146215 
3.9121860814 3.6362183941 3.368750817 6.0174235957 5.9434319871 5.8263323547 5.8809213739 5.7674481418 5.6279784266 
5.8278025282 5.718968232 5.5891129425 5.4372443565 5.7823484065 5.678536687 5.5575666702 5.4192596322 5.2659633393 
5.743164462 5.6444075337 5.5314983644 5.4046708639 5.2659633393 5.1195510325 5.7091357773 5.6152775188 5.5096229709 
5.3926039573 5.2659633393 5.1329233157 4.9978930058 5.6793730533 5.5901633916 5.4910209005 5.3824597928 5.2659633393 
5.1440684722 5.0201624502 4.8979782167 5.5683143056 5.4750190208 5.4750190208 5.3738143976 5.3738143976 5.3738143976 
5.2659633393 5.2659633393 5.2659633393 5.2659633393 5.1534979207 5.1534979207 5.1534979207 5.1534979207 5.1534979207 
5.0390747672 5.0390747672 5.0390747672 5.0390747672 5.0390747672 5.0390747672 4.9256388911 4.9256388911 4.9256388911 
4.9256388911 4.9256388911 4.9256388911 4.9256388911 4.8159880991 4.8159880991 4.8159880991 4.8159880991 4.8159880991 
4.8159880991 4.8159880991 4.8159880991 4.6087898617 4.6087898617 4.4991390697 4.6087898617 4.4991390697 4.3857031936 
4.6087898617 4.4991390697 4.3857031936 4.2712800401 4.6087898617 4.4991390697 4.3857031936 4.2712800401 4.1588146215 
4.6087898617 4.4991390697 4.3857031936 4.2712800401 4.1588146215 4.0509635631 4.6087898617 4.4991390697 4.3857031936 
4.2712800401 4.1588146215 4.0509635631 3.94975894 4.6087898617 4.4991390697 4.3857031936 4.2712800401 4.1588146215 
4.0509635631 3.94975894 3.8564636551 4.526799744 4.4046155105 4.426884955 4.2807094886 4.2918546451 4.3052269283 
4.1588146215 4.1588146215 4.1588146215 4.1588146215 4.042318168 4.0321740035 4.0201070968 4.0055183285 3.9875336042 
3.9337570603 3.9151549899 3.8932795963 3.8672112905 3.8356650183 3.7967995342 3.8346145692 3.809500442 3.7803704271 
3.7462412737 3.7058097288 3.657329819 3.5984456061 3.7454049075 3.7156421835 3.6816134988 3.6424295543 3.5969754326 
3.5438565869 3.4813459737 3.4073543651 3.5642842451 3.4524645613 3.5233842518 3.3320300872 3.403123212 3.4773852225 
3.20576226 3.2746326772 3.348015857 3.4255060145 3.0774230472 3.1415926536 3.2112816139 3.2864685043 3.3668817272 
2.95115522 3.00855263 3.0719036933 3.1415926536 3.2178377658 3.3005964304 2.8307207459 2.8800620952 2.9351694502 
2.9967168029 3.0653475414 3.1415926536 3.225752376 2.718901062 2.7598010554 2.8058000847 2.8576792927 2.91630358 
2.9825888767 3.0574329311 3.1415926536 3.5642842451 3.5233842518 3.4524645613 3.4773852225 3.403123212 3.3320300872 
3.4255060145 3.348015857 3.2746326772 3.20576226 3.3668817272 3.2864685043 3.2112816139 3.1415926536 3.0774230472 
3.3005964304 3.2178377658 3.1415926536 3.0719036933 3.00855263 2.95115522 3.225752376 3.1415926536 3.0653475414 
2.9967168029 2.9351694502 2.8800620952 2.8307207459 3.1415926536 3.0574329311 2.9825888767 2.91630358 2.8576792927 
2.8058000847 2.7598010554 2.718901062 4.526799744 4.426884955 4.4046155105 4.3052269283 4.2918546451 4.2807094886 
4.1588146215 4.1588146215 4.1588146215 4.1588146215 3.9875336042 4.0055183285 4.0201070968 4.0321740035 4.042318168 
3.7967995342 3.8356650183 3.8672112905 3.8932795963 3.9151549899 3.9337570603 3.5984456061 3.657329819 3.7058097288 
3.7462412737 3.7803704271 3.809500442 3.8346145692 3.4073543651 3.4813459737 3.5438565869 3.5969754326 3.6424295543 
3.6816134988 3.7156421835 3.7454049075 4.7123889804 4.8004512023 4.6243267584 4.9155579264 4.7123889804 4.5092200343 
5.0674903122 4.8353719722 4.5894059886 4.3572876485 5.2659633393 5.0120975802 4.7123889804 4.4126803806 4.1588146215 
5.5125918794 5.2659633393 4.9155579264 4.5092200343 4.1588146215 3.9121860814 5.7885595667 5.6029703303 5.2659633393 
4.7123889804 4.1588146215 3.8218076305 3.6362183941 6.0560271438 5.9702140275 5.7885595667 5.2659633393 4.1588146215 
3.6362183941 3.4545639333 3.368750817 0.22715816343 0.49462574053 0.3129712797 0.77059342779 0.68021497688 0.49462574053 
1.0172219679 1.0172219679 1.0172219679 1.0172219679 1.2156949949 1.271087727 1.3676273807 1.5707963268 2.1243706857 
1.3676273807 1.447813335 1.5707963268 1.7739652728 2.1243706857 2.6469669131 1.4827341049 1.5707963268 1.6937793186 
1.8705049266 2.1243706857 2.4613776767 2.8286213739 1.5707963268 1.6588585487 1.7739652728 1.9258976586 2.1243706857 
2.3709992258 2.6469669131 2.9144344902 1.7563855631 1.8785697967 1.8563003522 2.0024758186 1.9913306621 1.9779583789 
2.1243706857 2.1243706857 2.1243706857 2.1243706857 2.2408671392 2.2510113037 2.2630782103 2.2776669786 2.295651703 
2.3494282469 2.3680303173 2.3899057108 2.4159740166 2.4475202889 2.486385773 2.448570738 2.4736848652 2.5028148801 
2.5369440334 2.5773755784 2.6258554882 2.6847397011 2.5377803997 2.5675431237 2.6015718084 2.6407557529 2.6862098746 
2.7393287203 2.8018393335 2.8758309421 1.6743954455 1.6743954455 1.7840462375 1.6743954455 1.7840462375 1.8974821136 
1.6743954455 1.7840462375 1.8974821136 2.0119052671 1.6743954455 1.7840462375 1.8974821136 2.0119052671 2.1243706857 
1.6743954455 1.7840462375 1.8974821136 2.0119052671 2.1243706857 2.232221744 1.6743954455 1.7840462375 1.8974821136 
2.0119052671 2.1243706857 2.232221744 2.3334263672 1.6743954455 1.7840462375 1.8974821136 2.0119052671 2.1243706857 
2.232221744 2.3334263672 2.426721652 1.4671972081 1.3575464161 1.4671972081 1.24411054 1.3575464161 1.4671972081 
1.1296873865 1.24411054 1.3575464161 1.4671972081 1.0172219679 1.1296873865 1.24411054 1.3575464161 1.4671972081 
0.90937090954 1.0172219679 1.1296873865 1.24411054 1.3575464161 1.4671972081 0.80816628637 0.90937090954 1.0172219679 
1.1296873865 1.24411054 1.3575464161 1.4671972081 0.71487100155 0.80816628637 0.90937090954 1.0172219679 1.1296873865 
1.24411054 1.3575464161 1.4671972081 0.60381225391 0.57404952988 0.69302191562 0.54002084522 0.66790778838 0.79216440667 
0.50083690068 0.63877777351 0.77356233629 0.90072551443 0.45538277901 0.60464862014 0.75168694275 0.89058134991 1.0172219679 
0.40226393329 0.56421707518 0.72561863695 0.87851444325 1.0172219679 1.139116835 0.33975332011 0.51573716537 0.69407236469 
0.86392567495 1.0172219679 1.1502619915 1.2630228569 0.26576171152 0.45685295248 0.6552068806 0.84594095064 1.0172219679 
1.1636342747 1.2852923014 1.3852070904 0.22715816343 0.3129712797 0.49462574053 0.49462574053 0.68021497688 0.77059342779 
1.0172219679 1.0172219679 1.0172219679 1.0172219679 2.1243706857 1.5707963268 1.3676273807 1.271087727 1.2156949949 
2.6469669131 2.1243706857 1.7739652728 1.5707963268 1.447813335 1.3676273807 2.8286213739 2.4613776767 2.1243706857 
1.8705049266 1.6937793186 1.5707963268 1.4827341049 2.9144344902 2.6469669131 2.3709992258 2.1243706857 1.9258976586 
1.7739652728 1.6588585487 1.5707963268 1.7563855631 1.8563003522 1.8785697967 1.9779583789 1.9913306621 2.0024758186 
2.1243706857 2.1243706857 2.1243706857 2.1243706857 2.295651703 2.2776669786 2.2630782103 2.2510113037 2.2408671392 
2.486385773 2.4475202889 2.4159740166 2.3899057108 2.3680303173 2.3494282469 2.6847397011 2.6258554882 2.5773755784 
2.5369440334 2.5028148801 2.4736848652 2.448570738 2.8758309421 2.8018393335 2.7393287203 2.6862098746 2.6407557529 
2.6015718084 2.5675431237 2.5377803997 5.8604937156 5.901393709 5.9723133995 5.9473927383 6.0216547488 6.0927478736 
5.9992719463 6.0767621038 6.1501452836 6.2190157008 6.0578962336 6.1383094565 6.2134963469 0 0.064169606361 
6.1241815303 6.206940195 6.2831853072 0.069688960264 0.13304002361 0.19043743361 6.1990255847 0 0.07624511221 
0.14487585072 0.20642320337 0.26153055843 0.3108719077 0 0.084159722458 0.15900377685 0.22528907359 0.28391336087 
0.3357925689 0.38179159818 0.42269159155 5.8604937156 5.9723133995 5.901393709 6.0927478736 6.0216547488 5.9473927383 
6.2190157008 6.1501452836 6.0767621038 5.9992719463 0.064169606361 0 6.2134963469 6.1383094565 6.0578962336 
0.19043743361 0.13304002361 0.069688960264 6.2831853072 6.206940195 6.1241815303 0.3108719077 0.26153055843 0.20642320337 
0.14487585072 0.07624511221 6.2831853072 6.1990255847 0.42269159155 0.38179159818 0.3357925689 0.28391336087 0.22528907359 
0.15900377685 0.084159722458 0 5.6793730533 5.7091357773 5.5901633916 5.743164462 5.6152775188 5.4910209005 
5.7823484065 5.6444075337 5.5096229709 5.3824597928 5.8278025282 5.678536687 5.5314983644 5.3926039573 5.2659633393 
5.8809213739 5.718968232 5.5575666702 5.4046708639 5.2659633393 5.1440684722 5.9434319871 5.7674481418 5.5891129425 
5.4192596322 5.2659633393 5.1329233157 5.0201624502 6.0174235957 5.8263323547 5.6279784266 5.4372443565 5.2659633393 
5.1195510325 4.9978930058 4.8979782167 1.3852070904 1.2852923014 1.2630228569 1.1636342747 1.1502619915 1.139116835 
1.0172219679 1.0172219679 1.0172219679 1.0172219679 0.84594095064 0.86392567495 0.87851444325 0.89058134991 0.90072551443 
0.6552068806 0.69407236469 0.72561863695 0.75168694275 0.77356233629 0.79216440667 0.45685295248 0.51573716537 0.56421707518 
0.60464862014 0.63877777351 0.66790778838 0.69302191562 0.26576171152 0.33975332011 0.40226393329 0.45538277901 0.50083690068 
0.54002084522 0.57404952988 0.60381225391 
_paraPhiHalf 1 1002 double
0 3.1415926536 0 3.1415926536 1.5707963268 1.5707963268 1.5707963268 1.5707963268 2.5880182947 
0.5535743589 2.5880182947 0.5535743589 0 0 0 0 3.1415926536 3.1415926536 
3.1415926536 3.1415926536 3.1415926536 0.17788134 0.38438696014 0.60631181711 0.82323535693 1.0172219679 1.1799687454 
1.3118704726 1.4175000338 1.5022335207 0.17788134 0.38438696014 0.60631181711 0.82323535693 1.0172219679 1.1799687454 
1.3118704726 1.4175000338 1.5022335207 0.093902416448 0.17615329733 0.2478725152 0.31035131605 0.36486382811 0.41257334776 
0.45449736604 0.4915044461 0.52432611754 0.093902416448 0.17615329733 0.2478725152 0.31035131605 0.36486382811 0.41257334776 
0.45449736604 0.4915044461 0.52432611754 2.9637113136 2.7572056934 2.5352808365 2.3183572967 2.1243706857 1.9616239082 
1.829722181 1.7240926197 1.6393591329 2.9637113136 2.7572056934 2.5352808365 2.3183572967 2.1243706857 1.9616239082 
1.829722181 1.7240926197 1.6393591329 3.0476902371 2.9654393563 2.8937201384 2.8312413375 2.7767288255 2.7290193058 
2.6870952876 2.6500882075 2.617266536 3.0476902371 2.9654393563 2.8937201384 2.8312413375 2.7767288255 2.7290193058 
2.6870952876 2.6500882075 2.617266536 0 0 0 0 3.1415926536 3.1415926536 
3.1415926536 3.1415926536 3.1415926536 0.17788134 0.38438696014 0.60631181711 0.82323535693 1.0172219679 1.1799687454 
1.3118704726 1.4175000338 1.5022335207 0.17788134 0.38438696014 0.60631181711 0.82323535693 1.0172219679 1.1799687454 
1.3118704726 1.4175000338 1.5022335207 0.093902416448 0.17615329733 0.2478725152 0.31035131605 0.36486382811 0.41257334776 
0.45449736604 0.4915044461 0.52432611754 0.093902416448 0.17615329733 0.2478725152 0.31035131605 0.36486382811 0.41257334776 
0.45449736604 0.4915044461 0.52432611754 2.9637113136 2.7572056934 2.5352808365 2.3183572967 2.1243706857 1.9616239082 
1.829722181 1.7240926197 1.6393591329 2.9637113136 2.7572056934 2.5352808365 2.3183572967 2.1243706857 1.9616239082 
1.829722181 1.7240926197 1.6393591329 3.0476902371 2.9654393563 2.8937201384 2.8312413375 2.7767288255 2.7290193058 
2.6870952876 2.6500882075 2.617266536 3.0476902371 2.9654393563 2.8937201384 2.8312413375 2.7767288255 2.7290193058 
2.6870952876 2.6500882075 2.617266536 1.5707963268 1.5707963268 1.5707963268 1.5707963268 1.5707963268 1.5707963268 
1.5707963268 1.5707963268 1.5707963268 1.6743954455 1.7840462375 1.8974821136 2.0119052671 2.1243706857 2.232221744 
2.3334263672 2.426721652 2.5115728246 1.4671972081 1.3575464161 1.24411054 1.1296873865 1.0172219679 0.90937090954 
0.80816628637 0.71487100155 0.63001982895 1.6743954455 1.7840462375 1.8974821136 2.0119052671 2.1243706857 2.232221744 
2.3334263672 2.426721652 2.5115728246 1.4671972081 1.3575464161 1.24411054 1.1296873865 1.0172219679 0.90937090954 
0.80816628637 0.71487100155 0.63001982895 1.5707963268 1.5707963268 1.5707963268 1.5707963268 1.5707963268 1.5707963268 
1.5707963268 1.5707963268 1.5707963268 1.6743954455 1.7840462375 1.8974821136 2.0119052671 2.1243706857 2.232221744 
2.3334263672 2.426721652 2.5115728246 1.4671972081 1.3575464161 1.24411054 1.1296873865 1.0172219679 0.90937090954 
0.80816628637 0.71487100155 0.63001982895 1.6743954455 1.7840462375 1.8974821136 2.0119052671 2.1243706857 2.232221744 
2.3334263672 2.426721652 2.5115728246 1.4671972081 1.3575464161 1.24411054 1.1296873865 1.0172219679 0.90937090954 
0.80816628637 0.71487100155 0.63001982895 2.6824132222 2.7864913217 2.8992382033 3.0186096618 3.1415926536 3.0186096618 
2.8992382033 2.7864913217 2.6824132222 0.45917943135 0.35510133185 0.2423544503 0.12298299178 0 0.12298299178 
0.2423544503 0.35510133185 0.45917943135 0.22715816343 0.49462574053 0.3129712797 0.77059342779 0.68021497688 0.49462574053 
1.0172219679 1.0172219679 1.0172219679 1.0172219679 1.2156949949 1.271087727 1.3676273807 1.5707963268 2.1243706857 
1.3676273807 1.447813335 1.5707963268 1.7739652728 2.1243706857 2.6469669131 1.4827341049 1.5707963268 1.6937793186 
1.8705049266 2.1243706857 2.4613776767 2.8286213739 1.5707963268 1.6588585487 1.7739652728 1.9258976586 2.1243706857 
2.3709992258 2.6469669131 2.9144344902 0.26576171152 0.33975332011 0.45685295248 0.40226393329 0.51573716537 0.6552068806 
0.45538277901 0.56421707518 0.69407236469 0.84594095064 0.50083690068 0.60464862014 0.72561863695 0.86392567495 1.0172219679 
0.54002084522 0.63877777351 0.75168694275 0.87851444325 1.0172219679 1.1636342747 0.57404952988 0.66790778838 0.77356233629 
0.89058134991 1.0172219679 1.1502619915 1.2852923014 0.60381225391 0.69302191562 0.79216440667 0.90072551443 1.0172219679 
1.139116835 1.2630228569 1.3852070904 0.71487100155 0.80816628637 0.80816628637 0.90937090954 0.90937090954 0.90937090954 
1.0172219679 1.0172219679 1.0172219679 1.0172219679 1.1296873865 1.1296873865 1.1296873865 1.1296873865 1.1296873865 
1.24411054 1.24411054 1.24411054 1.24411054 1.24411054 1.24411054 1.3575464161 1.3575464161 1.3575464161 
1.3575464161 1.3575464161 1.3575464161 1.3575464161 1.4671972081 1.4671972081 1.4671972081 1.4671972081 1.4671972081 
1.4671972081 1.4671972081 1.4671972081 1.6743954455 1.6743954455 1.7840462375 1.6743954455 1.7840462375 1.8974821136 
1.6743954455 1.7840462375 1.8974821136 2.0119052671 1.6743954455 1.7840462375 1.8974821136 2.0119052671 2.1243706857 
1.6743954455 1.7840462375 1.8974821136 2.0119052671 2.1243706857 2.232221744 1.6743954455 1.7840462375 1.8974821136 
2.0119052671 2.1243706857 2.232221744 2.3334263672 1.6743954455 1.7840462375 1.8974821136 2.0119052671 2.1243706857 
2.232221744 2.3334263672 2.426721652 1.7563855631 1.8785697967 1.8563003522 2.0024758186 1.9913306621 1.9779583789 
2.1243706857 2.1243706857 2.1243706857 2.1243706857 2.2408671392 2.2510113037 2.2630782103 2.2776669786 2.295651703 
2.3494282469 2.3680303173 2.3899057108 2.4159740166 2.4475202889 2.486385773 2.448570738 2.4736848652 2.5028148801 
2.5369440334 2.5773755784 2.6258554882 2.6847397011 2.5377803997 2.5675431237 2.6015718084 2.6407557529 2.6862098746 
2.7393287203 2.8018393335 2.8758309421 2.718901062 2.8307207459 2.7598010554 2.95115522 2.8800620952 2.8058000847 
3.0774230472 3.00855263 2.9351694502 2.8576792927 3.0774230472 3.1415926536 3.0719036933 2.9967168029 2.91630358 
2.95115522 3.00855263 3.0719036933 3.1415926536 3.0653475414 2.9825888767 2.8307207459 2.8800620952 2.9351694502 
2.9967168029 3.0653475414 3.1415926536 3.0574329311 2.718901062 2.7598010554 2.8058000847 2.8576792927 2.91630358 
2.9825888767 3.0574329311 3.1415926536 2.718901062 2.7598010554 2.8307207459 2.8058000847 2.8800620952 2.95115522 
2.8576792927 2.9351694502 3.00855263 3.0774230472 2.91630358 2.9967168029 3.0719036933 3.1415926536 3.0774230472 
2.9825888767 3.0653475414 3.1415926536 3.0719036933 3.00855263 2.95115522 3.0574329311 3.1415926536 3.0653475414 