# vtk DataFile Version 5.1
vtk output
ASCII
DATASET POLYDATA
POINTS 100 float
27.7065 39.4623 11.8793 27.7056 39.4614 11.8864 27.701 39.4547 11.9034 
27.6916 39.4421 11.9301 27.6754 39.4235 11.9659 27.6498 39.3986 12.0103 
27.6121 39.3672 12.0625 27.5595 39.329 12.1212 27.4893 39.2839 12.1849 
27.3992 39.2316 12.2519 27.2878 39.1721 12.3201 27.1542 39.1055 12.3873 
26.9983 39.0318 12.4513 26.8207 38.9514 12.5098 26.6228 38.8645 12.5609 
26.4066 38.7717 12.603 26.1742 38.6733 12.6349 25.9283 38.57 12.6563 
25.6715 38.4622 12.6672 25.4062 38.3504 12.6685 25.1349 38.2349 12.6614 
24.8595 38.1158 12.648 24.5818 37.9931 12.6304 24.3035 37.8666 12.611 
24.0256 37.7361 12.5923 23.7494 37.601 12.5766 23.4755 37.4608 12.566 
23.2049 37.3151 12.5621 22.938 37.1635 12.566 22.6755 37.0057 12.5786 
22.4176 36.842 12.6001 22.1647 36.6728 12.6304 21.9167 36.4987 12.6693 
21.6735 36.3211 12.7162 21.4345 36.1412 12.7706 21.1992 35.9607 12.8317 
20.9663 35.7813 12.8992 20.7348 35.6048 12.9725 20.5034 35.4328 13.0511 
20.2706 35.2664 13.1348 20.035 35.1065 13.223 19.7955 34.9537 13.3153 
19.5512 34.8076 13.4108 19.3012 34.6676 13.5088 19.0452 34.5328 13.6081 
18.7832 34.4016 13.7073 18.5153 34.2724 13.805 18.2419 34.1434 13.8998 
17.9637 34.0131 13.9902 17.6812 33.8799 14.0751 17.3949 33.743 14.1535 
17.1053 33.6017 14.2251 16.8126 33.456 14.2901 16.5169 33.3063 14.3489 
16.2181 33.1533 14.4029 15.9159 32.9983 14.4538 15.61 32.8426 14.5034 
15.3001 32.6876 14.554 14.986 32.5345 14.6078 14.6676 32.3844 14.6667 
14.3453 32.2379 14.7322 14.0194 32.0954 14.8055 13.6906 31.9565 14.887 
13.36 31.8206 14.9764 13.0285 31.6869 15.0729 12.6974 31.5542 15.1749 
12.3677 31.421 15.2804 12.0405 31.2861 15.3873 11.7166 31.1484 15.4931 
11.3966 31.0071 15.5954 11.0807 30.8616 15.6923 10.7688 30.7119 15.7822 
10.4608 30.5585 15.8638 10.1562 30.402 15.9368 9.85448 30.2437 16.001 
9.55516 30.0849 16.0572 9.25792 29.9274 16.1064 8.96264 29.7725 16.1499 
8.6695 29.622 16.1892 8.37907 29.4771 16.2258 8.09223 29.3389 16.2612 
7.81024 29.2083 16.2964 7.53463 29.0858 16.3324 7.26713 28.9715 16.3694 
7.0096 28.8655 16.4076 6.7639 28.7673 16.4466 6.53179 28.6766 16.4858 
6.31485 28.5929 16.5245 6.11439 28.5157 16.5617 5.93141 28.4446 16.5967 
5.76658 28.3793 16.6285 5.62024 28.3196 16.6567 5.49243 28.2657 16.6809 
5.38293 28.2176 16.7008 5.29137 28.1756 16.7166 5.21723 28.1402 16.7284 
5.16 28.1117 16.7366 5.11919 28.0906 16.7414 5.09443 28.0771 16.7434 
5.08551 28.0716 16.7426 
LINES 2 100
OFFSETS vtktypeint64
0 100 
CONNECTIVITY vtktypeint64
0 1 2 3 4 5 6 7 8 
9 10 11 12 13 14 15 16 17 
18 19 20 21 22 23 24 25 26 
27 28 29 30 31 32 33 34 35 
36 37 38 39 40 41 42 43 44 
45 46 47 48 49 50 51 52 53 
54 55 56 57 58 59 60 61 62 
63 64 65 66 67 68 69 70 71 
72 73 74 75 76 77 78 79 80 
81 82 83 84 85 86 87 88 89 
90 91 92 93 94 95 96 97 98 
99 
POINT_DATA 100
FIELD FieldData 3
_theta 1 100 double
0 0.031733259127 0.063466518254 0.095199777382 0.12693303651 0.15866629564 0.19039955476 0.22213281389 0.25386607302 
0.28559933214 0.31733259127 0.3490658504 0.38079910953 0.41253236865 0.44426562778 0.47599888691 0.50773214603 0.53946540516 
0.57119866429 0.60293192342 0.63466518254 0.66639844167 0.6981317008 0.72986495992 0.76159821905 0.79333147818 0.82506473731 
0.85679799643 0.88853125556 0.92026451469 0.95199777382 0.98373103294 1.0154642921 1.0471975512 1.0789308103 1.1106640695 
1.1423973286 1.1741305877 1.2058638468 1.237597106 1.2693303651 1.3010636242 1.3327968833 1.3645301425 1.3962634016 
1.4279966607 1.4597299198 1.491463179 1.5231964381 1.5549296972 1.5866629564 1.6183962155 1.6501294746 1.6818627337 
1.7135959929 1.745329252 1.7770625111 1.8087957702 1.8405290294 1.8722622885 1.9039955476 1.9357288068 1.9674620659 
1.999195325 2.0309285841 2.0626618433 2.0943951024 2.1261283615 2.1578616206 2.1895948798 2.2213281389 2.253061398 
2.2847946572 2.3165279163 2.3482611754 2.3799944345 2.4117276937 2.4434609528 2.4751942119 2.506927471 2.5386607302 
2.5703939893 2.6021272484 2.6338605076 2.6655937667 2.6973270258 2.7290602849 2.7607935441 2.7925268032 2.8242600623 
2.8559933214 2.8877265806 2.9194598397 2.9511930988 2.982926358 3.0146596171 3.0463928762 3.0781261353 3.1098593945 
3.1415926536 
_radius 1 100 double
1.096171944e-13 0.29821240611 0.59403005127 0.88516019827 1.1694239668 1.4448324203 1.7096741369 1.9626036588 2.2027133009 
2.4295689761 2.6431962219 2.844014686 3.0327339198 3.2102348145 3.37746453 3.535366404 3.684852205 3.8268080575 
3.9621145378 4.091660373 4.2163371267 4.3370141074 4.4545026547 4.569523363 4.6826878747 4.7944999424 4.9053716427 
5.015643992 5.1255998061 5.2354606999 5.3453673664 5.4553493663 5.5652945698 5.6749275261 5.783801285 5.8913016127 
5.9966594503 6.0989681283 6.197204891 6.2902589567 6.3769686619 6.4561680885 6.5267403705 6.5876722937 6.6381038241 
6.6773669376 6.7050101489 6.7208079086 6.7247568376 6.717062785 6.6981232514 6.6685087747 6.6289451498 6.580296747 
6.5235500813 6.459795802 6.3902060074 6.316002694 6.2384136678 6.1586157569 6.0776711994 5.9964685473 5.9156801007 
5.8357417691 5.756851083 5.6789712623 5.6018293502 5.5249046542 5.4474146717 5.3683124487 5.2863086696 5.1999256707 
5.107583825 5.0077168525 4.8989112083 4.7800625281 4.6505364512 4.5103125705 4.3600824247 4.2012696685 4.0359453736 
3.8666240398 3.6959454636 3.5262735087 3.3592732024 3.1955535588 3.0344659775 2.8741113421 2.7115459284 2.5431260305 
2.3649198539 2.1731325862 1.9645110639 1.7367039749 1.4885534812 1.2202920493 0.93362016785 0.63164865767 0.31870257993 
7.6772829236e-14 
_area 1 100 double
0 0.27671867231 1.0998580072 2.4474799275 4.2808261004 6.5432642891 9.1619961381 12.053472508 15.131937937 
18.31911565 21.552372196 24.789126163 28.006660232 31.198205513 34.367361168 37.523120782 40.677019179 43.842369019 
47.033813187 50.265000311 53.544049576 56.868972686 60.225802947 63.590595035 66.934570887 70.230812954 73.460874161 
76.619978886 79.720006147 82.78988132 85.873049464 89.02180988 92.288939024 95.718015151 99.33468831 103.14145499 
107.12151324 111.33293521 115.60344938 119.73929858 123.62335836 127.15043289 130.26778303 133.01191538 135.25297974 
136.90710761 137.94066683 138.34900233 138.15162355 137.38813037 136.11492579 134.40250441 132.33161057 129.98691475 
127.44870657 124.78470009 122.04449139 119.25840396 116.44063324 113.5950301 110.7218501 107.82459116 104.9158324 
102.0197369 99.168843296 96.39540618 93.720705157 91.146731141 88.653755455 86.204650982 83.752792765 81.248422566 
78.640967535 75.879323959 72.914042379 69.703430477 66.222410316 62.471249111 58.481433932 54.316920778 50.069854541 
45.850576568 41.772623505 37.934319051 34.399468007 31.181701231 28.240135311 25.492811167 22.843957564 20.211570578 
17.545420569 14.834756061 12.108737014 9.4319246465 6.8960898053 4.6093579048 2.6838463428 1.2230744494 0.31044462881 
1.7563442047e-13 
