# vtk DataFile Version 5.1
vtk output
ASCII
DATASET POLYDATA
POINTS 1002 float
-5.31463 -0.514591 -3.00364 5.62233 0.405871 -4.06629 -5.70132 -0.0250368 3.85858 
6.06131 -0.0479388 4.52226 0.113705 6.77596 -3.28393 -0.328304 6.18905 2.47535 
-0.606194 -6.46375 -3.60032 0.04517 -7.00163 3.5342 9.87495 4.70852 -0.405424 
-10.3624 5.77871 0.293852 10.4014 -4.63815 -0.398743 -10.1565 -5.07357 -0.983365 
-4.49486 -0.390904 -3.39933 -3.55571 -0.303236 -3.61138 -2.43749 -0.193711 -3.57306 
-1.21199 -0.0293807 -3.49334 -0.0319466 0.0791989 -3.64895 1.08537 0.0479062 -4.00587 
2.2417 0.0146705 -4.27335 3.44266 0.125317 -4.29933 4.5914 0.306612 -4.182 
-4.87578 0.285377 -2.99879 -4.40712 1.12251 -2.82016 -3.88484 1.91854 -2.55796 
-3.33272 2.66421 -2.45888 -2.82744 3.4257 -2.71513 -2.36034 4.23723 -3.22814 
-1.81614 5.04858 -3.67294 -1.15621 5.77752 -3.80475 -0.477908 6.35981 -3.62541 
-5.23922 -1.18072 -3.13411 -5.06624 -1.83127 -3.01281 -4.67662 -2.50016 -2.62399 
-4.04723 -3.21079 -2.42802 -3.3372 -3.9004 -3.01111 -2.70598 -4.52384 -4.16776 
-2.13481 -5.12083 -4.95809 -1.56731 -5.68275 -4.87355 -1.0442 -6.13356 -4.24936 
-5.87652 -0.156306 -2.63175 -6.52496 0.276156 -2.43247 -7.21468 0.814196 -2.47308 
-7.87277 1.47698 -2.48882 -8.49208 2.20602 -2.22563 -9.08556 2.91335 -1.81754 
-9.59313 3.61206 -1.4666 -9.95923 4.36778 -1.07052 -10.206 5.13733 -0.466734 
-6.13413 -1.10789 -2.6702 -7.06092 -1.70883 -2.47018 -7.96378 -2.21111 -2.69126 
-8.76402 -2.661 -3.26467 -9.60971 -3.26674 -3.66748 -10.5656 -4.05917 -3.49148 
-11.2612 -4.7481 -2.871 -11.3067 -5.0939 -2.15763 -10.8066 -5.14849 -1.5238 
5.35319 0.990917 -4.23277 5.01638 1.63826 -4.34294 4.54869 2.32057 -4.35804 
3.93737 2.98629 -4.19784 3.26492 3.62247 -3.86473 2.61594 4.27802 -3.54158 
1.98477 4.97556 -3.40359 1.3395 5.6578 -3.4078 0.701168 6.26103 -3.39618 
5.23039 -0.238142 -3.86858 4.7509 -1.00398 -3.58744 4.14746 -1.80784 -3.27552 
3.37658 -2.56712 -2.99828 2.52129 -3.31549 -2.93366 1.75802 -4.1413 -3.25287 
1.13297 -4.99876 -3.79071 0.546296 -5.71855 -4.1232 -0.0511831 -6.19621 -4.02168 
6.43058 0.722326 -4.05341 7.20134 0.968717 -3.88201 7.95788 1.31593 -3.53421 
8.75978 1.86809 -3.23846 9.54278 2.47481 -3.19633 10.1189 2.97339 -3.14693 
10.3811 3.44191 -2.68091 10.3709 3.96294 -1.8538 10.1758 4.42685 -1.03113 
6.43687 0.0410247 -3.89727 7.36676 -0.42059 -3.70299 8.31302 -0.96108 -3.41127 
9.11152 -1.52593 -3.03427 9.71128 -2.1117 -2.71152 10.2108 -2.79167 -2.49373 
10.6375 -3.54862 -2.20768 10.8577 -4.19036 -1.70221 10.7635 -4.54676 -1.04703 
-4.81878 -0.168709 4.07349 -3.82733 -0.345096 4.30871 -2.66775 -0.464162 4.46189 
-1.3058 -0.44096 4.45751 0.128756 -0.344413 4.36995 1.45195 -0.311049 4.34774 
2.67297 -0.323831 4.43543 3.89532 -0.27359 4.55459 5.07145 -0.154712 4.60244 
-5.47338 0.593485 3.96669 -5.12682 1.28998 4.00409 -4.68015 2.05084 3.98514 
-4.1766 2.82008 3.92207 -3.61019 3.53714 3.76938 -2.96158 4.18825 3.50896 
-2.28465 4.78126 3.22497 -1.6374 5.30537 2.98081 -0.997259 5.76215 2.74232 
-5.3232 -0.698275 3.84583 -4.87759 -1.42914 3.87627 -4.37341 -2.25017 3.98435 
-3.7982 -3.13651 4.12932 -3.15669 -3.99534 4.17741 -2.49312 -4.75353 4.05339 
-1.83826 -5.41911 3.86823 -1.1867 -6.02471 3.75858 -0.546776 -6.56268 3.69026 
-6.44867 0.501277 3.76774 -7.19638 1.13795 3.64948 -7.86716 1.84453 3.42446 
-8.47016 2.52796 3.09372 -9.14905 3.18333 2.74302 -9.97447 3.90972 2.42816 
-10.7138 4.69991 2.09145 -11.0254 5.36479 1.62308 -10.8361 5.72884 0.992955 
-6.33435 -0.352568 3.63112 -6.96187 -0.743336 3.35963 -7.54162 -1.13129 2.97503 
-8.07302 -1.50412 2.34833 -8.60246 -1.96736 1.5342 -9.11281 -2.57538 0.812941 
-9.51087 -3.23521 0.315148 -9.77817 -3.87628 -0.103497 -9.9849 -4.50305 -0.552174 
5.85509 0.596148 4.33817 5.47505 1.31346 4.11299 4.93147 2.08932 3.89985 
4.30323 2.86312 3.72697 3.62903 3.58777 3.54678 2.87118 4.26069 3.31274 
2.03291 4.8736 3.06238 1.19057 5.39995 2.84795 0.400544 5.83247 2.66296 
5.57692 -0.788224 4.69705 4.97505 -1.67168 4.68679 4.35944 -2.59116 4.55527 
3.76928 -3.41057 4.51422 3.14842 -4.15862 4.64824 2.47996 -4.97277 4.75319 
1.8256 -5.79592 4.62501 1.21022 -6.4121 4.30765 0.613232 -6.76771 3.93167 
6.79123 0.378519 4.17964 7.40619 0.767743 3.68661 8.03336 1.25105 3.19292 
8.79491 1.89693 2.80767 9.50201 2.51999 2.44209 9.85036 2.94147 1.92441 
9.89477 3.29991 1.26657 9.90474 3.78351 0.63166 9.93749 4.31547 0.0928146 
6.66211 -0.399217 4.50051 7.25985 -0.797322 4.44974 7.9342 -1.24329 4.38108 
8.65774 -1.70826 4.13929 9.24804 -2.12848 3.45322 9.62754 -2.47538 2.3597 
9.94513 -2.83465 1.30664 10.275 -3.33466 0.593707 10.4715 -3.98251 0.0927698 
0.0833876 7.27835 -2.87095 -0.0122046 7.75508 -2.28648 -0.200717 8.16898 -1.53083 
-0.421834 8.46407 -0.672346 -0.540752 8.55253 0.116182 -0.50238 8.35084 0.715244 
-0.40034 7.87749 1.20021 -0.340102 7.27487 1.67849 -0.330743 6.69248 2.12641 
1.0014 6.79191 -3.01745 1.93436 6.82317 -2.82508 2.9954 6.95647 -2.72783 
4.18125 7.07801 -2.63274 5.30943 6.92193 -2.43141 6.29503 6.47208 -2.08106 
7.28375 6.01555 -1.60991 8.31518 5.67477 -1.11793 9.21498 5.28114 -0.712295 
-0.817942 7.02831 -3.31838 -1.80384 7.18673 -3.20396 -2.82692 7.1106 -2.77688 
-4.02158 6.70336 -1.97963 -5.49002 6.12077 -1.09483 -6.97312 5.75243 -0.566856 
-8.09417 5.79959 -0.439898 -8.87648 6.02286 -0.345651 -9.60241 6.05749 -0.0635399 
0.864632 6.45332 2.32542 2.10056 6.77267 2.17156 3.18607 7.04931 1.97965 
4.13396 7.13003 1.73654 5.19598 6.92484 1.46613 6.44541 6.51744 1.16416 
7.60951 6.08105 0.792938 8.49388 5.68017 0.372011 9.20043 5.2441 -0.0345716 
-1.48623 6.26977 2.46905 -2.66564 6.41817 2.51106 -3.83577 6.66469 2.56566 
-5.05282 6.97104 2.57535 -6.35513 7.21893 2.52965 -7.63333 7.30845 2.40338 
-8.69264 7.22969 2.09739 -9.44732 6.97329 1.56774 -9.9694 6.48691 0.917929 
-0.655786 -6.76281 -2.96932 -0.614194 -7.11139 -2.43149 -0.434116 -7.56484 -1.87842 
-0.166472 -8.04221 -1.15061 0.0799538 -8.32012 -0.308938 0.225899 -8.26625 0.4982 
0.246696 -7.99172 1.31497 0.174175 -7.67108 2.19601 0.0857837 -7.35221 2.99273 
0.174644 -6.62344 -3.30547 1.13928 -6.71242 -2.91487 2.37904 -6.64554 -2.34363 
3.87974 -6.4367 -1.61217 5.39935 -6.31959 -1.0301 6.63942 -6.47748 -0.881719 
7.60276 -6.65067 -0.977455 8.53147 -6.39119 -0.925662 9.5129 -5.62133 -0.663446 
-1.3806 -6.45125 -3.3336 -2.20613 -6.46268 -2.9151 -3.17838 -6.56324 -2.60205 
-4.3985 -6.69472 -2.54686 -5.80059 -6.76361 -2.4901 -7.14835 -6.75947 -2.11282 
-8.2525 -6.6562 -1.5694 -9.08486 -6.34313 -1.2145 -9.7008 -5.77914 -1.08594 
0.920303 -7.2985 3.54804 1.76467 -7.68361 3.48466 2.66232 -7.98245 3.29722 
3.69137 -7.92355 3.02325 4.79556 -7.45556 2.66894 5.90587 -6.83789 2.12383 
7.05686 -6.29421 1.38876 8.24975 -5.79526 0.667722 9.39063 -5.24201 0.0918791 
-0.923435 -7.04468 3.25761 -1.97516 -7.09179 2.89937 -2.98594 -6.85996 2.34483 
-4.04323 -6.25991 1.64099 -5.3732 -5.69413 1.01733 -6.83987 -5.5739 0.604001 
-7.98249 -5.72017 0.28269 -8.70606 -5.7041 -0.098921 -9.35645 -5.43065 -0.546969 
10.6999 3.83921 -0.420166 11.6786 2.85881 -0.318141 12.743 1.91565 -0.190938 
13.6709 0.973867 -0.353742 14.1831 -0.0948024 -0.928983 14.1204 -1.17407 -1.48164 
13.5266 -2.0456 -1.51472 12.5838 -2.79568 -1.10415 11.4937 -3.65808 -0.659735 
-11.0448 4.8903 0.0833341 -11.6009 3.81231 -0.299895 -11.8006 2.73092 -0.750943 
-11.6706 1.647 -0.91447 -11.5837 0.354538 -0.663126 -11.7696 -1.15638 -0.416152 
-11.9287 -2.55298 -0.55369 -11.6561 -3.59821 -0.890888 -10.9634 -4.38456 -1.06166 
-3.99729 0.393572 -3.31534 -3.43603 1.22126 -3.078 -2.96071 0.467416 -3.50336 
-2.8363 2.02543 -2.91443 -2.30715 1.29428 -3.3995 -1.77353 0.590499 -3.61333 
-2.28072 2.79312 -3.01888 -1.69183 2.10366 -3.48304 -1.12852 1.40211 -3.82678 
-0.592679 0.740906 -3.83619 -1.78327 3.57553 -3.34679 -1.15332 2.88151 -3.67357 
-0.55849 2.17587 -4.09781 -0.0207816 1.48819 -4.30391 0.515467 0.78957 -4.20986 
-1.2271 4.38674 -3.6683 -0.579814 3.67052 -3.77167 0.0317504 2.93388 -4.11607 
0.591825 2.2177 -4.51248 1.13957 1.50952 -4.65149 1.69708 0.765329 -4.51607 
-0.557549 5.15283 -3.78517 0.100141 4.44645 -3.72456 0.725466 3.69451 -3.85851 
1.3145 2.96071 -4.26177 1.9095 2.26274 -4.65111 2.48861 1.55381 -4.74304 
3.0033 0.821159 -4.57261 0.121827 5.78596 -3.663 0.778444 5.12095 -3.58834 
1.4185 4.39057 -3.57599 2.03333 3.66673 -3.8284 2.67385 2.99197 -4.27039 
3.31487 2.32794 -4.58251 3.85743 1.63515 -4.60319 4.26741 0.943263 -4.42801 
-5.43089 0.731543 -2.62525 -6.07198 1.17969 -2.42882 -4.95775 1.59658 -2.4381 
-6.77882 1.67155 -2.33463 -5.58822 2.01456 -2.17702 -4.42122 2.38992 -2.17177 
-7.52093 2.28734 -2.10433 -6.32851 2.48537 -1.92582 -5.02975 2.84306 -1.88124 
-3.84919 3.19313 -2.15586 -8.24233 3.0182 -1.77139 -7.15883 3.12286 -1.6459 
-5.7711 3.40502 -1.63465 -4.4094 3.78496 -1.95992 -3.32116 4.07385 -2.58497 
-8.82355 3.78654 -1.54393 -7.91966 3.86538 -1.4918 -6.59902 4.06431 -1.47206 
-5.06258 4.43525 -1.79698 -3.79359 4.77891 -2.48741 -2.80868 4.97129 -3.21727 
-9.19338 4.57093 -1.31664 -8.42966 4.601 -1.39588 -7.32011 4.67368 -1.36353 
-5.77794 4.98528 -1.59269 -4.29001 5.40683 -2.26442 -3.1743 5.69535 -3.07305 
-2.20166 5.79929 -3.62633 -9.42263 5.35931 -0.824218 -8.70192 5.32321 -1.04218 
-7.80306 5.21933 -1.06106 -6.44419 5.37315 -1.20686 -4.86366 5.82894 -1.80569 
-3.53882 6.28681 -2.66446 -2.50064 6.50924 -3.33448 -1.50039 6.50248 -3.62508 
-9.20309 6.66113 0.604991 -8.65652 7.07474 1.31233 -8.42148 6.49088 0.410259 
-7.81617 7.36548 1.78354 -7.74778 6.93659 1.08823 -7.45122 6.28415 0.262542 
-6.64811 7.53852 1.92338 -6.74795 7.43437 1.34223 -6.56388 6.98058 0.662187 
-6.09867 6.47714 -0.21048 -5.33861 7.49292 1.9271 -5.50897 7.79719 1.27045 
-5.4515 7.7721 0.619148 -5.09333 7.4789 -0.187826 -4.54235 7.09092 -1.133 
-4.08158 7.23971 1.95875 -4.24716 7.80407 1.23695 -4.25825 8.22201 0.519155 
-4.02911 8.33866 -0.262549 -3.58897 8.11515 -1.17342 -3.13344 7.66059 -2.07167 
-2.86351 6.95595 2.0025 -3.01077 7.56755 1.34224 -3.06315 8.17905 0.652918 
[...]
POINT_DATA 1002
FIELD FieldData 4
_paraPhi 1 1002 double
6.2831853072 3.1415926536 6.2831853072 3.1415926536 4.7123889804 4.7123889804 1.5707963268 1.5707963268 3.6951670125 
5.7296109483 2.5880182947 0.5535743589 6.2831853072 6.2831853072 6.2831853072 6.2831853072 3.1415926536 3.1415926536 
3.1415926536 3.1415926536 3.1415926536 6.1053039672 5.898798347 5.6768734901 5.4599499503 5.2659633393 5.1032165617 
4.9713148346 4.8656852733 4.7809517865 0.17788134 0.38438696014 0.60631181711 0.82323535693 1.0172219679 1.1799687454 
1.3118704726 1.4175000338 1.5022335207 6.1892828907 6.1070320098 6.035312792 5.9728339911 5.9183214791 5.8706119594 
5.8286879411 5.7916808611 5.7588591896 0.093902416448 0.17615329733 0.2478725152 0.31035131605 0.36486382811 0.41257334776 
0.45449736604 0.4915044461 0.52432611754 3.3194739936 3.5259796137 3.7479044707 3.9648280105 4.1588146215 4.321561399 
4.4534631262 4.5590926874 4.6438261743 2.9637113136 2.7572056934 2.5352808365 2.3183572967 2.1243706857 1.9616239082 
1.829722181 1.7240926197 1.6393591329 3.23549507 3.3177459509 3.3894651688 3.4519439696 3.5064564817 3.5541660013 
3.5960900196 3.6330970997 3.6659187711 3.0476902371 2.9654393563 2.8937201384 2.8312413375 2.7767288255 2.7290193058 
2.6870952876 2.6500882075 2.617266536 6.2831853072 6.2831853072 6.2831853072 6.2831853072 3.1415926536 3.1415926536 
3.1415926536 3.1415926536 3.1415926536 6.1053039672 5.898798347 5.6768734901 5.4599499503 5.2659633393 5.1032165617 
4.9713148346 4.8656852733 4.7809517865 0.17788134 0.38438696014 0.60631181711 0.82323535693 1.0172219679 1.1799687454 
1.3118704726 1.4175000338 1.5022335207 6.1892828907 6.1070320098 6.035312792 5.9728339911 5.9183214791 5.8706119594 
5.8286879411 5.7916808611 5.7588591896 0.093902416448 0.17615329733 0.2478725152 0.31035131605 0.36486382811 0.41257334776 
0.45449736604 0.4915044461 0.52432611754 3.3194739936 3.5259796137 3.7479044707 3.9648280105 4.1588146215 4.321561399 
4.4534631262 4.5590926874 4.6438261743 2.9637113136 2.7572056934 2.5352808365 2.3183572967 2.1243706857 1.9616239082 
1.829722181 1.7240926197 1.6393591329 3.23549507 3.3177459509 3.3894651688 3.4519439696 3.5064564817 3.5541660013 
3.5960900196 3.6330970997 3.6659187711 3.0476902371 2.9654393563 2.8937201384 2.8312413375 2.7767288255 2.7290193058 
2.6870952876 2.6500882075 2.617266536 4.7123889804 4.7123889804 4.7123889804 4.7123889804 4.7123889804 4.7123889804 
4.7123889804 4.7123889804 4.7123889804 4.6087898617 4.4991390697 4.3857031936 4.2712800401 4.1588146215 4.0509635631 
3.94975894 3.8564636551 3.7716124825 4.8159880991 4.9256388911 5.0390747672 5.1534979207 5.2659633393 5.3738143976 
5.4750190208 5.5683143056 5.6531654782 4.6087898617 4.4991390697 4.3857031936 4.2712800401 4.1588146215 4.0509635631 
3.94975894 3.8564636551 3.7716124825 4.8159880991 4.9256388911 5.0390747672 5.1534979207 5.2659633393 5.3738143976 
5.4750190208 5.5683143056 5.6531654782 1.5707963268 1.5707963268 1.5707963268 1.5707963268 1.5707963268 1.5707963268 
1.5707963268 1.5707963268 1.5707963268 1.6743954455 1.7840462375 1.8974821136 2.0119052671 2.1243706857 2.232221744 
2.3334263672 2.426721652 2.5115728246 1.4671972081 1.3575464161 1.24411054 1.1296873865 1.0172219679 0.90937090954 
0.80816628637 0.71487100155 0.63001982895 1.6743954455 1.7840462375 1.8974821136 2.0119052671 2.1243706857 2.232221744 
2.3334263672 2.426721652 2.5115728246 1.4671972081 1.3575464161 1.24411054 1.1296873865 1.0172219679 0.90937090954 
0.80816628637 0.71487100155 0.63001982895 3.6007720849 3.4966939854 3.3839471039 3.2645756454 3.1415926536 3.0186096618 
2.8992382033 2.7864913217 2.6824132222 5.8240058758 5.9280839753 6.0408308569 6.1602023154 6.2831853072 0.12298299178 
0.2423544503 0.35510133185 0.45917943135 6.0560271438 5.7885595667 5.9702140275 5.5125918794 5.6029703303 5.7885595667 
5.2659633393 5.2659633393 5.2659633393 5.2659633393 5.0674903122 5.0120975802 4.9155579264 4.7123889804 4.1588146215 
4.9155579264 4.8353719722 4.7123889804 4.5092200343 4.1588146215 3.6362183941 4.8004512023 4.7123889804 4.5894059886 
4.4126803806 4.1588146215 3.8218076305 3.4545639333 4.7123889804 4.6243267584 4.5092200343 4.3572876485 4.1588146215 
3.9121860814 3.6362183941 3.368750817 6.0174235957 5.9434319871 5.8263323547 5.8809213739 5.7674481418 5.6279784266 
5.8278025282 5.718968232 5.5891129425 5.4372443565 5.7823484065 5.678536687 5.5575666702 5.4192596322 5.2659633393 
5.743164462 5.6444075337 5.5314983644 5.4046708639 5.2659633393 5.1195510325 5.7091357773 5.6152775188 5.5096229709 
5.3926039573 5.2659633393 5.1329233157 4.9978930058 5.6793730533 5.5901633916 5.4910209005 5.3824597928 5.2659633393 
5.1440684722 5.0201624502 4.8979782167 5.5683143056 5.4750190208 5.4750190208 5.3738143976 5.3738143976 5.3738143976 
5.2659633393 5.2659633393 5.2659633393 5.2659633393 5.1534979207 5.1534979207 5.1534979207 5.1534979207 5.1534979207 
5.0390747672 5.0390747672 5.0390747672 5.0390747672 5.0390747672 5.0390747672 4.9256388911 4.9256388911 4.9256388911 
4.9256388911 4.9256388911 4.9256388911 4.9256388911 4.8159880991 4.8159880991 4.8159880991 4.8159880991 4.8159880991 
4.8159880991 4.8159880991 4.8159880991 4.6087898617 4.6087898617 4.4991390697 4.6087898617 4.4991390697 4.3857031936 
4.6087898617 4.4991390697 4.3857031936 4.2712800401 4.6087898617 4.4991390697 4.3857031936 4.2712800401 4.1588146215 
4.6087898617 4.4991390697 4.3857031936 4.2712800401 4.1588146215 4.0509635631 4.6087898617 4.4991390697 4.3857031936 
4.2712800401 4.1588146215 4.0509635631 3.94975894 4.6087898617 4.4991390697 4.3857031936 4.2712800401 4.1588146215 
4.0509635631 3.94975894 3.8564636551 4.526799744 4.4046155105 4.426884955 4.2807094886 4.2918546451 4.3052269283 
4.1588146215 4.1588146215 4.1588146215 4.1588146215 4.042318168 4.0321740035 4.0201070968 4.0055183285 3.9875336042 
3.9337570603 3.9151549899 3.8932795963 3.8672112905 3.8356650183 3.7967995342 3.8346145692 3.809500442 3.7803704271 
3.7462412737 3.7058097288 3.657329819 3.5984456061 3.7454049075 3.7156421835 3.6816134988 3.6424295543 3.5969754326 
3.5438565869 3.4813459737 3.4073543651 3.5642842451 3.4524645613 3.5233842518 3.3320300872 3.403123212 3.4773852225 
3.20576226 3.2746326772 3.348015857 3.4255060145 3.0774230472 3.1415926536 3.2112816139 3.2864685043 3.3668817272 
2.95115522 3.00855263 3.0719036933 3.1415926536 3.2178377658 3.3005964304 2.8307207459 2.8800620952 2.9351694502 
2.9967168029 3.0653475414 3.1415926536 3.225752376 2.718901062 2.7598010554 2.8058000847 2.8576792927 2.91630358 
2.9825888767 3.0574329311 3.1415926536 3.5642842451 3.5233842518 3.4524645613 3.4773852225 3.403123212 3.3320300872 
3.4255060145 3.348015857 3.2746326772 3.20576226 3.3668817272 3.2864685043 3.2112816139 3.1415926536 3.0774230472 
3.3005964304 3.2178377658 3.1415926536 3.0719036933 3.00855263 2.95115522 3.225752376 3.1415926536 3.0653475414 
2.9967168029 2.9351694502 2.8800620952 2.8307207459 3.1415926536 3.0574329311 2.9825888767 2.91630358 2.8576792927 
2.8058000847 2.7598010554 2.718901062 4.526799744 4.426884955 4.4046155105 4.3052269283 4.2918546451 4.2807094886 
4.1588146215 4.1588146215 4.1588146215 4.1588146215 3.9875336042 4.0055183285 4.0201070968 4.0321740035 4.042318168 
3.7967995342 3.8356650183 3.8672112905 3.8932795963 3.9151549899 3.9337570603 3.5984456061 3.657329819 3.7058097288 
3.7462412737 3.7803704271 3.809500442 3.8346145692 3.4073543651 3.4813459737 3.5438565869 3.5969754326 3.6424295543 
3.6816134988 3.7156421835 3.7454049075 4.7123889804 4.8004512023 4.6243267584 4.9155579264 4.7123889804 4.5092200343 
5.0674903122 4.8353719722 4.5894059886 4.3572876485 5.2659633393 5.0120975802 4.7123889804 4.4126803806 4.1588146215 
5.5125918794 5.2659633393 4.9155579264 4.5092200343 4.1588146215 3.9121860814 5.7885595667 5.6029703303 5.2659633393 
4.7123889804 4.1588146215 3.8218076305 3.6362183941 6.0560271438 5.9702140275 5.7885595667 5.2659633393 4.1588146215 
3.6362183941 3.4545639333 3.368750817 0.22715816343 0.49462574053 0.3129712797 0.77059342779 0.68021497688 0.49462574053 
1.0172219679 1.0172219679 1.0172219679 1.0172219679 1.2156949949 1.271087727 1.3676273807 1.5707963268 2.1243706857 
1.3676273807 1.447813335 1.5707963268 1.7739652728 2.1243706857 2.6469669131 1.4827341049 1.5707963268 1.6937793186 
1.8705049266 2.1243706857 2.4613776767 2.8286213739 1.5707963268 1.6588585487 1.7739652728 1.9258976586 2.1243706857 
2.3709992258 2.6469669131 2.9144344902 1.7563855631 1.8785697967 1.8563003522 2.0024758186 1.9913306621 1.9779583789 
2.1243706857 2.1243706857 2.1243706857 2.1243706857 2.2408671392 2.2510113037 2.2630782103 2.2776669786 2.295651703 
2.3494282469 2.3680303173 2.3899057108 2.4159740166 2.4475202889 2.486385773 2.448570738 2.4736848652 2.5028148801 
2.5369440334 2.5773755784 2.6258554882 2.6847397011 2.5377803997 2.5675431237 2.6015718084 2.6407557529 2.6862098746 
2.7393287203 2.8018393335 2.8758309421 1.6743954455 1.6743954455 1.7840462375 1.6743954455 1.7840462375 1.8974821136 
1.6743954455 1.7840462375 1.8974821136 2.0119052671 1.6743954455 1.7840462375 1.8974821136 2.0119052671 2.1243706857 
1.6743954455 1.7840462375 1.8974821136 2.0119052671 2.1243706857 2.232221744 1.6743954455 1.7840462375 1.8974821136 
2.0119052671 2.1243706857 2.232221744 2.3334263672 1.6743954455 1.7840462375 1.8974821136 2.0119052671 2.1243706857 
2.232221744 2.3334263672 2.426721652 1.4671972081 1.3575464161 1.4671972081 1.24411054 1.3575464161 1.4671972081 
1.1296873865 1.24411054 1.3575464161 1.4671972081 1.0172219679 1.1296873865 1.24411054 1.3575464161 1.4671972081 
0.90937090954 1.0172219679 1.1296873865 1.24411054 1.3575464161 1.4671972081 0.80816628637 0.90937090954 1.0172219679 
1.1296873865 1.24411054 1.3575464161 1.4671972081 0.71487100155 0.80816628637 0.90937090954 1.0172219679 1.1296873865 
1.24411054 1.3575464161 1.4671972081 0.60381225391 0.57404952988 0.69302191562 0.54002084522 0.66790778838 0.79216440667 
0.50083690068 0.63877777351 0.77356233629 0.90072551443 0.45538277901 0.60464862014 0.75168694275 0.89058134991 1.0172219679 
0.40226393329 0.56421707518 0.72561863695 0.87851444325 1.0172219679 1.139116835 0.33975332011 0.51573716537 0.69407236469 
0.86392567495 1.0172219679 1.1502619915 1.2630228569 0.26576171152 0.45685295248 0.6552068806 0.84594095064 1.0172219679 
1.1636342747 1.2852923014 1.3852070904 0.22715816343 0.3129712797 0.49462574053 0.49462574053 0.68021497688 0.77059342779 
1.0172219679 1.0172219679 1.0172219679 1.0172219679 2.1243706857 1.5707963268 1.3676273807 1.271087727 1.2156949949 
2.6469669131 2.1243706857 1.7739652728 1.5707963268 1.447813335 1.3676273807 2.8286213739 2.4613776767 2.1243706857 
1.8705049266 1.6937793186 1.5707963268 1.4827341049 2.9144344902 2.6469669131 2.3709992258 2.1243706857 1.9258976586 
1.7739652728 1.6588585487 1.5707963268 1.7563855631 1.8563003522 1.8785697967 1.9779583789 1.9913306621 2.0024758186 
2.1243706857 2.1243706857 2.1243706857 2.1243706857 2.295651703 2.2776669786 2.2630782103 2.2510113037 2.2408671392 
2.486385773 2.4475202889 2.4159740166 2.3899057108 2.3680303173 2.3494282469 2.6847397011 2.6258554882 2.5773755784 
2.5369440334 2.5028148801 2.4736848652 2.448570738 2.8758309421 2.8018393335 2.7393287203 2.6862098746 2.6407557529 
2.6015718084 2.5675431237 2.5377803997 5.8604937156 5.901393709 5.9723133995 5.9473927383 6.0216547488 6.0927478736 
5.9992719463 6.0767621038 6.1501452836 6.2190157008 6.0578962336 6.1383094565 6.2134963469 0 0.064169606361 
6.1241815303 6.206940195 6.2831853072 0.069688960264 0.13304002361 0.19043743361 6.1990255847 0 0.07624511221 
0.14487585072 0.20642320337 0.26153055843 0.3108719077 0 0.084159722458 0.15900377685 0.22528907359 0.28391336087 
0.3357925689 0.38179159818 0.42269159155 5.8604937156 5.9723133995 5.901393709 6.0927478736 6.0216547488 5.9473927383 
6.2190157008 6.1501452836 6.0767621038 5.9992719463 0.064169606361 0 6.2134963469 6.1383094565 6.0578962336 
0.19043743361 0.13304002361 0.069688960264 6.2831853072 6.206940195 6.1241815303 0.3108719077 0.26153055843 0.20642320337 
0.14487585072 0.07624511221 6.2831853072 6.1990255847 0.42269159155 0.38179159818 0.3357925689 0.28391336087 0.22528907359 
0.15900377685 0.084159722458 0 5.6793730533 5.7091357773 5.5901633916 5.743164462 5.6152775188 5.4910209005 
5.7823484065 5.6444075337 5.5096229709 5.3824597928 5.8278025282 5.678536687 5.5314983644 5.3926039573 5.2659633393 
5.8809213739 5.718968232 5.5575666702 5.4046708639 5.2659633393 5.1440684722 5.9434319871 5.7674481418 5.5891129425 
5.4192596322 5.2659633393 5.1329233157 5.0201624502 6.0174235957 5.8263323547 5.6279784266 5.4372443565 5.2659633393 
5.1195510325 4.9978930058 4.8979782167 1.3852070904 1.2852923014 1.2630228569 1.1636342747 1.1502619915 1.139116835 
1.0172219679 1.0172219679 1.0172219679 1.0172219679 0.84594095064 0.86392567495 0.87851444325 0.89058134991 0.90072551443 
0.6552068806 0.69407236469 0.72561863695 0.75168694275 0.77356233629 0.79216440667 0.45685295248 0.51573716537 0.56421707518 
0.60464862014 0.63877777351 0.66790778838 0.69302191562 0.26576171152 0.33975332011 0.40226393329 0.45538277901 0.50083690068 
0.54002084522 0.57404952988 0.60381225391 
_paraPhiHalf 1 1002 double
0 3.1415926536 0 3.1415926536 1.5707963268 1.5707963268 1.5707963268 1.5707963268 2.5880182947 
0.5535743589 2.5880182947 0.5535743589 0 0 0 0 3.1415926536 3.1415926536 
3.1415926536 3.1415926536 3.1415926536 0.17788134 0.38438696014 0.60631181711 0.82323535693 1.0172219679 1.1799687454 
1.3118704726 1.4175000338 1.5022335207 0.17788134 0.38438696014 0.60631181711 0.82323535693 1.0172219679 1.1799687454 
1.3118704726 1.4175000338 1.5022335207 0.093902416448 0.17615329733 0.2478725152 0.31035131605 0.36486382811 0.41257334776 
0.45449736604 0.4915044461 0.52432611754 0.093902416448 0.17615329733 0.2478725152 0.31035131605 0.36486382811 0.41257334776 
0.45449736604 0.4915044461 0.52432611754 2.9637113136 2.7572056934 2.5352808365 2.3183572967 2.1243706857 1.9616239082 
1.829722181 1.7240926197 1.6393591329 2.9637113136 2.7572056934 2.5352808365 2.3183572967 2.1243706857 1.9616239082 
1.829722181 1.7240926197 1.6393591329 3.0476902371 2.9654393563 2.8937201384 2.8312413375 2.7767288255 2.7290193058 
2.6870952876 2.6500882075 2.617266536 3.0476902371 2.9654393563 2.8937201384 2.8312413375 2.7767288255 2.7290193058 
2.6870952876 2.6500882075 2.617266536 0 0 0 0 3.1415926536 3.1415926536 
3.1415926536 3.1415926536 3.1415926536 0.17788134 0.38438696014 0.60631181711 0.82323535693 1.0172219679 1.1799687454 
1.3118704726 1.4175000338 1.5022335207 0.17788134 0.38438696014 0.60631181711 0.82323535693 1.0172219679 1.1799687454 
1.3118704726 1.4175000338 1.5022335207 0.093902416448 0.17615329733 0.2478725152 0.31035131605 0.36486382811 0.41257334776 
0.45449736604 0.4915044461 0.52432611754 0.093902416448 0.17615329733 0.2478725152 0.31035131605 0.36486382811 0.41257334776 
0.45449736604 0.4915044461 0.52432611754 2.9637113136 2.7572056934 2.5352808365 2.3183572967 2.1243706857 1.9616239082 
1.829722181 1.7240926197 1.6393591329 2.9637113136 2.7572056934 2.5352808365 2.3183572967 2.1243706857 1.9616239082 
1.829722181 1.7240926197 1.6393591329 3.0476902371 2.9654393563 2.8937201384 2.8312413375 2.7767288255 2.7290193058 
2.6870952876 2.6500882075 2.617266536 3.0476902371 2.9654393563 2.8937201384 2.8312413375 2.7767288255 2.7290193058 
2.6870952876 2.6500882075 2.617266536 1.5707963268 1.5707963268 1.5707963268 1.5707963268 1.5707963268 1.5707963268 
1.5707963268 1.5707963268 1.5707963268 1.6743954455 1.7840462375 1.8974821136 2.0119052671 2.1243706857 2.232221744 
2.3334263672 2.426721652 2.5115728246 1.4671972081 1.3575464161 1.24411054 1.1296873865 1.0172219679 0.90937090954 
0.80816628637 0.71487100155 0.63001982895 1.6743954455 1.7840462375 1.8974821136 2.0119052671 2.1243706857 2.232221744 
2.3334263672 2.426721652 2.5115728246 1.4671972081 1.3575464161 1.24411054 1.1296873865 1.0172219679 0.90937090954 
0.80816628637 0.71487100155 0.63001982895 1.5707963268 1.5707963268 1.5707963268 1.5707963268 1.5707963268 1.5707963268 
1.5707963268 1.5707963268 1.5707963268 1.6743954455 1.7840462375 1.8974821136 2.0119052671 2.1243706857 2.232221744 
2.3334263672 2.426721652 2.5115728246 1.4671972081 1.3575464161 1.24411054 1.1296873865 1.0172219679 0.90937090954 
0.80816628637 0.71487100155 0.63001982895 1.6743954455 1.7840462375 1.8974821136 2.0119052671 2.1243706857 2.232221744 
2.3334263672 2.426721652 2.5115728246 1.4671972081 1.3575464161 1.24411054 1.1296873865 1.0172219679 0.90937090954 
0.80816628637 0.71487100155 0.63001982895 2.6824132222 2.7864913217 2.8992382033 3.0186096618 3.1415926536 3.0186096618 
2.8992382033 2.7864913217 2.6824132222 0.45917943135 0.35510133185 0.2423544503 0.12298299178 0 0.12298299178 
0.2423544503 0.35510133185 0.45917943135 0.22715816343 0.49462574053 0.3129712797 0.77059342779 0.68021497688 0.49462574053 
1.0172219679 1.0172219679 1.0172219679 1.0172219679 1.2156949949 1.271087727 1.3676273807 1.5707963268 2.1243706857 
1.3676273807 1.447813335 1.5707963268 1.7739652728 2.1243706857 2.6469669131 1.4827341049 1.5707963268 1.6937793186 
1.8705049266 2.1243706857 2.4613776767 2.8286213739 1.5707963268 1.6588585487 1.7739652728 1.9258976586 2.1243706857 
2.3709992258 2.6469669131 2.9144344902 0.26576171152 0.33975332011 0.45685295248 0.40226393329 0.51573716537 0.6552068806 
0.45538277901 0.56421707518 0.69407236469 0.84594095064 0.50083690068 0.60464862014 0.72561863695 0.86392567495 1.0172219679 
0.54002084522 0.63877777351 0.75168694275 0.87851444325 1.0172219679 1.1636342747 0.57404952988 0.66790778838 0.77356233629 
0.89058134991 1.0172219679 1.1502619915 1.2852923014 0.60381225391 0.69302191562 0.79216440667 0.90072551443 1.0172219679 
1.139116835 1.2630228569 1.3852070904 0.71487100155 0.80816628637 0.80816628637 0.90937090954 0.90937090954 0.90937090954 
1.0172219679 1.0172219679 1.0172219679 1.0172219679 1.1296873865 1.1296873865 1.1296873865 1.1296873865 1.1296873865 
1.24411054 1.24411054 1.24411054 1.24411054 1.24411054 1.24411054 1.3575464161 1.3575464161 1.3575464161 
1.3575464161 1.3575464161 1.3575464161 1.3575464161 1.4671972081 1.4671972081 1.4671972081 1.4671972081 1.4671972081 
1.4671972081 1.4671972081 1.4671972081 1.6743954455 1.6743954455 1.7840462375 1.6743954455 1.7840462375 1.8974821136 
1.6743954455 1.7840462375 1.8974821136 2.0119052671 1.6743954455 1.7840462375 1.8974821136 2.0119052671 2.1243706857 
1.6743954455 1.7840462375 1.8974821136 2.0119052671 2.1243706857 2.232221744 1.6743954455 1.7840462375 1.8974821136 
2.0119052671 2.1243706857 2.232221744 2.3334263672 1.6743954455 1.7840462375 1.8974821136 2.0119052671 2.1243706857 
2.232221744 2.3334263672 2.426721652 1.7563855631 1.8785697967 1.8563003522 2.0024758186 1.9913306621 1.9779583789 
2.1243706857 2.1243706857 2.1243706857 2.1243706857 2.2408671392 2.2510113037 2.2630782103 2.2776669786 2.295651703 
2.3494282469 2.3680303173 2.3899057108 2.4159740166 2.4475202889 2.486385773 2.448570738 2.4736848652 2.5028148801 
2.5369440334 2.5773755784 2.6258554882 2.6847397011 2.5377803997 2.5675431237 2.6015718084 2.6407557529 2.6862098746 
2.7393287203 2.8018393335 2.8758309421 2.718901062 2.8307207459 2.7598010554 2.95115522 2.8800620952 2.8058000847 
3.0774230472 3.00855263 2.9351694502 2.8576792927 3.0774230472 3.1415926536 3.0719036933 2.9967168029 2.91630358 
2.95115522 3.00855263 3.0719036933 3.1415926536 3.0653475414 2.9825888767 2.8307207459 2.8800620952 2.9351694502 
2.9967168029 3.0653475414 3.1415926536 3.0574329311 2.718901062 2.7598010554 2.8058000847 2.8576792927 2.91630358 
2.9825888767 3.0574329311 3.1415926536 2.718901062 2.7598010554 2.8307207459 2.8058000847 2.8800620952 2.95115522 
2.8576792927 2.9351694502 3.00855263 3.0774230472 2.91630358 2.9967168029 3.0719036933 3.1415926536 3.0774230472 
2.9825888767 3.0653475414 3.1415926536 3.0719036933 3.00855263 2.95115522 3.0574329311 3.1415926536 3.0653475414 