# vtk DataFile Version 5.1
vtk output
ASCII
DATASET POLYDATA
POINTS 100 float
13.0275 27.9406 17.0384 13.0405 27.9443 17.0262 13.0794 27.9553 16.985 
13.1431 27.9741 16.9168 13.23 28.0016 16.8247 13.3378 28.0386 16.713 
13.4638 28.0861 16.5863 13.6052 28.145 16.4498 13.7593 28.216 16.3083 
13.9231 28.2996 16.1661 14.0943 28.3958 16.0269 14.2706 28.5046 15.8936 
14.4501 28.6255 15.768 14.6315 28.7579 15.651 14.8137 28.9009 15.5429 
14.9957 29.0537 15.4433 15.1769 29.2157 15.3514 15.3568 29.386 15.2664 
15.5348 29.5643 15.1873 15.7105 29.7502 15.1136 15.8833 29.9433 15.0449 
16.0525 30.1436 14.9813 16.2174 30.3509 14.9229 16.3771 30.5647 14.8701 
16.5312 30.7848 14.8232 16.6788 31.0104 14.7824 16.8196 31.2407 14.7474 
16.9533 31.4746 14.7178 17.0798 31.7112 14.6923 17.1994 31.9491 14.6695 
17.3124 32.1873 14.6475 17.4196 32.4249 14.6241 17.5217 32.6612 14.5973 
17.6197 32.896 14.5651 17.7145 33.1292 14.5258 17.8072 33.3613 14.4785 
17.8987 33.5928 14.4228 17.9897 33.8246 14.3589 18.0811 34.0576 14.2877 
18.1731 34.2926 14.2107 18.2663 34.5302 14.1296 18.3606 34.7707 14.0464 
18.4561 35.0142 13.9629 18.5524 35.2605 13.8806 18.6491 35.5089 13.8004 
18.7457 35.7587 13.7229 18.8416 36.0089 13.6477 18.936 36.2586 13.574 
19.0284 36.5068 13.5003 19.1182 36.753 13.4248 19.2049 36.9967 13.3457 
19.2885 37.2374 13.261 19.369 37.4753 13.1692 19.4469 37.7105 13.069 
19.5229 37.943 12.96 19.5982 38.1732 12.8423 19.6742 38.401 12.7168 
19.7525 38.6264 12.5847 19.8349 38.8492 12.4479 19.9231 39.0689 12.3086 
20.0187 39.2851 12.169 20.1231 39.4971 12.031 20.2369 39.7047 11.8966 
20.3606 39.9074 11.7671 20.4937 40.1053 11.6433 20.6353 40.2988 11.5258 
20.784 40.4884 11.4143 20.9375 40.6753 11.3084 21.0936 40.8605 11.2074 
21.2498 41.0453 11.1104 21.4034 41.2309 11.0166 21.5523 41.4181 10.9254 
21.6945 41.6074 10.8365 21.8288 41.7988 10.75 21.9545 41.9918 10.6661 
22.0714 42.1853 10.5857 22.1803 42.3777 10.5097 22.2823 42.5674 10.4393 
22.3787 42.7524 10.3756 22.4711 42.931 10.3197 22.5613 43.1021 10.2724 
22.6506 43.2646 10.2343 22.74 43.4186 10.2056 22.8301 43.5644 10.1859 
22.9209 43.7031 10.1747 23.012 43.8363 10.1709 23.1024 43.9658 10.1734 
23.1909 44.0931 10.1807 23.2761 44.2197 10.1914 23.3565 44.3463 10.2042 
23.4307 44.4728 10.2176 23.4976 44.5983 10.2306 23.5565 44.7209 10.2425 
23.6069 44.8377 10.2527 23.6487 44.9455 10.2607 23.682 45.0405 10.2666 
23.7072 45.119 10.2703 23.7248 45.1776 10.272 23.7351 45.2137 10.2718 
23.7384 45.2255 10.2699 
LINES 2 100
OFFSETS vtktypeint64
0 100 
CONNECTIVITY vtktypeint64
0 1 2 3 4 5 6 7 8 
9 10 11 12 13 14 15 16 17 
18 19 20 21 22 23 24 25 26 
27 28 29 30 31 32 33 34 35 
36 37 38 39 40 41 42 43 44 
45 46 47 48 49 50 51 52 53 
54 55 56 57 58 59 60 61 62 
63 64 65 66 67 68 69 70 71 
72 73 74 75 76 77 78 79 80 
81 82 83 84 85 86 87 88 89 
90 91 92 93 94 95 96 97 98 
99 
POINT_DATA 100
FIELD FieldData 3
_theta 1 100 double
0 0.031733259127 0.063466518254 0.095199777382 0.12693303651 0.15866629564 0.19039955476 0.22213281389 0.25386607302 
0.28559933214 0.31733259127 0.3490658504 0.38079910953 0.41253236865 0.44426562778 0.47599888691 0.50773214603 0.53946540516 
0.57119866429 0.60293192342 0.63466518254 0.66639844167 0.6981317008 0.72986495992 0.76159821905 0.79333147818 0.82506473731 
0.85679799643 0.88853125556 0.92026451469 0.95199777382 0.98373103294 1.0154642921 1.0471975512 1.0789308103 1.1106640695 
1.1423973286 1.1741305877 1.2058638468 1.237597106 1.2693303651 1.3010636242 1.3327968833 1.3645301425 1.3962634016 
1.4279966607 1.4597299198 1.491463179 1.5231964381 1.5549296972 1.5866629564 1.6183962155 1.6501294746 1.6818627337 
1.7135959929 1.745329252 1.7770625111 1.8087957702 1.8405290294 1.8722622885 1.9039955476 1.9357288068 1.9674620659 
1.999195325 2.0309285841 2.0626618433 2.0943951024 2.1261283615 2.1578616206 2.1895948798 2.2213281389 2.253061398 
2.2847946572 2.3165279163 2.3482611754 2.3799944345 2.4117276937 2.4434609528 2.4751942119 2.506927471 2.5386607302 
2.5703939893 2.6021272484 2.6338605076 2.6655937667 2.6973270258 2.7290602849 2.7607935441 2.7925268032 2.8242600623 
2.8559933214 2.8877265806 2.9194598397 2.9511930988 2.982926358 3.0146596171 3.0463928762 3.0781261353 3.1098593945 
3.1415926536 
_radius 1 100 double
5.2002069027e-14 0.32458039341 0.64405031462 0.95379231266 1.2499677748 1.5297749928 1.7915766618 2.0348856836 2.2602235697 
2.4688913815 2.6627103514 2.843788652 3.0143495862 3.1766248292 3.3327914479 3.4849232041 3.6349321966 3.7844890493 
3.9349245133 4.0871289958 4.2414739712 4.3977772209 4.5553238985 4.7129423289 4.8691222657 5.0221572313 5.1702921472 
5.3118609515 5.4454034734 5.5697543054 5.6840984447 5.7879903275 5.8813360794 5.9643436507 6.0374506175 6.101242617 
6.1563752549 6.2035091059 6.2432627427 6.2761844486 6.3027406977 6.3233189561 6.338243047 6.3477994886 6.3522711355 
6.351970174 6.3472586631 6.3385453093 6.3262539967 6.3107704845 6.2923827794 6.2712326404 6.2472896919 6.2203503209 
6.1900572841 6.15593577 6.1174450415 6.0740463783 6.0252846878 5.9708742196 5.9107723782 5.8452234358 5.7747577308 
5.7001409933 5.6222798079 5.5420988979 5.460410945 5.377799639 5.2945331391 5.2105197412 5.1253108869 5.0381490826 
4.9480512427 4.8539137091 4.7546250431 4.6491756288 4.536756384 4.4168397143 4.2892331557 4.1540918512 4.0118758716 
3.8632490351 3.708936461 3.5495752402 3.3855911421 3.2171161035 3.0439445597 2.8655231882 2.6809731924 2.4891479588 
2.2887295147 2.0783652532 1.8568408741 1.6232757886 1.3773162221 1.1192942023 0.85032149457 0.57229649916 0.28781613751 
1.3102071108e-13 
_area 1 100 double
0 0.31609050061 1.2472608254 2.7443348216 4.7320691492 7.1180297957 9.8029386996 12.690951727 15.698385883 
18.759722067 21.830408799 24.886984952 27.925740543 30.960923009 34.02254414 37.153014752 40.401714247 43.817173847 
47.437623906 51.281903673 55.343511072 59.590209308 63.96991986 68.421207053 72.884771998 77.312174943 81.669507449 
85.935853406 90.098006509 94.143694379 98.055645547 101.80832144 105.36808708 108.69637019 111.75439548 114.50764812 
116.92873536 118.99893444 120.71036722 122.07085229 123.1108527 123.87820566 124.40708359 124.72513398 124.86260617 
124.84885867 124.70605247 124.44073109 124.04727104 123.51903662 122.85846805 122.08142131 121.21509851 120.2909255 
119.33403556 118.35001468 117.3108218 116.15038563 114.78254609 113.13324467 111.16622871 108.89210615 106.36055756 
103.64054785 100.79721956 97.875325017 94.895811258 91.865166712 88.790488135 85.690875075 82.598378001 79.547495928 
76.558476186 73.623796979 70.705779003 67.745723885 64.678524387 61.447442868 58.017321474 54.384597102 50.580226426 
46.662569239 42.703384787 38.77501165 34.943019901 31.261098308 27.764684613 24.465513635 21.352307455 18.400020576 
15.583974651 12.89206764 10.331221884 7.9287874106 5.7308282586 3.7978671575 2.19793668 0.99760768518 0.25263606512 
1.1368683772e-13 
