# vtk DataFile Version 5.1
vtk output
ASCII
DATASET POLYDATA
POINTS 1002 float
13.501 32.4157 9.57389 18.3158 39.6646 6.76955 13.1421 36.335 15.6109 
18.6474 42.0848 11.097 11.53 39.7695 7.86125 10.5167 42.4614 11.9964 
20.8138 33.8586 11.0047 21.0604 36.1162 14.8257 16.9686 45.8714 5.75815 
6.97152 33.6446 14.4246 23.747 43.3667 8.88647 15.0067 31.1927 15.9839 
13.9798 32.9572 9.39685 14.4913 33.4733 9.12299 15.0476 34.0075 8.77605 
15.583 34.6904 8.43622 16.0638 35.5429 8.1023 16.5767 36.4132 7.70171 
17.1672 37.2068 7.26718 17.7187 37.9901 6.9382 18.1022 38.8234 6.78782 
13.1804 32.8612 9.48436 12.7503 33.2567 9.29886 12.2273 33.62 8.93745 
11.7556 34.0819 8.46482 11.4607 34.7698 8.10274 11.3272 35.6897 7.99891 
11.2978 36.7547 8.05829 11.3561 37.8553 8.09239 11.4602 38.8851 8.01822 
14.1105 32.2784 9.57931 14.7962 32.1423 9.61726 15.6223 32.1055 9.67478 
16.6595 32.2071 9.74429 17.8794 32.328 9.7942 19.0474 32.3782 9.82282 
19.868 32.5071 9.95315 20.2918 32.8773 10.2838 20.5355 33.3963 10.7009 
12.7659 32.1355 9.69951 11.8526 31.8662 9.90279 10.8027 31.706 10.225 
9.81677 31.6482 10.7429 9.13157 31.5747 11.5337 8.70015 31.5433 12.5052 
8.2079 31.8223 13.3693 7.5617 32.4594 13.9207 7.05527 33.1578 14.2161 
13.3755 31.7814 9.72834 13.2849 31.2357 10.0488 13.3032 30.9773 10.7085 
13.4274 31.0033 11.6716 13.5928 31.0832 12.69 13.7927 31.0567 13.5794 
14.0761 30.9896 14.3386 14.4226 30.9852 14.9979 14.7474 31.0583 15.5469 
17.8549 39.6312 6.47981 17.2475 39.5774 6.21676 16.4196 39.5499 6.08465 
15.4966 39.5967 6.14272 14.7172 39.7146 6.37412 14.0962 39.8328 6.6889 
13.424 39.8864 6.97798 12.654 39.8755 7.22284 11.9763 39.8305 7.50078 
18.6583 39.1533 7.05421 18.9736 38.6346 7.41794 19.2167 38.1347 7.88435 
19.4711 37.6211 8.35995 19.8971 37.0206 8.64567 20.456 36.2958 8.7311 
20.8714 35.5098 8.92911 20.9767 34.7985 9.48223 20.889 34.2542 10.2638 
18.1787 40.5234 6.63003 18.04 41.4026 6.43619 17.9909 42.1853 6.09003 
18.0381 42.8705 5.59998 18.0551 43.572 5.06558 17.9428 44.3206 4.59643 
17.7482 44.9916 4.35423 17.5334 45.467 4.51192 17.2787 45.7419 5.05282 
18.7157 40.181 6.9409 19.3029 40.6642 7.05731 20.1098 41.0806 7.11124 
20.8914 41.4133 7.20189 21.3913 41.6482 7.4788 21.7151 41.84 7.94351 
22.1438 42.1205 8.37513 22.7265 42.5433 8.59639 23.305 43.0055 8.69727 
13.6248 36.8721 15.2579 14.1932 37.4591 14.9074 14.7785 38.0538 14.4761 
15.3099 38.5912 13.8954 15.8341 39.0586 13.1983 16.4337 39.56 12.5249 
17.0654 40.1873 12.0076 17.6381 40.8795 11.6541 18.1506 41.522 11.3746 
12.8113 36.8268 15.4752 12.4535 37.4085 15.2953 12.1032 37.975 14.9953 
11.8134 38.5086 14.5686 11.5816 39.1515 14.0905 11.3476 39.9571 13.636 
11.0936 40.7421 13.2313 10.8625 41.366 12.8539 10.6749 41.905 12.4519 
13.7995 36.2596 15.5589 14.5822 36.2072 15.563 15.4178 36.0692 15.5084 
16.2484 35.8303 15.3005 17.1232 35.6085 15.0427 18.0959 35.4902 14.9144 
19.069 35.4678 14.9071 19.8918 35.5581 14.8979 20.5337 35.7924 14.8587 
12.5147 36.122 15.9753 11.8499 35.9823 16.478 11.0426 35.8461 16.9505 
10.154 35.5078 17.1481 9.47775 34.8322 17.0015 9.0841 34.0349 16.6332 
8.60881 33.5332 16.1272 7.86401 33.4645 15.5168 7.18796 33.5911 14.9111 
13.058 35.7501 15.9555 12.9643 35.1681 16.3392 12.915 34.6084 16.7052 
12.995 34.059 17.021 13.2336 33.4827 17.2572 13.5646 32.8671 17.315 
13.9155 32.2696 17.1215 14.2726 31.7745 16.7579 14.6409 31.4201 16.3608 
18.0069 42.1611 11.0998 17.2751 42.1779 11.0691 16.4816 42.1216 11.0166 
15.6125 42.1109 11.0757 14.6297 42.1921 11.2525 13.5591 42.2147 11.3362 
12.5184 42.1302 11.2918 11.6398 42.1207 11.3671 10.9827 42.278 11.666 
18.9344 41.6609 11.3129 19.2316 41.2464 11.6541 19.5314 40.8682 12.1429 
19.8471 40.41 12.639 20.1792 39.6707 12.925 20.4731 38.6494 12.9888 
20.677 37.6376 13.0953 20.812 36.9053 13.4826 20.9324 36.4531 14.1241 
18.8159 42.6918 10.7759 19.0239 43.3474 10.3732 19.1777 43.992 9.86835 
19.1576 44.5076 9.27216 18.9095 44.8479 8.67199 18.4934 45.1222 8.16555 
18.0259 45.4347 7.71102 17.596 45.7274 7.16349 17.2413 45.8838 6.47703 
19.3362 42.4145 10.9321 20.0578 42.8908 10.8352 20.8081 43.5384 10.88 
21.5902 44.2366 11.0159 22.3941 44.784 11.0199 23.1539 45.0808 10.6983 
23.7241 45.1095 10.1172 23.9799 44.8111 9.52644 23.9435 44.1786 9.10939 
11.3215 40.2494 7.99405 11.0233 40.7478 8.10236 10.582 41.2132 8.18588 
10.0564 41.6439 8.31818 9.66413 42.1038 8.6405 9.58136 42.6077 9.28952 
9.73671 43.0067 10.2179 9.96221 43.103 11.1293 10.2122 42.8695 11.7346 
11.8018 40.564 7.42601 12.1377 41.261 6.97729 12.5047 41.9361 6.46195 
12.9236 42.6899 5.88942 13.5053 43.5336 5.46555 14.2616 44.3842 5.32876 
15.0226 45.1072 5.32837 15.6766 45.5782 5.33385 16.295 45.7917 5.44451 
11.2304 39.1199 8.4306 10.9117 38.354 9.02057 10.3581 37.6117 9.41347 
9.65122 36.9357 9.63536 9.19292 36.1806 10.1376 9.05731 35.3012 11.2074 
8.79041 34.553 12.4609 8.14178 34.1344 13.3896 7.40857 33.9082 13.9634 
10.6192 42.971 11.3243 10.8824 43.4228 10.6585 11.5768 43.6942 10.0473 
12.7175 43.9433 9.4033 13.8542 44.519 8.66352 14.5503 45.3668 7.95929 
14.9418 45.9739 7.39577 15.4428 46.0896 6.86725 16.1746 45.9605 6.28894 
10.1701 42.1666 12.5137 9.68026 41.6865 12.8428 9.13777 40.9749 12.9496 
8.85904 39.9372 13.0289 8.98121 38.4782 13.2949 9.12251 36.7952 13.7043 
8.81945 35.4035 14.0521 8.1183 34.5901 14.2469 7.41329 34.1251 14.3457 
21.0963 33.8413 11.4672 21.5315 33.7397 11.7974 21.9207 33.636 12.2169 
22.0966 33.659 12.963 22.1472 33.8965 13.9008 22.1933 34.3804 14.6615 
22.1337 35.0423 15.0965 21.8626 35.662 15.253 21.4626 36.0243 15.1497 
21.218 34.4758 10.7383 21.7136 35.111 10.3721 22.1927 35.8723 10.022 
22.5887 36.9308 9.80775 22.9595 38.2039 9.70161 23.3356 39.3486 9.56833 
23.6116 40.2566 9.35906 23.7196 41.1741 9.13836 23.7351 42.2545 8.97189 
20.6247 33.2647 11.5335 20.5262 32.6412 12.0437 20.4695 31.9807 12.5439 
20.2937 31.3994 13.0564 19.818 31.0772 13.6462 18.9981 31.0061 14.3702 
17.9611 31.007 15.0976 16.8834 31.0123 15.5886 15.8825 31.0761 15.8152 
21.4986 36.75 14.4601 21.9744 37.5463 14.1968 22.4504 38.4168 13.8142 
22.929 39.2613 13.1781 23.4325 40.0061 12.4895 23.8883 40.6707 11.8887 
24.16 41.3736 11.1574 24.1979 42.1529 10.215 24.0419 42.8689 9.37148 
20.8884 35.594 15.6066 20.7096 35.0719 16.4299 20.484 34.471 16.9694 
20.1302 33.7065 17.0784 19.5435 32.8155 17.0212 18.6824 32.0242 17.0572 
17.6567 31.5468 17.0338 16.6542 31.3559 16.7484 15.7759 31.2748 16.322 
17.9506 45.9826 5.85993 19.0136 46.3015 6.16799 20.0205 46.6912 6.42113 
20.8797 46.862 6.48639 21.611 46.6304 6.70027 22.264 46.1027 7.36268 
22.8145 45.5048 8.14617 23.2237 44.9001 8.59332 23.5186 44.2003 8.74022 
6.7591 32.9862 14.8191 6.79573 32.1718 15.3404 7.10644 31.472 15.925 
7.76993 31.0906 16.4888 8.86721 30.942 16.9974 10.27 30.8797 17.29 
11.6805 30.9172 17.1214 12.9233 31.0515 16.5889 14.014 31.1683 16.1201 
13.6427 33.4004 9.19666 13.1839 33.787 8.86319 14.142 33.9349 8.84019 
12.7051 34.215 8.43135 13.711 34.4326 8.4795 14.6743 34.6051 8.53899 
12.3527 34.8583 8.0758 13.3593 35.0881 8.14622 14.3022 35.341 8.28357 
15.1663 35.4974 8.29166 12.1253 35.7841 7.92798 13.1278 35.9915 7.96527 
14.0815 36.2286 8.05008 14.8527 36.395 8.05719 15.6508 36.4366 7.89844 
11.9537 36.8861 7.89791 12.9009 37.0762 7.87757 13.9075 37.2351 7.85861 
14.7025 37.3067 7.73297 15.4017 37.2883 7.51072 16.2546 37.2266 7.30867 
11.8712 37.9961 7.82394 12.6922 38.1624 7.71627 13.6624 38.2556 7.62189 
14.5171 38.2197 7.38831 15.2449 38.1013 7.06047 16.0489 37.9894 6.81483 
16.9393 37.9463 6.77602 11.907 38.993 7.67428 12.6208 39.1063 7.46442 
13.4712 39.1581 7.29714 14.2604 39.0887 7.0336 14.9945 38.9279 6.68537 
15.8214 38.7819 6.41414 16.7188 38.7246 6.35524 17.5084 38.7528 6.51323 
12.3855 32.5864 9.65714 11.4139 32.3438 9.864 11.8907 33.0234 9.49195 
10.34 32.2137 10.124 10.8921 32.8782 9.65031 11.332 33.4862 9.07877 
9.45479 32.1448 10.6003 9.88364 32.8579 9.83293 10.3696 33.5182 9.1576 
10.8912 34.0847 8.53675 9.00689 32.0926 11.4497 9.2095 32.8828 10.342 
9.50129 33.6831 9.35041 10.0349 34.2916 8.62986 10.6991 34.8707 8.20315 
8.77677 32.2401 12.4818 9.01552 32.959 11.3037 9.04281 33.856 9.98331 
9.33264 34.6015 8.96647 10.0123 35.1526 8.46099 10.7312 35.8231 8.23895 
8.34921 32.7386 13.2903 8.91702 33.2287 12.3373 9.00834 34.0194 10.9766 
9.02003 34.8673 9.67109 9.49036 35.5129 8.95189 10.2656 36.1085 8.68771 
10.8976 36.9094 8.44134 7.76265 33.3947 13.7296 8.56368 33.6852 13.0309 
8.99346 34.2525 11.8774 9.03351 35.0749 10.5074 9.24937 35.8546 9.56477 
9.91312 36.4958 9.21037 10.6306 37.2023 8.96904 11.0982 38.0518 8.53347 
7.85258 34.4086 13.7946 8.5062 35.0494 13.5332 8.49574 34.7925 13.0172 
9.02834 36.2236 13.1609 8.90333 35.8211 12.5339 8.95847 35.5245 11.8832 
9.0954 37.8889 12.7098 9.07341 37.3888 12.044 9.06204 36.9564 11.3377 
9.13695 36.5448 10.695 8.90822 39.4863 12.3216 8.94118 39.0507 11.5967 
8.97291 38.6245 10.9175 9.15808 38.0978 10.3578 9.43067 37.4937 9.96305 
8.98024 40.6743 12.153 8.88457 40.3129 11.2586 8.8408 39.9731 10.5173 
9.06545 39.5433 10.0423 9.57101 38.9289 9.80136 10.0616 38.2345 9.65 
9.40925 41.5891 12.1425 9.17751 41.3075 11.1357 8.96742 40.9651 10.1818 
9.02415 40.6097 9.60026 9.52917 40.1548 9.39832 10.2134 39.5648 9.36296 
10.697 38.9299 9.2693 9.88073 42.3457 12.0456 9.61957 42.2851 11.1637 
9.34449 41.9832 10.1009 9.21439 41.5699 9.27496 9.49148 41.1467 8.88693 
10.1144 40.6972 8.79784 10.7152 40.1854 8.76715 11.0695 39.6385 8.64814 
11.4515 41.073 7.48176 11.0633 41.5737 7.55942 11.6815 41.8071 6.97207 
10.6669 42.029 7.7334 11.3189 42.3192 7.06739 12.0773 42.5331 6.41725 
10.3136 42.4947 8.10229 11.1001 42.7673 7.41384 11.8959 43.0398 6.58976 
12.6779 43.3301 5.9052 10.09 43.0425 8.72564 10.9384 43.2253 8.06324 
11.9024 43.4146 7.14402 12.7224 43.8094 6.25418 13.4522 44.2004 5.70301 
10.0398 43.5496 9.56373 10.7678 43.707 8.89816 11.8591 43.7242 8.00091 
12.8681 44.0777 6.99256 13.5849 44.6753 6.27511 14.2448 45.0485 5.83265 
10.1246 43.7337 10.4118 10.6444 43.9973 9.71177 11.6913 43.9595 8.89368 
[...]
POINT_DATA 1002
FIELD FieldData 4
_paraPhi 1 1002 double
6.2831853072 3.1415926536 6.2831853072 3.1415926536 4.7123889804 4.7123889804 1.5707963268 1.5707963268 3.6951670125 
5.7296109483 2.5880182947 0.5535743589 6.2831853072 6.2831853072 6.2831853072 6.2831853072 3.1415926536 3.1415926536 
3.1415926536 3.1415926536 3.1415926536 6.1053039672 5.898798347 5.6768734901 5.4599499503 5.2659633393 5.1032165617 
4.9713148346 4.8656852733 4.7809517865 0.17788134 0.38438696014 0.60631181711 0.82323535693 1.0172219679 1.1799687454 
1.3118704726 1.4175000338 1.5022335207 6.1892828907 6.1070320098 6.035312792 5.9728339911 5.9183214791 5.8706119594 
5.8286879411 5.7916808611 5.7588591896 0.093902416448 0.17615329733 0.2478725152 0.31035131605 0.36486382811 0.41257334776 
0.45449736604 0.4915044461 0.52432611754 3.3194739936 3.5259796137 3.7479044707 3.9648280105 4.1588146215 4.321561399 
4.4534631262 4.5590926874 4.6438261743 2.9637113136 2.7572056934 2.5352808365 2.3183572967 2.1243706857 1.9616239082 
1.829722181 1.7240926197 1.6393591329 3.23549507 3.3177459509 3.3894651688 3.4519439696 3.5064564817 3.5541660013 
3.5960900196 3.6330970997 3.6659187711 3.0476902371 2.9654393563 2.8937201384 2.8312413375 2.7767288255 2.7290193058 
2.6870952876 2.6500882075 2.617266536 6.2831853072 6.2831853072 6.2831853072 6.2831853072 3.1415926536 3.1415926536 
3.1415926536 3.1415926536 3.1415926536 6.1053039672 5.898798347 5.6768734901 5.4599499503 5.2659633393 5.1032165617 
4.9713148346 4.8656852733 4.7809517865 0.17788134 0.38438696014 0.60631181711 0.82323535693 1.0172219679 1.1799687454 
1.3118704726 1.4175000338 1.5022335207 6.1892828907 6.1070320098 6.035312792 5.9728339911 5.9183214791 5.8706119594 
5.8286879411 5.7916808611 5.7588591896 0.093902416448 0.17615329733 0.2478725152 0.31035131605 0.36486382811 0.41257334776 
0.45449736604 0.4915044461 0.52432611754 3.3194739936 3.5259796137 3.7479044707 3.9648280105 4.1588146215 4.321561399 
4.4534631262 4.5590926874 4.6438261743 2.9637113136 2.7572056934 2.5352808365 2.3183572967 2.1243706857 1.9616239082 
1.829722181 1.7240926197 1.6393591329 3.23549507 3.3177459509 3.3894651688 3.4519439696 3.5064564817 3.5541660013 
3.5960900196 3.6330970997 3.6659187711 3.0476902371 2.9654393563 2.8937201384 2.8312413375 2.7767288255 2.7290193058 
2.6870952876 2.6500882075 2.617266536 4.7123889804 4.7123889804 4.7123889804 4.7123889804 4.7123889804 4.7123889804 
4.7123889804 4.7123889804 4.7123889804 4.6087898617 4.4991390697 4.3857031936 4.2712800401 4.1588146215 4.0509635631 
3.94975894 3.8564636551 3.7716124825 4.8159880991 4.9256388911 5.0390747672 5.1534979207 5.2659633393 5.3738143976 
5.4750190208 5.5683143056 5.6531654782 4.6087898617 4.4991390697 4.3857031936 4.2712800401 4.1588146215 4.0509635631 
3.94975894 3.8564636551 3.7716124825 4.8159880991 4.9256388911 5.0390747672 5.1534979207 5.2659633393 5.3738143976 
5.4750190208 5.5683143056 5.6531654782 1.5707963268 1.5707963268 1.5707963268 1.5707963268 1.5707963268 1.5707963268 
1.5707963268 1.5707963268 1.5707963268 1.6743954455 1.7840462375 1.8974821136 2.0119052671 2.1243706857 2.232221744 
2.3334263672 2.426721652 2.5115728246 1.4671972081 1.3575464161 1.24411054 1.1296873865 1.0172219679 0.90937090954 
0.80816628637 0.71487100155 0.63001982895 1.6743954455 1.7840462375 1.8974821136 2.0119052671 2.1243706857 2.232221744 
2.3334263672 2.426721652 2.5115728246 1.4671972081 1.3575464161 1.24411054 1.1296873865 1.0172219679 0.90937090954 
0.80816628637 0.71487100155 0.63001982895 3.6007720849 3.4966939854 3.3839471039 3.2645756454 3.1415926536 3.0186096618 
2.8992382033 2.7864913217 2.6824132222 5.8240058758 5.9280839753 6.0408308569 6.1602023154 6.2831853072 0.12298299178 
0.2423544503 0.35510133185 0.45917943135 6.0560271438 5.7885595667 5.9702140275 5.5125918794 5.6029703303 5.7885595667 
5.2659633393 5.2659633393 5.2659633393 5.2659633393 5.0674903122 5.0120975802 4.9155579264 4.7123889804 4.1588146215 
4.9155579264 4.8353719722 4.7123889804 4.5092200343 4.1588146215 3.6362183941 4.8004512023 4.7123889804 4.5894059886 
4.4126803806 4.1588146215 3.8218076305 3.4545639333 4.7123889804 4.6243267584 4.5092200343 4.3572876485 4.1588146215 
3.9121860814 3.6362183941 3.368750817 6.0174235957 5.9434319871 5.8263323547 5.8809213739 5.7674481418 5.6279784266 
5.8278025282 5.718968232 5.5891129425 5.4372443565 5.7823484065 5.678536687 5.5575666702 5.4192596322 5.2659633393 
5.743164462 5.6444075337 5.5314983644 5.4046708639 5.2659633393 5.1195510325 5.7091357773 5.6152775188 5.5096229709 
5.3926039573 5.2659633393 5.1329233157 4.9978930058 5.6793730533 5.5901633916 5.4910209005 5.3824597928 5.2659633393 
5.1440684722 5.0201624502 4.8979782167 5.5683143056 5.4750190208 5.4750190208 5.3738143976 5.3738143976 5.3738143976 
5.2659633393 5.2659633393 5.2659633393 5.2659633393 5.1534979207 5.1534979207 5.1534979207 5.1534979207 5.1534979207 
5.0390747672 5.0390747672 5.0390747672 5.0390747672 5.0390747672 5.0390747672 4.9256388911 4.9256388911 4.9256388911 
4.9256388911 4.9256388911 4.9256388911 4.9256388911 4.8159880991 4.8159880991 4.8159880991 4.8159880991 4.8159880991 
4.8159880991 4.8159880991 4.8159880991 4.6087898617 4.6087898617 4.4991390697 4.6087898617 4.4991390697 4.3857031936 
4.6087898617 4.4991390697 4.3857031936 4.2712800401 4.6087898617 4.4991390697 4.3857031936 4.2712800401 4.1588146215 
4.6087898617 4.4991390697 4.3857031936 4.2712800401 4.1588146215 4.0509635631 4.6087898617 4.4991390697 4.3857031936 
4.2712800401 4.1588146215 4.0509635631 3.94975894 4.6087898617 4.4991390697 4.3857031936 4.2712800401 4.1588146215 
4.0509635631 3.94975894 3.8564636551 4.526799744 4.4046155105 4.426884955 4.2807094886 4.2918546451 4.3052269283 
4.1588146215 4.1588146215 4.1588146215 4.1588146215 4.042318168 4.0321740035 4.0201070968 4.0055183285 3.9875336042 
3.9337570603 3.9151549899 3.8932795963 3.8672112905 3.8356650183 3.7967995342 3.8346145692 3.809500442 3.7803704271 
3.7462412737 3.7058097288 3.657329819 3.5984456061 3.7454049075 3.7156421835 3.6816134988 3.6424295543 3.5969754326 
3.5438565869 3.4813459737 3.4073543651 3.5642842451 3.4524645613 3.5233842518 3.3320300872 3.403123212 3.4773852225 
3.20576226 3.2746326772 3.348015857 3.4255060145 3.0774230472 3.1415926536 3.2112816139 3.2864685043 3.3668817272 
2.95115522 3.00855263 3.0719036933 3.1415926536 3.2178377658 3.3005964304 2.8307207459 2.8800620952 2.9351694502 
2.9967168029 3.0653475414 3.1415926536 3.225752376 2.718901062 2.7598010554 2.8058000847 2.8576792927 2.91630358 
2.9825888767 3.0574329311 3.1415926536 3.5642842451 3.5233842518 3.4524645613 3.4773852225 3.403123212 3.3320300872 
3.4255060145 3.348015857 3.2746326772 3.20576226 3.3668817272 3.2864685043 3.2112816139 3.1415926536 3.0774230472 
3.3005964304 3.2178377658 3.1415926536 3.0719036933 3.00855263 2.95115522 3.225752376 3.1415926536 3.0653475414 
2.9967168029 2.9351694502 2.8800620952 2.8307207459 3.1415926536 3.0574329311 2.9825888767 2.91630358 2.8576792927 
2.8058000847 2.7598010554 2.718901062 4.526799744 4.426884955 4.4046155105 4.3052269283 4.2918546451 4.2807094886 
4.1588146215 4.1588146215 4.1588146215 4.1588146215 3.9875336042 4.0055183285 4.0201070968 4.0321740035 4.042318168 
3.7967995342 3.8356650183 3.8672112905 3.8932795963 3.9151549899 3.9337570603 3.5984456061 3.657329819 3.7058097288 
3.7462412737 3.7803704271 3.809500442 3.8346145692 3.4073543651 3.4813459737 3.5438565869 3.5969754326 3.6424295543 
3.6816134988 3.7156421835 3.7454049075 4.7123889804 4.8004512023 4.6243267584 4.9155579264 4.7123889804 4.5092200343 
5.0674903122 4.8353719722 4.5894059886 4.3572876485 5.2659633393 5.0120975802 4.7123889804 4.4126803806 4.1588146215 
5.5125918794 5.2659633393 4.9155579264 4.5092200343 4.1588146215 3.9121860814 5.7885595667 5.6029703303 5.2659633393 
4.7123889804 4.1588146215 3.8218076305 3.6362183941 6.0560271438 5.9702140275 5.7885595667 5.2659633393 4.1588146215 
3.6362183941 3.4545639333 3.368750817 0.22715816343 0.49462574053 0.3129712797 0.77059342779 0.68021497688 0.49462574053 
1.0172219679 1.0172219679 1.0172219679 1.0172219679 1.2156949949 1.271087727 1.3676273807 1.5707963268 2.1243706857 
1.3676273807 1.447813335 1.5707963268 1.7739652728 2.1243706857 2.6469669131 1.4827341049 1.5707963268 1.6937793186 
1.8705049266 2.1243706857 2.4613776767 2.8286213739 1.5707963268 1.6588585487 1.7739652728 1.9258976586 2.1243706857 
2.3709992258 2.6469669131 2.9144344902 1.7563855631 1.8785697967 1.8563003522 2.0024758186 1.9913306621 1.9779583789 
2.1243706857 2.1243706857 2.1243706857 2.1243706857 2.2408671392 2.2510113037 2.2630782103 2.2776669786 2.295651703 
2.3494282469 2.3680303173 2.3899057108 2.4159740166 2.4475202889 2.486385773 2.448570738 2.4736848652 2.5028148801 
2.5369440334 2.5773755784 2.6258554882 2.6847397011 2.5377803997 2.5675431237 2.6015718084 2.6407557529 2.6862098746 
2.7393287203 2.8018393335 2.8758309421 1.6743954455 1.6743954455 1.7840462375 1.6743954455 1.7840462375 1.8974821136 
1.6743954455 1.7840462375 1.8974821136 2.0119052671 1.6743954455 1.7840462375 1.8974821136 2.0119052671 2.1243706857 
1.6743954455 1.7840462375 1.8974821136 2.0119052671 2.1243706857 2.232221744 1.6743954455 1.7840462375 1.8974821136 
2.0119052671 2.1243706857 2.232221744 2.3334263672 1.6743954455 1.7840462375 1.8974821136 2.0119052671 2.1243706857 
2.232221744 2.3334263672 2.426721652 1.4671972081 1.3575464161 1.4671972081 1.24411054 1.3575464161 1.4671972081 
1.1296873865 1.24411054 1.3575464161 1.4671972081 1.0172219679 1.1296873865 1.24411054 1.3575464161 1.4671972081 
0.90937090954 1.0172219679 1.1296873865 1.24411054 1.3575464161 1.4671972081 0.80816628637 0.90937090954 1.0172219679 
1.1296873865 1.24411054 1.3575464161 1.4671972081 0.71487100155 0.80816628637 0.90937090954 1.0172219679 1.1296873865 
1.24411054 1.3575464161 1.4671972081 0.60381225391 0.57404952988 0.69302191562 0.54002084522 0.66790778838 0.79216440667 
0.50083690068 0.63877777351 0.77356233629 0.90072551443 0.45538277901 0.60464862014 0.75168694275 0.89058134991 1.0172219679 
0.40226393329 0.56421707518 0.72561863695 0.87851444325 1.0172219679 1.139116835 0.33975332011 0.51573716537 0.69407236469 
0.86392567495 1.0172219679 1.1502619915 1.2630228569 0.26576171152 0.45685295248 0.6552068806 0.84594095064 1.0172219679 
1.1636342747 1.2852923014 1.3852070904 0.22715816343 0.3129712797 0.49462574053 0.49462574053 0.68021497688 0.77059342779 
1.0172219679 1.0172219679 1.0172219679 1.0172219679 2.1243706857 1.5707963268 1.3676273807 1.271087727 1.2156949949 
2.6469669131 2.1243706857 1.7739652728 1.5707963268 1.447813335 1.3676273807 2.8286213739 2.4613776767 2.1243706857 
1.8705049266 1.6937793186 1.5707963268 1.4827341049 2.9144344902 2.6469669131 2.3709992258 2.1243706857 1.9258976586 
1.7739652728 1.6588585487 1.5707963268 1.7563855631 1.8563003522 1.8785697967 1.9779583789 1.9913306621 2.0024758186 
2.1243706857 2.1243706857 2.1243706857 2.1243706857 2.295651703 2.2776669786 2.2630782103 2.2510113037 2.2408671392 
2.486385773 2.4475202889 2.4159740166 2.3899057108 2.3680303173 2.3494282469 2.6847397011 2.6258554882 2.5773755784 
2.5369440334 2.5028148801 2.4736848652 2.448570738 2.8758309421 2.8018393335 2.7393287203 2.6862098746 2.6407557529 
2.6015718084 2.5675431237 2.5377803997 5.8604937156 5.901393709 5.9723133995 5.9473927383 6.0216547488 6.0927478736 
5.9992719463 6.0767621038 6.1501452836 6.2190157008 6.0578962336 6.1383094565 6.2134963469 0 0.064169606361 
6.1241815303 6.206940195 6.2831853072 0.069688960264 0.13304002361 0.19043743361 6.1990255847 0 0.07624511221 
0.14487585072 0.20642320337 0.26153055843 0.3108719077 0 0.084159722458 0.15900377685 0.22528907359 0.28391336087 
0.3357925689 0.38179159818 0.42269159155 5.8604937156 5.9723133995 5.901393709 6.0927478736 6.0216547488 5.9473927383 
6.2190157008 6.1501452836 6.0767621038 5.9992719463 0.064169606361 0 6.2134963469 6.1383094565 6.0578962336 
0.19043743361 0.13304002361 0.069688960264 6.2831853072 6.206940195 6.1241815303 0.3108719077 0.26153055843 0.20642320337 
0.14487585072 0.07624511221 6.2831853072 6.1990255847 0.42269159155 0.38179159818 0.3357925689 0.28391336087 0.22528907359 
0.15900377685 0.084159722458 0 5.6793730533 5.7091357773 5.5901633916 5.743164462 5.6152775188 5.4910209005 
5.7823484065 5.6444075337 5.5096229709 5.3824597928 5.8278025282 5.678536687 5.5314983644 5.3926039573 5.2659633393 
5.8809213739 5.718968232 5.5575666702 5.4046708639 5.2659633393 5.1440684722 5.9434319871 5.7674481418 5.5891129425 
5.4192596322 5.2659633393 5.1329233157 5.0201624502 6.0174235957 5.8263323547 5.6279784266 5.4372443565 5.2659633393 
5.1195510325 4.9978930058 4.8979782167 1.3852070904 1.2852923014 1.2630228569 1.1636342747 1.1502619915 1.139116835 
1.0172219679 1.0172219679 1.0172219679 1.0172219679 0.84594095064 0.86392567495 0.87851444325 0.89058134991 0.90072551443 
0.6552068806 0.69407236469 0.72561863695 0.75168694275 0.77356233629 0.79216440667 0.45685295248 0.51573716537 0.56421707518 
0.60464862014 0.63877777351 0.66790778838 0.69302191562 0.26576171152 0.33975332011 0.40226393329 0.45538277901 0.50083690068 
0.54002084522 0.57404952988 0.60381225391 
_paraPhiHalf 1 1002 double
0 3.1415926536 0 3.1415926536 1.5707963268 1.5707963268 1.5707963268 1.5707963268 2.5880182947 
0.5535743589 2.5880182947 0.5535743589 0 0 0 0 3.1415926536 3.1415926536 
3.1415926536 3.1415926536 3.1415926536 0.17788134 0.38438696014 0.60631181711 0.82323535693 1.0172219679 1.1799687454 
1.3118704726 1.4175000338 1.5022335207 0.17788134 0.38438696014 0.60631181711 0.82323535693 1.0172219679 1.1799687454 
1.3118704726 1.4175000338 1.5022335207 0.093902416448 0.17615329733 0.2478725152 0.31035131605 0.36486382811 0.41257334776 
0.45449736604 0.4915044461 0.52432611754 0.093902416448 0.17615329733 0.2478725152 0.31035131605 0.36486382811 0.41257334776 
0.45449736604 0.4915044461 0.52432611754 2.9637113136 2.7572056934 2.5352808365 2.3183572967 2.1243706857 1.9616239082 
1.829722181 1.7240926197 1.6393591329 2.9637113136 2.7572056934 2.5352808365 2.3183572967 2.1243706857 1.9616239082 
1.829722181 1.7240926197 1.6393591329 3.0476902371 2.9654393563 2.8937201384 2.8312413375 2.7767288255 2.7290193058 
2.6870952876 2.6500882075 2.617266536 3.0476902371 2.9654393563 2.8937201384 2.8312413375 2.7767288255 2.7290193058 
2.6870952876 2.6500882075 2.617266536 0 0 0 0 3.1415926536 3.1415926536 
3.1415926536 3.1415926536 3.1415926536 0.17788134 0.38438696014 0.60631181711 0.82323535693 1.0172219679 1.1799687454 
1.3118704726 1.4175000338 1.5022335207 0.17788134 0.38438696014 0.60631181711 0.82323535693 1.0172219679 1.1799687454 
1.3118704726 1.4175000338 1.5022335207 0.093902416448 0.17615329733 0.2478725152 0.31035131605 0.36486382811 0.41257334776 
0.45449736604 0.4915044461 0.52432611754 0.093902416448 0.17615329733 0.2478725152 0.31035131605 0.36486382811 0.41257334776 
0.45449736604 0.4915044461 0.52432611754 2.9637113136 2.7572056934 2.5352808365 2.3183572967 2.1243706857 1.9616239082 
1.829722181 1.7240926197 1.6393591329 2.9637113136 2.7572056934 2.5352808365 2.3183572967 2.1243706857 1.9616239082 
1.829722181 1.7240926197 1.6393591329 3.0476902371 2.9654393563 2.8937201384 2.8312413375 2.7767288255 2.7290193058 
2.6870952876 2.6500882075 2.617266536 3.0476902371 2.9654393563 2.8937201384 2.8312413375 2.7767288255 2.7290193058 
2.6870952876 2.6500882075 2.617266536 1.5707963268 1.5707963268 1.5707963268 1.5707963268 1.5707963268 1.5707963268 
1.5707963268 1.5707963268 1.5707963268 1.6743954455 1.7840462375 1.8974821136 2.0119052671 2.1243706857 2.232221744 
2.3334263672 2.426721652 2.5115728246 1.4671972081 1.3575464161 1.24411054 1.1296873865 1.0172219679 0.90937090954 
0.80816628637 0.71487100155 0.63001982895 1.6743954455 1.7840462375 1.8974821136 2.0119052671 2.1243706857 2.232221744 
2.3334263672 2.426721652 2.5115728246 1.4671972081 1.3575464161 1.24411054 1.1296873865 1.0172219679 0.90937090954 
0.80816628637 0.71487100155 0.63001982895 1.5707963268 1.5707963268 1.5707963268 1.5707963268 1.5707963268 1.5707963268 
1.5707963268 1.5707963268 1.5707963268 1.6743954455 1.7840462375 1.8974821136 2.0119052671 2.1243706857 2.232221744 
2.3334263672 2.426721652 2.5115728246 1.4671972081 1.3575464161 1.24411054 1.1296873865 1.0172219679 0.90937090954 
0.80816628637 0.71487100155 0.63001982895 1.6743954455 1.7840462375 1.8974821136 2.0119052671 2.1243706857 2.232221744 
2.3334263672 2.426721652 2.5115728246 1.4671972081 1.3575464161 1.24411054 1.1296873865 1.0172219679 0.90937090954 
0.80816628637 0.71487100155 0.63001982895 2.6824132222 2.7864913217 2.8992382033 3.0186096618 3.1415926536 3.0186096618 
2.8992382033 2.7864913217 2.6824132222 0.45917943135 0.35510133185 0.2423544503 0.12298299178 0 0.12298299178 
0.2423544503 0.35510133185 0.45917943135 0.22715816343 0.49462574053 0.3129712797 0.77059342779 0.68021497688 0.49462574053 
1.0172219679 1.0172219679 1.0172219679 1.0172219679 1.2156949949 1.271087727 1.3676273807 1.5707963268 2.1243706857 
1.3676273807 1.447813335 1.5707963268 1.7739652728 2.1243706857 2.6469669131 1.4827341049 1.5707963268 1.6937793186 
1.8705049266 2.1243706857 2.4613776767 2.8286213739 1.5707963268 1.6588585487 1.7739652728 1.9258976586 2.1243706857 
2.3709992258 2.6469669131 2.9144344902 0.26576171152 0.33975332011 0.45685295248 0.40226393329 0.51573716537 0.6552068806 
0.45538277901 0.56421707518 0.69407236469 0.84594095064 0.50083690068 0.60464862014 0.72561863695 0.86392567495 1.0172219679 
0.54002084522 0.63877777351 0.75168694275 0.87851444325 1.0172219679 1.1636342747 0.57404952988 0.66790778838 0.77356233629 
0.89058134991 1.0172219679 1.1502619915 1.2852923014 0.60381225391 0.69302191562 0.79216440667 0.90072551443 1.0172219679 
1.139116835 1.2630228569 1.3852070904 0.71487100155 0.80816628637 0.80816628637 0.90937090954 0.90937090954 0.90937090954 
1.0172219679 1.0172219679 1.0172219679 1.0172219679 1.1296873865 1.1296873865 1.1296873865 1.1296873865 1.1296873865 
1.24411054 1.24411054 1.24411054 1.24411054 1.24411054 1.24411054 1.3575464161 1.3575464161 1.3575464161 
1.3575464161 1.3575464161 1.3575464161 1.3575464161 1.4671972081 1.4671972081 1.4671972081 1.4671972081 1.4671972081 
1.4671972081 1.4671972081 1.4671972081 1.6743954455 1.6743954455 1.7840462375 1.6743954455 1.7840462375 1.8974821136 
1.6743954455 1.7840462375 1.8974821136 2.0119052671 1.6743954455 1.7840462375 1.8974821136 2.0119052671 2.1243706857 
1.6743954455 1.7840462375 1.8974821136 2.0119052671 2.1243706857 2.232221744 1.6743954455 1.7840462375 1.8974821136 
2.0119052671 2.1243706857 2.232221744 2.3334263672 1.6743954455 1.7840462375 1.8974821136 2.0119052671 2.1243706857 
2.232221744 2.3334263672 2.426721652 1.7563855631 1.8785697967 1.8563003522 2.0024758186 1.9913306621 1.9779583789 
2.1243706857 2.1243706857 2.1243706857 2.1243706857 2.2408671392 2.2510113037 2.2630782103 2.2776669786 2.295651703 
2.3494282469 2.3680303173 2.3899057108 2.4159740166 2.4475202889 2.486385773 2.448570738 2.4736848652 2.5028148801 
2.5369440334 2.5773755784 2.6258554882 2.6847397011 2.5377803997 2.5675431237 2.6015718084 2.6407557529 2.6862098746 
2.7393287203 2.8018393335 2.8758309421 2.718901062 2.8307207459 2.7598010554 2.95115522 2.8800620952 2.8058000847 
3.0774230472 3.00855263 2.9351694502 2.8576792927 3.0774230472 3.1415926536 3.0719036933 2.9967168029 2.91630358 
2.95115522 3.00855263 3.0719036933 3.1415926536 3.0653475414 2.9825888767 2.8307207459 2.8800620952 2.9351694502 
2.9967168029 3.0653475414 3.1415926536 3.0574329311 2.718901062 2.7598010554 2.8058000847 2.8576792927 2.91630358 
2.9825888767 3.0574329311 3.1415926536 2.718901062 2.7598010554 2.8307207459 2.8058000847 2.8800620952 2.95115522 
2.8576792927 2.9351694502 3.00855263 3.0774230472 2.91630358 2.9967168029 3.0719036933 3.1415926536 3.0774230472 
2.9825888767 3.0653475414 3.1415926536 3.0719036933 3.00855263 2.95115522 3.0574329311 3.1415926536 3.0653475414 