# vtk DataFile Version 5.1
vtk output
ASCII
DATASET POLYDATA
POINTS 1002 float
16.1153 33.3781 10.4864 23.3884 38.7335 7.6423 14.4184 39.402 18.9599 
23.9665 42.8282 14.7921 16.4535 41.5884 6.69787 15.3014 44.9737 12.8343 
24.6835 32.1814 13.5077 23.9684 35.7543 17.6194 24.5114 46.8893 7.48013 
8.95793 37.5824 13.1364 29.1641 40.666 13.6136 13.404 30.9069 17.9231 
16.924 33.6931 10.0724 17.6604 33.9676 9.47867 18.438 34.2058 8.7805 
19.3932 34.4445 8.11311 20.4274 34.7876 7.58863 21.2771 35.385 7.3074 
21.8725 36.2666 7.31612 22.3664 37.248 7.49314 22.8743 38.0986 7.63273 
16.1638 34.0379 10.2519 16.1886 34.6806 9.94356 16.1781 35.3238 9.57173 
16.1658 36.1001 9.12697 16.2009 37.0482 8.64602 16.2902 37.9962 8.21233 
16.3746 38.8352 7.82334 16.402 39.6806 7.40952 16.4029 40.6262 6.99693 
16.6346 32.9286 10.4646 17.3394 32.4893 10.4283 18.3469 32.1001 10.393 
19.5936 31.8091 10.4328 20.8343 31.6573 10.7006 21.8867 31.6312 11.2676 
22.754 31.6799 11.9719 23.4964 31.7862 12.5908 24.1375 31.9585 13.0759 
15.2087 33.4514 10.6881 14.1678 33.5608 10.9168 13.1599 33.7418 11.2572 
12.3244 33.9997 11.7246 11.6015 34.3427 12.1861 10.8555 34.8305 12.4738 
10.1071 35.4991 12.5772 9.49565 36.2641 12.6438 9.11106 36.9859 12.818 
15.5013 32.7169 10.7567 14.7945 31.9888 10.9393 14.1136 31.3287 11.2154 
13.611 30.9114 11.8978 13.3217 30.8335 13.0542 13.1204 30.9917 14.3246 
12.9229 31.1404 15.3767 12.8352 31.1242 16.2629 12.9996 30.9967 17.1299 
22.8204 39.0396 7.27974 22.1843 39.3186 6.81067 21.5469 39.4892 6.22708 
20.9116 39.6203 5.69992 20.1963 39.9129 5.49914 19.3635 40.398 5.67999 
18.4915 40.8574 5.99485 17.6828 41.1526 6.22928 16.9963 41.3636 6.42081 
23.5596 38.0944 8.03743 23.677 37.4529 8.52069 23.837 36.8046 9.07654 
24.1227 36.0531 9.64139 24.4423 35.1618 10.2113 24.6203 34.3044 10.8606 
24.6386 33.6619 11.5913 24.6175 33.1756 12.3 24.6357 32.691 12.9263 
23.5613 39.4594 7.35524 23.7203 40.2383 7.03146 23.8699 41.1505 6.76388 
23.9638 42.2174 6.65534 23.9781 43.3417 6.70327 24.0467 44.4131 6.75549 
24.2957 45.3695 6.69976 24.5885 46.1299 6.66899 24.6807 46.6265 6.90585 
24.0449 38.8807 7.81819 24.7116 39.0554 8.09177 25.3274 39.3121 8.61853 
25.9147 39.5996 9.34531 26.5659 39.7834 10.0205 27.279 39.8755 10.6125 
27.9121 40.0561 11.355 28.3818 40.3598 12.2576 28.7657 40.6055 13.0543 
15.0328 39.8712 18.8264 15.8042 40.2398 18.4467 16.8078 40.5803 17.8564 
17.9546 40.9265 17.2191 19.0008 41.2441 16.6668 19.8825 41.5258 16.1666 
20.825 41.8246 15.6683 21.9495 42.1638 15.2417 23.0725 42.5091 14.9595 
14.1633 39.9983 18.9284 13.8921 40.4404 18.6991 13.7273 40.9331 18.1693 
13.7864 41.6426 17.384 13.9945 42.4345 16.5039 14.1746 43.0938 15.643 
14.3204 43.6397 14.8288 14.555 44.164 14.0844 14.9074 44.6294 13.4284 
15.0691 38.9521 18.8699 15.8334 38.3868 18.7153 16.6626 37.8272 18.4936 
17.5215 37.3586 18.1478 18.4644 36.973 17.7339 19.6045 36.6057 17.4345 
20.9119 36.2404 17.3299 22.1641 35.9478 17.3517 23.1808 35.7928 17.4488 
13.7286 39.2087 18.8766 13.1215 38.7743 18.4644 12.5656 38.1418 17.7729 
11.891 37.5907 17.1059 10.9925 37.3854 16.6962 10.0512 37.472 16.3628 
9.35748 37.6141 15.7637 8.99832 37.684 14.8612 8.8894 37.6712 13.908 
14.1636 38.4673 18.9371 13.8142 37.2463 18.923 13.4407 36.008 18.9517 
13.1284 34.9669 18.9496 12.8868 33.9887 18.9142 12.7156 32.8845 18.986 
12.6742 31.8424 19.1433 12.7992 31.1809 19.0973 13.0575 30.9316 18.654 
23.2808 43.1193 14.4499 22.4915 43.3705 14.0893 21.5921 43.6161 13.7429 
20.6489 43.925 13.4877 19.7437 44.3426 13.4192 18.8669 44.8034 13.5101 
17.9397 45.1384 13.5724 16.9618 45.2331 13.4565 16.0465 45.1353 13.1803 
24.1585 42.2922 15.2107 24.3694 41.6999 15.6271 24.5827 41.1236 16.0404 
24.7523 40.6029 16.4695 24.8642 39.9864 16.8474 24.9257 39.0612 17.0021 
24.8787 37.924 16.9089 24.6571 36.9262 16.8409 24.3126 36.2411 17.0813 
24.2428 43.3621 14.426 24.3686 43.9669 13.9768 24.4227 44.623 13.4364 
24.5391 45.3107 12.8705 24.7449 46.0006 12.3231 24.9334 46.5955 11.68 
25.0077 46.9538 10.7808 24.9504 47.0415 9.64985 24.7778 46.9765 8.48562 
24.8249 42.8025 14.9241 25.7133 42.7951 15.105 26.6985 42.9303 15.4066 
27.7683 43.1765 15.8119 28.7965 43.2147 16.0243 29.6164 42.7899 15.7002 
30.0638 42.0875 14.9424 30.0492 41.4666 14.216 29.6713 41.0314 13.8002 
16.2534 42.3354 6.88416 16.1169 43.0695 7.27196 15.9755 43.7082 7.72506 
15.7352 44.2678 8.11966 15.4157 44.7702 8.58375 15.1607 45.1131 9.3427 
15.0616 45.2055 10.3525 15.0828 45.1352 11.3542 15.1673 45.0461 12.1826 
16.9377 42.3704 6.32741 17.6513 43.0936 6.08329 18.5121 43.7698 5.9105 
19.3295 44.5978 5.66609 20.0551 45.6449 5.30371 20.8442 46.5773 5.05023 
21.7817 47.0373 5.22239 22.7691 47.0751 5.8546 23.6935 46.9683 6.68925 
15.9396 41.2458 7.27011 15.3972 40.8765 8.02429 14.7201 40.4157 8.83899 
13.8912 39.7931 9.56761 12.9768 39.085 10.203 11.9802 38.506 10.8232 
10.9104 38.1804 11.4223 9.94349 38.0197 11.9671 9.28315 37.8525 12.5128 
16.1281 45.3573 12.4311 16.9527 45.7659 11.9103 17.7258 46.228 11.3006 
18.5609 46.6894 10.7062 19.5782 46.991 10.1668 20.6863 47.0622 9.6016 
21.7314 47.0379 8.96523 22.7169 47.0419 8.3365 23.6734 47.0251 7.82304 
14.441 44.6189 12.821 13.7206 44.1482 12.7927 13.1894 43.3902 12.7689 
12.7442 42.2889 12.8003 12.217 41.0936 12.9474 11.4972 40.1345 13.1569 
10.6097 39.4606 13.2674 9.75516 38.8904 13.2246 9.17851 38.2762 13.144 
25.0095 32.0238 14.2357 25.2616 31.9336 15.1771 25.3982 31.9955 16.1737 
25.4302 32.2274 16.9558 25.3572 32.6206 17.4822 25.1382 33.2222 17.9519 
24.8 34.0173 18.3602 24.4632 34.8099 18.4467 24.2 35.3955 18.1272 
25.1838 32.7809 13.5805 25.7313 33.4619 13.6676 26.2519 34.2306 13.7283 
26.702 35.1756 13.7073 27.1514 36.3165 13.6839 27.6274 37.4619 13.7969 
28.0395 38.418 13.9799 28.3811 39.2202 14.0213 28.754 39.976 13.8596 
24.3997 31.5431 13.834 23.9608 31.0461 14.1759 23.138 30.8808 14.5547 
21.8329 31.001 14.9899 20.2588 31.0806 15.4153 18.7152 30.9461 15.7612 
17.2823 30.7979 16.1177 15.9042 30.809 16.6306 14.5881 30.8861 17.2838 
24.9482 36.136 17.5667 26.0217 36.7288 17.8635 27.0412 37.3853 18.4033 
27.9662 37.8488 18.6925 28.8491 38.0479 18.2449 29.5474 38.2397 17.1301 
29.8022 38.7049 15.8863 29.6483 39.4192 14.9184 29.3744 40.1374 14.2232 
23.2556 35.3177 18.2136 22.5879 34.8114 18.7413 21.7684 34.1596 18.7213 
20.6055 33.493 18.0876 19.2715 32.9579 17.461 18.1185 32.4409 17.4424 
17.1236 31.8176 17.8763 15.99 31.2528 18.2122 14.6709 30.9554 18.196 
25.4236 46.6884 7.76642 26.2117 46.3914 8.07441 26.6988 45.9151 8.54361 
26.8789 45.1042 9.26939 27.0917 43.9593 10.1342 27.6875 42.8324 10.9432 
28.5111 42.0898 11.6638 29.0963 41.6672 12.3608 29.256 41.2444 13.0292 
8.90218 36.7992 13.6422 8.9583 35.7456 14.2574 8.94024 34.5038 14.9291 
8.80854 33.2451 15.643 8.76742 32.1498 16.4005 9.04667 31.3698 17.1215 
9.71391 30.9791 17.6662 10.7315 30.8873 17.9576 12.011 30.9032 18.0186 
16.9842 34.3475 9.75062 17.0231 35.002 9.39197 17.7134 34.6142 9.08632 
17.0035 35.7485 8.96193 17.7405 35.3048 8.68464 18.4794 34.8543 8.35539 
16.9525 36.6916 8.43245 17.6896 36.1691 8.19544 18.469 35.6197 7.9425 
19.3967 35.1516 7.69694 16.9407 37.7123 7.91712 17.613 37.2182 7.64031 
18.3846 36.5997 7.45558 19.3154 36.0653 7.32015 20.3434 35.6594 7.22206 
16.9764 38.6173 7.52557 17.6019 38.2595 7.19865 18.3295 37.7028 6.95941 
19.2085 37.1571 6.88235 20.1889 36.7638 6.90208 21.1237 36.466 7.01689 
16.9937 39.4607 7.1741 17.6415 39.2103 6.89816 18.3745 38.7786 6.58997 
19.2031 38.2657 6.41464 20.085 37.9003 6.47909 20.9553 37.6685 6.72032 
21.7343 37.4448 7.06756 16.9771 40.3886 6.77674 17.6637 40.171 6.58242 
18.4505 39.8272 6.2996 19.2939 39.3375 6.00822 20.1148 38.9285 5.96284 
20.8771 38.726 6.2582 21.6027 38.5757 6.73269 22.2831 38.3495 7.20977 
15.2071 34.1687 10.4508 14.104 34.3146 10.6411 15.1757 34.8211 10.1028 
13.0957 34.5085 10.9382 14.0582 34.9519 10.2275 15.1669 35.4669 9.68645 
12.3093 34.7925 11.3879 13.0973 35.1536 10.469 14.1151 35.6091 9.77305 
15.241 36.291 9.24765 11.594 35.2169 11.8323 12.3375 35.5177 10.8741 
13.2132 35.8943 9.97999 14.2951 36.5238 9.36902 15.4026 37.3061 8.83485 
10.8054 35.8106 12.0753 11.6051 36.0564 11.2682 12.4637 36.3833 10.3322 
13.4495 36.9448 9.59313 14.5645 37.6633 9.03941 15.598 38.3169 8.45325 
10.051 36.5238 12.1499 10.8634 36.7073 11.5129 11.8052 36.9773 10.7093 
12.7794 37.4939 9.94471 13.8225 38.181 9.33147 14.8781 38.7965 8.72613 
15.7558 39.2598 8.04781 9.52078 37.2384 12.2545 10.2705 37.3893 11.6989 
11.2695 37.5847 11.058 12.3077 38.0169 10.3717 13.3061 38.6865 9.73875 
14.2891 39.3565 9.1058 15.1697 39.8515 8.37416 15.8536 40.2346 7.62049 
9.7024 38.5246 12.5088 10.4578 39.182 12.5612 10.5683 38.7281 11.9395 
11.3213 39.9267 12.4875 11.374 39.5438 11.8902 11.6327 39.0144 11.3415 
12.0375 40.9132 12.2126 12.0483 40.5871 11.615 12.3093 40.0572 11.1379 
12.6679 39.5078 10.6761 12.5692 42.1611 11.9375 12.4933 41.9029 11.1931 
12.7158 41.3721 10.6947 13.1775 40.7215 10.3478 13.5982 40.2023 9.98335 
13.046 43.3834 11.8722 12.904 43.2671 10.9557 12.998 42.8347 10.2531 
13.4604 42.1318 9.85582 14.0365 41.4641 9.58426 14.4437 40.9406 9.23848 
13.606 44.243 11.9752 13.4726 44.2871 11.0183 13.4599 44.0732 10.1006 
13.7802 43.5036 9.46462 14.3508 42.796 9.11485 14.8481 42.1677 8.80123 
15.1532 41.5579 8.39811 14.3255 44.7254 12.1009 14.2278 44.8357 11.2025 
14.1925 44.8208 10.1948 14.3645 44.5121 9.318 14.7772 43.9509 8.76244 
15.2242 43.3372 8.39828 15.5228 42.7165 7.99196 15.7198 42.0091 7.56116 
16.8098 43.1147 6.59788 16.7352 43.8168 7.05157 17.6022 43.8048 6.44762 
16.6308 44.4374 7.50455 17.5446 44.4986 6.91279 18.4803 44.5273 6.29217 
16.4355 44.9843 7.92651 17.4068 45.1542 7.34363 18.3499 45.2848 6.7201 
19.2433 45.4587 5.97198 16.1978 45.3964 8.56748 17.197 45.7062 7.88131 
18.119 45.9583 7.24614 19.0236 46.1731 6.45754 19.9355 46.4208 5.59768 
16.0206 45.561 9.56047 16.9882 46.0173 8.76898 17.8784 46.4321 8.07837 
18.7604 46.6606 7.3171 19.7229 46.8198 6.37149 20.7614 47.0011 5.55295 
[...]
POINT_DATA 1002
FIELD FieldData 4
_paraPhi 1 1002 double
6.2831853072 3.1415926536 6.2831853072 3.1415926536 4.7123889804 4.7123889804 1.5707963268 1.5707963268 3.6951670125 
5.7296109483 2.5880182947 0.5535743589 6.2831853072 6.2831853072 6.2831853072 6.2831853072 3.1415926536 3.1415926536 
3.1415926536 3.1415926536 3.1415926536 6.1053039672 5.898798347 5.6768734901 5.4599499503 5.2659633393 5.1032165617 
4.9713148346 4.8656852733 4.7809517865 0.17788134 0.38438696014 0.60631181711 0.82323535693 1.0172219679 1.1799687454 
1.3118704726 1.4175000338 1.5022335207 6.1892828907 6.1070320098 6.035312792 5.9728339911 5.9183214791 5.8706119594 
5.8286879411 5.7916808611 5.7588591896 0.093902416448 0.17615329733 0.2478725152 0.31035131605 0.36486382811 0.41257334776 
0.45449736604 0.4915044461 0.52432611754 3.3194739936 3.5259796137 3.7479044707 3.9648280105 4.1588146215 4.321561399 
4.4534631262 4.5590926874 4.6438261743 2.9637113136 2.7572056934 2.5352808365 2.3183572967 2.1243706857 1.9616239082 
1.829722181 1.7240926197 1.6393591329 3.23549507 3.3177459509 3.3894651688 3.4519439696 3.5064564817 3.5541660013 
3.5960900196 3.6330970997 3.6659187711 3.0476902371 2.9654393563 2.8937201384 2.8312413375 2.7767288255 2.7290193058 
2.6870952876 2.6500882075 2.617266536 6.2831853072 6.2831853072 6.2831853072 6.2831853072 3.1415926536 3.1415926536 
3.1415926536 3.1415926536 3.1415926536 6.1053039672 5.898798347 5.6768734901 5.4599499503 5.2659633393 5.1032165617 
4.9713148346 4.8656852733 4.7809517865 0.17788134 0.38438696014 0.60631181711 0.82323535693 1.0172219679 1.1799687454 
1.3118704726 1.4175000338 1.5022335207 6.1892828907 6.1070320098 6.035312792 5.9728339911 5.9183214791 5.8706119594 
5.8286879411 5.7916808611 5.7588591896 0.093902416448 0.17615329733 0.2478725152 0.31035131605 0.36486382811 0.41257334776 
0.45449736604 0.4915044461 0.52432611754 3.3194739936 3.5259796137 3.7479044707 3.9648280105 4.1588146215 4.321561399 
4.4534631262 4.5590926874 4.6438261743 2.9637113136 2.7572056934 2.5352808365 2.3183572967 2.1243706857 1.9616239082 
1.829722181 1.7240926197 1.6393591329 3.23549507 3.3177459509 3.3894651688 3.4519439696 3.5064564817 3.5541660013 
3.5960900196 3.6330970997 3.6659187711 3.0476902371 2.9654393563 2.8937201384 2.8312413375 2.7767288255 2.7290193058 
2.6870952876 2.6500882075 2.617266536 4.7123889804 4.7123889804 4.7123889804 4.7123889804 4.7123889804 4.7123889804 
4.7123889804 4.7123889804 4.7123889804 4.6087898617 4.4991390697 4.3857031936 4.2712800401 4.1588146215 4.0509635631 
3.94975894 3.8564636551 3.7716124825 4.8159880991 4.9256388911 5.0390747672 5.1534979207 5.2659633393 5.3738143976 
5.4750190208 5.5683143056 5.6531654782 4.6087898617 4.4991390697 4.3857031936 4.2712800401 4.1588146215 4.0509635631 
3.94975894 3.8564636551 3.7716124825 4.8159880991 4.9256388911 5.0390747672 5.1534979207 5.2659633393 5.3738143976 
5.4750190208 5.5683143056 5.6531654782 1.5707963268 1.5707963268 1.5707963268 1.5707963268 1.5707963268 1.5707963268 
1.5707963268 1.5707963268 1.5707963268 1.6743954455 1.7840462375 1.8974821136 2.0119052671 2.1243706857 2.232221744 
2.3334263672 2.426721652 2.5115728246 1.4671972081 1.3575464161 1.24411054 1.1296873865 1.0172219679 0.90937090954 
0.80816628637 0.71487100155 0.63001982895 1.6743954455 1.7840462375 1.8974821136 2.0119052671 2.1243706857 2.232221744 
2.3334263672 2.426721652 2.5115728246 1.4671972081 1.3575464161 1.24411054 1.1296873865 1.0172219679 0.90937090954 
0.80816628637 0.71487100155 0.63001982895 3.6007720849 3.4966939854 3.3839471039 3.2645756454 3.1415926536 3.0186096618 
2.8992382033 2.7864913217 2.6824132222 5.8240058758 5.9280839753 6.0408308569 6.1602023154 6.2831853072 0.12298299178 
0.2423544503 0.35510133185 0.45917943135 6.0560271438 5.7885595667 5.9702140275 5.5125918794 5.6029703303 5.7885595667 
5.2659633393 5.2659633393 5.2659633393 5.2659633393 5.0674903122 5.0120975802 4.9155579264 4.7123889804 4.1588146215 
4.9155579264 4.8353719722 4.7123889804 4.5092200343 4.1588146215 3.6362183941 4.8004512023 4.7123889804 4.5894059886 
4.4126803806 4.1588146215 3.8218076305 3.4545639333 4.7123889804 4.6243267584 4.5092200343 4.3572876485 4.1588146215 
3.9121860814 3.6362183941 3.368750817 6.0174235957 5.9434319871 5.8263323547 5.8809213739 5.7674481418 5.6279784266 
5.8278025282 5.718968232 5.5891129425 5.4372443565 5.7823484065 5.678536687 5.5575666702 5.4192596322 5.2659633393 
5.743164462 5.6444075337 5.5314983644 5.4046708639 5.2659633393 5.1195510325 5.7091357773 5.6152775188 5.5096229709 
5.3926039573 5.2659633393 5.1329233157 4.9978930058 5.6793730533 5.5901633916 5.4910209005 5.3824597928 5.2659633393 
5.1440684722 5.0201624502 4.8979782167 5.5683143056 5.4750190208 5.4750190208 5.3738143976 5.3738143976 5.3738143976 
5.2659633393 5.2659633393 5.2659633393 5.2659633393 5.1534979207 5.1534979207 5.1534979207 5.1534979207 5.1534979207 
5.0390747672 5.0390747672 5.0390747672 5.0390747672 5.0390747672 5.0390747672 4.9256388911 4.9256388911 4.9256388911 
4.9256388911 4.9256388911 4.9256388911 4.9256388911 4.8159880991 4.8159880991 4.8159880991 4.8159880991 4.8159880991 
4.8159880991 4.8159880991 4.8159880991 4.6087898617 4.6087898617 4.4991390697 4.6087898617 4.4991390697 4.3857031936 
4.6087898617 4.4991390697 4.3857031936 4.2712800401 4.6087898617 4.4991390697 4.3857031936 4.2712800401 4.1588146215 
4.6087898617 4.4991390697 4.3857031936 4.2712800401 4.1588146215 4.0509635631 4.6087898617 4.4991390697 4.3857031936 
4.2712800401 4.1588146215 4.0509635631 3.94975894 4.6087898617 4.4991390697 4.3857031936 4.2712800401 4.1588146215 
4.0509635631 3.94975894 3.8564636551 4.526799744 4.4046155105 4.426884955 4.2807094886 4.2918546451 4.3052269283 
4.1588146215 4.1588146215 4.1588146215 4.1588146215 4.042318168 4.0321740035 4.0201070968 4.0055183285 3.9875336042 
3.9337570603 3.9151549899 3.8932795963 3.8672112905 3.8356650183 3.7967995342 3.8346145692 3.809500442 3.7803704271 
3.7462412737 3.7058097288 3.657329819 3.5984456061 3.7454049075 3.7156421835 3.6816134988 3.6424295543 3.5969754326 
3.5438565869 3.4813459737 3.4073543651 3.5642842451 3.4524645613 3.5233842518 3.3320300872 3.403123212 3.4773852225 
3.20576226 3.2746326772 3.348015857 3.4255060145 3.0774230472 3.1415926536 3.2112816139 3.2864685043 3.3668817272 
2.95115522 3.00855263 3.0719036933 3.1415926536 3.2178377658 3.3005964304 2.8307207459 2.8800620952 2.9351694502 
2.9967168029 3.0653475414 3.1415926536 3.225752376 2.718901062 2.7598010554 2.8058000847 2.8576792927 2.91630358 
2.9825888767 3.0574329311 3.1415926536 3.5642842451 3.5233842518 3.4524645613 3.4773852225 3.403123212 3.3320300872 
3.4255060145 3.348015857 3.2746326772 3.20576226 3.3668817272 3.2864685043 3.2112816139 3.1415926536 3.0774230472 
3.3005964304 3.2178377658 3.1415926536 3.0719036933 3.00855263 2.95115522 3.225752376 3.1415926536 3.0653475414 
2.9967168029 2.9351694502 2.8800620952 2.8307207459 3.1415926536 3.0574329311 2.9825888767 2.91630358 2.8576792927 
2.8058000847 2.7598010554 2.718901062 4.526799744 4.426884955 4.4046155105 4.3052269283 4.2918546451 4.2807094886 
4.1588146215 4.1588146215 4.1588146215 4.1588146215 3.9875336042 4.0055183285 4.0201070968 4.0321740035 4.042318168 
3.7967995342 3.8356650183 3.8672112905 3.8932795963 3.9151549899 3.9337570603 3.5984456061 3.657329819 3.7058097288 
3.7462412737 3.7803704271 3.809500442 3.8346145692 3.4073543651 3.4813459737 3.5438565869 3.5969754326 3.6424295543 
3.6816134988 3.7156421835 3.7454049075 4.7123889804 4.8004512023 4.6243267584 4.9155579264 4.7123889804 4.5092200343 
5.0674903122 4.8353719722 4.5894059886 4.3572876485 5.2659633393 5.0120975802 4.7123889804 4.4126803806 4.1588146215 
5.5125918794 5.2659633393 4.9155579264 4.5092200343 4.1588146215 3.9121860814 5.7885595667 5.6029703303 5.2659633393 
4.7123889804 4.1588146215 3.8218076305 3.6362183941 6.0560271438 5.9702140275 5.7885595667 5.2659633393 4.1588146215 
3.6362183941 3.4545639333 3.368750817 0.22715816343 0.49462574053 0.3129712797 0.77059342779 0.68021497688 0.49462574053 
1.0172219679 1.0172219679 1.0172219679 1.0172219679 1.2156949949 1.271087727 1.3676273807 1.5707963268 2.1243706857 
1.3676273807 1.447813335 1.5707963268 1.7739652728 2.1243706857 2.6469669131 1.4827341049 1.5707963268 1.6937793186 
1.8705049266 2.1243706857 2.4613776767 2.8286213739 1.5707963268 1.6588585487 1.7739652728 1.9258976586 2.1243706857 
2.3709992258 2.6469669131 2.9144344902 1.7563855631 1.8785697967 1.8563003522 2.0024758186 1.9913306621 1.9779583789 
2.1243706857 2.1243706857 2.1243706857 2.1243706857 2.2408671392 2.2510113037 2.2630782103 2.2776669786 2.295651703 
2.3494282469 2.3680303173 2.3899057108 2.4159740166 2.4475202889 2.486385773 2.448570738 2.4736848652 2.5028148801 
2.5369440334 2.5773755784 2.6258554882 2.6847397011 2.5377803997 2.5675431237 2.6015718084 2.6407557529 2.6862098746 
2.7393287203 2.8018393335 2.8758309421 1.6743954455 1.6743954455 1.7840462375 1.6743954455 1.7840462375 1.8974821136 
1.6743954455 1.7840462375 1.8974821136 2.0119052671 1.6743954455 1.7840462375 1.8974821136 2.0119052671 2.1243706857 
1.6743954455 1.7840462375 1.8974821136 2.0119052671 2.1243706857 2.232221744 1.6743954455 1.7840462375 1.8974821136 
2.0119052671 2.1243706857 2.232221744 2.3334263672 1.6743954455 1.7840462375 1.8974821136 2.0119052671 2.1243706857 
2.232221744 2.3334263672 2.426721652 1.4671972081 1.3575464161 1.4671972081 1.24411054 1.3575464161 1.4671972081 
1.1296873865 1.24411054 1.3575464161 1.4671972081 1.0172219679 1.1296873865 1.24411054 1.3575464161 1.4671972081 
0.90937090954 1.0172219679 1.1296873865 1.24411054 1.3575464161 1.4671972081 0.80816628637 0.90937090954 1.0172219679 
1.1296873865 1.24411054 1.3575464161 1.4671972081 0.71487100155 0.80816628637 0.90937090954 1.0172219679 1.1296873865 
1.24411054 1.3575464161 1.4671972081 0.60381225391 0.57404952988 0.69302191562 0.54002084522 0.66790778838 0.79216440667 
0.50083690068 0.63877777351 0.77356233629 0.90072551443 0.45538277901 0.60464862014 0.75168694275 0.89058134991 1.0172219679 
0.40226393329 0.56421707518 0.72561863695 0.87851444325 1.0172219679 1.139116835 0.33975332011 0.51573716537 0.69407236469 
0.86392567495 1.0172219679 1.1502619915 1.2630228569 0.26576171152 0.45685295248 0.6552068806 0.84594095064 1.0172219679 
1.1636342747 1.2852923014 1.3852070904 0.22715816343 0.3129712797 0.49462574053 0.49462574053 0.68021497688 0.77059342779 
1.0172219679 1.0172219679 1.0172219679 1.0172219679 2.1243706857 1.5707963268 1.3676273807 1.271087727 1.2156949949 
2.6469669131 2.1243706857 1.7739652728 1.5707963268 1.447813335 1.3676273807 2.8286213739 2.4613776767 2.1243706857 
1.8705049266 1.6937793186 1.5707963268 1.4827341049 2.9144344902 2.6469669131 2.3709992258 2.1243706857 1.9258976586 
1.7739652728 1.6588585487 1.5707963268 1.7563855631 1.8563003522 1.8785697967 1.9779583789 1.9913306621 2.0024758186 
2.1243706857 2.1243706857 2.1243706857 2.1243706857 2.295651703 2.2776669786 2.2630782103 2.2510113037 2.2408671392 
2.486385773 2.4475202889 2.4159740166 2.3899057108 2.3680303173 2.3494282469 2.6847397011 2.6258554882 2.5773755784 
2.5369440334 2.5028148801 2.4736848652 2.448570738 2.8758309421 2.8018393335 2.7393287203 2.6862098746 2.6407557529 
2.6015718084 2.5675431237 2.5377803997 5.8604937156 5.901393709 5.9723133995 5.9473927383 6.0216547488 6.0927478736 
5.9992719463 6.0767621038 6.1501452836 6.2190157008 6.0578962336 6.1383094565 6.2134963469 0 0.064169606361 
6.1241815303 6.206940195 6.2831853072 0.069688960264 0.13304002361 0.19043743361 6.1990255847 0 0.07624511221 
0.14487585072 0.20642320337 0.26153055843 0.3108719077 0 0.084159722458 0.15900377685 0.22528907359 0.28391336087 
0.3357925689 0.38179159818 0.42269159155 5.8604937156 5.9723133995 5.901393709 6.0927478736 6.0216547488 5.9473927383 
6.2190157008 6.1501452836 6.0767621038 5.9992719463 0.064169606361 0 6.2134963469 6.1383094565 6.0578962336 
0.19043743361 0.13304002361 0.069688960264 6.2831853072 6.206940195 6.1241815303 0.3108719077 0.26153055843 0.20642320337 
0.14487585072 0.07624511221 6.2831853072 6.1990255847 0.42269159155 0.38179159818 0.3357925689 0.28391336087 0.22528907359 
0.15900377685 0.084159722458 0 5.6793730533 5.7091357773 5.5901633916 5.743164462 5.6152775188 5.4910209005 
5.7823484065 5.6444075337 5.5096229709 5.3824597928 5.8278025282 5.678536687 5.5314983644 5.3926039573 5.2659633393 
5.8809213739 5.718968232 5.5575666702 5.4046708639 5.2659633393 5.1440684722 5.9434319871 5.7674481418 5.5891129425 
5.4192596322 5.2659633393 5.1329233157 5.0201624502 6.0174235957 5.8263323547 5.6279784266 5.4372443565 5.2659633393 
5.1195510325 4.9978930058 4.8979782167 1.3852070904 1.2852923014 1.2630228569 1.1636342747 1.1502619915 1.139116835 
1.0172219679 1.0172219679 1.0172219679 1.0172219679 0.84594095064 0.86392567495 0.87851444325 0.89058134991 0.90072551443 
0.6552068806 0.69407236469 0.72561863695 0.75168694275 0.77356233629 0.79216440667 0.45685295248 0.51573716537 0.56421707518 
0.60464862014 0.63877777351 0.66790778838 0.69302191562 0.26576171152 0.33975332011 0.40226393329 0.45538277901 0.50083690068 
0.54002084522 0.57404952988 0.60381225391 
_paraPhiHalf 1 1002 double
0 3.1415926536 0 3.1415926536 1.5707963268 1.5707963268 1.5707963268 1.5707963268 2.5880182947 
0.5535743589 2.5880182947 0.5535743589 0 0 0 0 3.1415926536 3.1415926536 
3.1415926536 3.1415926536 3.1415926536 0.17788134 0.38438696014 0.60631181711 0.82323535693 1.0172219679 1.1799687454 
1.3118704726 1.4175000338 1.5022335207 0.17788134 0.38438696014 0.60631181711 0.82323535693 1.0172219679 1.1799687454 
1.3118704726 1.4175000338 1.5022335207 0.093902416448 0.17615329733 0.2478725152 0.31035131605 0.36486382811 0.41257334776 
0.45449736604 0.4915044461 0.52432611754 0.093902416448 0.17615329733 0.2478725152 0.31035131605 0.36486382811 0.41257334776 
0.45449736604 0.4915044461 0.52432611754 2.9637113136 2.7572056934 2.5352808365 2.3183572967 2.1243706857 1.9616239082 
1.829722181 1.7240926197 1.6393591329 2.9637113136 2.7572056934 2.5352808365 2.3183572967 2.1243706857 1.9616239082 
1.829722181 1.7240926197 1.6393591329 3.0476902371 2.9654393563 2.8937201384 2.8312413375 2.7767288255 2.7290193058 
2.6870952876 2.6500882075 2.617266536 3.0476902371 2.9654393563 2.8937201384 2.8312413375 2.7767288255 2.7290193058 
2.6870952876 2.6500882075 2.617266536 0 0 0 0 3.1415926536 3.1415926536 
3.1415926536 3.1415926536 3.1415926536 0.17788134 0.38438696014 0.60631181711 0.82323535693 1.0172219679 1.1799687454 
1.3118704726 1.4175000338 1.5022335207 0.17788134 0.38438696014 0.60631181711 0.82323535693 1.0172219679 1.1799687454 
1.3118704726 1.4175000338 1.5022335207 0.093902416448 0.17615329733 0.2478725152 0.31035131605 0.36486382811 0.41257334776 
0.45449736604 0.4915044461 0.52432611754 0.093902416448 0.17615329733 0.2478725152 0.31035131605 0.36486382811 0.41257334776 
0.45449736604 0.4915044461 0.52432611754 2.9637113136 2.7572056934 2.5352808365 2.3183572967 2.1243706857 1.9616239082 
1.829722181 1.7240926197 1.6393591329 2.9637113136 2.7572056934 2.5352808365 2.3183572967 2.1243706857 1.9616239082 
1.829722181 1.7240926197 1.6393591329 3.0476902371 2.9654393563 2.8937201384 2.8312413375 2.7767288255 2.7290193058 
2.6870952876 2.6500882075 2.617266536 3.0476902371 2.9654393563 2.8937201384 2.8312413375 2.7767288255 2.7290193058 
2.6870952876 2.6500882075 2.617266536 1.5707963268 1.5707963268 1.5707963268 1.5707963268 1.5707963268 1.5707963268 
1.5707963268 1.5707963268 1.5707963268 1.6743954455 1.7840462375 1.8974821136 2.0119052671 2.1243706857 2.232221744 
2.3334263672 2.426721652 2.5115728246 1.4671972081 1.3575464161 1.24411054 1.1296873865 1.0172219679 0.90937090954 
0.80816628637 0.71487100155 0.63001982895 1.6743954455 1.7840462375 1.8974821136 2.0119052671 2.1243706857 2.232221744 
2.3334263672 2.426721652 2.5115728246 1.4671972081 1.3575464161 1.24411054 1.1296873865 1.0172219679 0.90937090954 
0.80816628637 0.71487100155 0.63001982895 1.5707963268 1.5707963268 1.5707963268 1.5707963268 1.5707963268 1.5707963268 
1.5707963268 1.5707963268 1.5707963268 1.6743954455 1.7840462375 1.8974821136 2.0119052671 2.1243706857 2.232221744 
2.3334263672 2.426721652 2.5115728246 1.4671972081 1.3575464161 1.24411054 1.1296873865 1.0172219679 0.90937090954 
0.80816628637 0.71487100155 0.63001982895 1.6743954455 1.7840462375 1.8974821136 2.0119052671 2.1243706857 2.232221744 
2.3334263672 2.426721652 2.5115728246 1.4671972081 1.3575464161 1.24411054 1.1296873865 1.0172219679 0.90937090954 
0.80816628637 0.71487100155 0.63001982895 2.6824132222 2.7864913217 2.8992382033 3.0186096618 3.1415926536 3.0186096618 
2.8992382033 2.7864913217 2.6824132222 0.45917943135 0.35510133185 0.2423544503 0.12298299178 0 0.12298299178 
0.2423544503 0.35510133185 0.45917943135 0.22715816343 0.49462574053 0.3129712797 0.77059342779 0.68021497688 0.49462574053 
1.0172219679 1.0172219679 1.0172219679 1.0172219679 1.2156949949 1.271087727 1.3676273807 1.5707963268 2.1243706857 
1.3676273807 1.447813335 1.5707963268 1.7739652728 2.1243706857 2.6469669131 1.4827341049 1.5707963268 1.6937793186 
1.8705049266 2.1243706857 2.4613776767 2.8286213739 1.5707963268 1.6588585487 1.7739652728 1.9258976586 2.1243706857 
2.3709992258 2.6469669131 2.9144344902 0.26576171152 0.33975332011 0.45685295248 0.40226393329 0.51573716537 0.6552068806 
0.45538277901 0.56421707518 0.69407236469 0.84594095064 0.50083690068 0.60464862014 0.72561863695 0.86392567495 1.0172219679 
0.54002084522 0.63877777351 0.75168694275 0.87851444325 1.0172219679 1.1636342747 0.57404952988 0.66790778838 0.77356233629 
0.89058134991 1.0172219679 1.1502619915 1.2852923014 0.60381225391 0.69302191562 0.79216440667 0.90072551443 1.0172219679 
1.139116835 1.2630228569 1.3852070904 0.71487100155 0.80816628637 0.80816628637 0.90937090954 0.90937090954 0.90937090954 
1.0172219679 1.0172219679 1.0172219679 1.0172219679 1.1296873865 1.1296873865 1.1296873865 1.1296873865 1.1296873865 
1.24411054 1.24411054 1.24411054 1.24411054 1.24411054 1.24411054 1.3575464161 1.3575464161 1.3575464161 
1.3575464161 1.3575464161 1.3575464161 1.3575464161 1.4671972081 1.4671972081 1.4671972081 1.4671972081 1.4671972081 
1.4671972081 1.4671972081 1.4671972081 1.6743954455 1.6743954455 1.7840462375 1.6743954455 1.7840462375 1.8974821136 
1.6743954455 1.7840462375 1.8974821136 2.0119052671 1.6743954455 1.7840462375 1.8974821136 2.0119052671 2.1243706857 
1.6743954455 1.7840462375 1.8974821136 2.0119052671 2.1243706857 2.232221744 1.6743954455 1.7840462375 1.8974821136 
2.0119052671 2.1243706857 2.232221744 2.3334263672 1.6743954455 1.7840462375 1.8974821136 2.0119052671 2.1243706857 
2.232221744 2.3334263672 2.426721652 1.7563855631 1.8785697967 1.8563003522 2.0024758186 1.9913306621 1.9779583789 
2.1243706857 2.1243706857 2.1243706857 2.1243706857 2.2408671392 2.2510113037 2.2630782103 2.2776669786 2.295651703 
2.3494282469 2.3680303173 2.3899057108 2.4159740166 2.4475202889 2.486385773 2.448570738 2.4736848652 2.5028148801 
2.5369440334 2.5773755784 2.6258554882 2.6847397011 2.5377803997 2.5675431237 2.6015718084 2.6407557529 2.6862098746 
2.7393287203 2.8018393335 2.8758309421 2.718901062 2.8307207459 2.7598010554 2.95115522 2.8800620952 2.8058000847 
3.0774230472 3.00855263 2.9351694502 2.8576792927 3.0774230472 3.1415926536 3.0719036933 2.9967168029 2.91630358 
2.95115522 3.00855263 3.0719036933 3.1415926536 3.0653475414 2.9825888767 2.8307207459 2.8800620952 2.9351694502 
2.9967168029 3.0653475414 3.1415926536 3.0574329311 2.718901062 2.7598010554 2.8058000847 2.8576792927 2.91630358 
2.9825888767 3.0574329311 3.1415926536 2.718901062 2.7598010554 2.8307207459 2.8058000847 2.8800620952 2.95115522 
2.8576792927 2.9351694502 3.00855263 3.0774230472 2.91630358 2.9967168029 3.0719036933 3.1415926536 3.0774230472 
2.9825888767 3.0653475414 3.1415926536 3.0719036933 3.00855263 2.95115522 3.0574329311 3.1415926536 3.0653475414 