# vtk DataFile Version 5.1
vtk output
ASCII
DATASET POLYDATA
POINTS 1002 float
11.3221 34.5497 15.9353 20.4872 40.7143 15.2238 14.5472 30.226 9.60471 
22.7635 37.4765 8.72517 18.7547 34.1958 18.0599 20.8329 30.9604 13.4948 
13.0303 40.2222 11.4219 15.108 38.2964 7.34589 25.7208 40.8304 14.8105 
11.5818 27.9324 15.6454 22.2477 44.4924 10.7072 7.36684 32.8745 10.7835 
11.7624 35.3333 16.0937 12.3472 36.1399 16.2234 13.1766 36.8685 16.1921 
14.2947 37.4333 15.9627 15.61 37.8789 15.6798 16.9112 38.353 15.488 
18.0127 38.9379 15.3929 18.8982 39.5835 15.3469 19.6892 40.1947 15.3056 
11.6548 34.4239 16.2516 12.0834 34.2478 16.5893 12.685 34.074 16.9295 
13.5299 34.0132 17.1118 14.576 34.1053 17.055 15.6188 34.2426 17.0126 
16.4787 34.3033 17.2633 17.2037 34.2802 17.6917 17.9496 34.2308 17.9939 
11.2803 35.1035 15.6526 11.2569 35.6736 15.2694 11.2299 36.3671 14.8393 
11.2109 37.2143 14.4112 11.2661 38.0784 13.9401 11.4468 38.7959 13.3747 
11.7393 39.3245 12.7766 12.1142 39.702 12.2454 12.5559 39.9813 11.805 
11.1207 33.6524 15.998 10.9432 32.6504 16.0778 10.7792 31.7072 16.1441 
10.5924 30.9123 16.1983 10.3465 30.1386 16.3763 10.0881 29.2812 16.7509 
9.99751 28.5115 17.0493 10.2553 28.0547 16.9125 10.846 27.9113 16.3443 
10.8558 34.1448 15.6199 10.3002 33.7493 15.2148 9.67067 33.3854 14.7162 
9.02803 33.0726 14.228 8.40177 32.8659 13.8363 7.79439 32.8372 13.43 
7.28381 32.9471 12.8402 7.0178 33.0338 12.0957 7.06991 32.9951 11.3708 
20.4717 40.3255 15.6822 20.4058 39.8585 16.1443 20.2332 39.3519 16.605 
19.926 38.7887 17.1772 19.5641 38.1155 17.9234 19.2721 37.3564 18.5891 
19.0835 36.5816 18.8151 18.9522 35.7932 18.6121 18.8453 34.9792 18.2931 
19.9662 40.7188 14.8143 19.4141 40.6543 14.3411 18.7847 40.5989 13.8639 
17.9722 40.6126 13.4765 16.9647 40.6446 13.2002 15.9266 40.5972 12.9137 
15.0356 40.4601 12.5261 14.3108 40.3132 12.1106 13.6623 40.2308 11.7512 
21.3699 40.9452 15.3415 22.3295 41.1462 15.4056 23.1819 41.4635 15.5834 
23.8271 42.0165 16.0363 24.4198 42.5754 16.5838 25.1015 42.6896 16.7778 
25.6833 42.2775 16.4497 25.9198 41.6929 15.8585 25.8629 41.2124 15.2869 
21.0246 41.2249 14.8708 21.5735 41.7657 14.5216 22.0258 42.3614 14.2025 
22.3508 43.0112 13.9022 22.5905 43.6357 13.5821 22.7268 44.1209 13.1707 
22.7039 44.4288 12.6047 22.5653 44.588 11.9275 22.4041 44.6097 11.2673 
15.4596 30.5578 9.36431 16.3477 31.0655 9.20982 17.1153 31.8653 9.27084 
17.8299 32.8893 9.40686 18.7058 33.9045 9.34938 19.823 34.7295 9.07131 
20.9591 35.3845 8.77188 21.8309 36.0134 8.59908 22.384 36.7159 8.58859 
15.3177 30.0382 9.86675 16.1917 29.8789 10.1637 17.0072 29.7535 10.4395 
17.7351 29.6555 10.7519 18.5248 29.5828 11.2038 19.4016 29.5724 11.7214 
20.1278 29.6935 12.1576 20.5268 29.9889 12.5485 20.6961 30.4357 13.0016 
14.4914 30.6513 9.24802 14.5492 31.2293 8.94851 14.5951 31.9966 8.69907 
14.5594 32.8646 8.41085 14.5685 33.7711 8.12844 14.7555 34.7926 8.01265 
15.0105 35.9179 8.02169 15.1396 36.9346 7.93139 15.1307 37.701 7.66536 
14.1148 29.7527 9.90891 13.7851 29.1478 10.058 13.5118 28.5145 10.1617 
13.1678 28.0922 10.5595 12.7437 27.9784 11.4194 12.3716 28.0091 12.4474 
12.1136 28.0208 13.2966 11.9107 28.0052 14.0094 11.7244 27.9801 14.7884 
13.562 30.1561 9.58177 12.5652 30.0016 9.4408 11.5265 29.7611 9.15622 
10.4198 29.6346 8.95269 9.44359 29.8251 9.12114 8.85853 30.2861 9.61813 
8.56424 30.8627 10.1092 8.23223 31.5094 10.4027 7.77491 32.2078 10.5804 
22.8155 36.9213 9.08708 22.9482 36.2612 9.4796 23.0541 35.4723 9.86132 
22.9404 34.675 10.2822 22.5527 34.0533 10.8438 22.0467 33.597 11.5327 
21.5925 33.0823 12.1905 21.2471 32.3829 12.7022 21.0033 31.6161 13.1057 
22.4959 37.569 8.31461 22.0259 37.7698 8.08171 21.2039 38.0641 8.07944 
20.1662 38.3109 8.08944 19.2859 38.3339 7.81394 18.6583 38.1549 7.31462 
17.9642 38.0153 6.95843 17.0121 38.0688 6.93286 15.9842 38.2182 7.12102 
23.156 37.9701 9.185 23.695 38.527 9.69964 24.4133 39.0528 10.1949 
25.1444 39.4575 10.7134 25.6585 39.7308 11.3627 25.9218 39.9662 12.1564 
26.0481 40.2444 12.9836 26.0691 40.5279 13.7201 25.9503 40.7324 14.3179 
23.0239 38.3397 8.68945 23.3697 39.3594 8.76393 23.6535 40.5279 8.9382 
23.7163 41.6696 9.15766 23.6084 42.5223 9.40408 23.4897 43.0621 9.70047 
23.3547 43.5157 10.0085 23.0912 43.9824 10.259 22.6919 44.3408 10.4688 
19.2582 33.7367 17.9366 19.7885 33.3452 17.7796 20.1506 33.0406 17.4369 
20.2407 32.7635 16.8181 20.214 32.4398 16.0898 20.2977 32.0521 15.5138 
20.5067 31.6343 15.0937 20.7056 31.2607 14.6361 20.8123 31.0223 14.0712 
19.6333 34.6538 18.0225 20.4973 35.1671 17.8039 21.3347 35.7411 17.5752 
22.194 36.3882 17.4066 23.0109 37.1748 17.1607 23.6084 38.1478 16.7122 
24.0143 39.1688 16.137 24.479 39.9871 15.5918 25.1002 40.5048 15.1532 
18.0985 33.4275 17.8062 17.3203 32.5795 17.3939 16.509 31.6474 16.9896 
15.7609 30.6229 16.8788 15.0781 29.5609 17.1533 14.3871 28.6421 17.5124 
13.6492 28.0702 17.5406 12.8989 27.8712 17.1086 12.1967 27.8823 16.3957 
21.2502 31.854 13.733 21.9871 32.6659 13.9581 22.8514 33.36 14.1519 
23.5415 34.1457 14.324 23.94 35.3095 14.4464 24.1764 36.8312 14.4607 
24.4241 38.3359 14.4074 24.7735 39.4857 14.4232 25.2289 40.256 14.5754 
20.6765 30.0447 13.6412 20.668 29.1687 13.8689 20.5848 28.4343 14.1251 
20.0131 27.9461 14.366 18.6975 27.7957 14.6253 16.928 27.9118 14.9171 
15.2591 28.0533 15.1646 13.901 28.0659 15.3235 12.7113 27.9922 15.4574 
12.9546 40.3549 10.8977 12.9368 40.4331 10.1977 12.9892 40.4731 9.44069 
13.1125 40.478 8.81593 13.3416 40.3693 8.36094 13.6841 40.0457 7.94689 
14.0447 39.5516 7.55582 14.3556 39.0566 7.32385 14.6835 38.6523 7.29133 
13.9003 40.5849 11.2955 14.7527 41.2268 11.1972 15.5744 42.0003 11.0627 
16.3823 42.6702 10.9065 17.2099 43.1609 10.8054 18.1434 43.5456 10.7513 
19.2225 43.8711 10.6825 20.3329 44.1401 10.6248 21.344 44.3525 10.638 
12.0282 40.1621 11.3302 10.9569 40.0847 11.2489 10.1143 39.6006 11.1409 
9.76136 38.4813 11.0293 9.69654 37.0482 10.9601 9.35122 35.8689 10.8938 
8.54477 35.097 10.7762 7.72793 34.459 10.6732 7.34025 33.7215 10.6807 
15.6613 38.9222 6.97821 16.4231 39.7709 6.83363 17.3947 40.8437 6.93791 
18.3633 41.9355 7.12205 19.0865 42.7822 7.29574 19.5945 43.3068 7.6472 
20.1199 43.6437 8.34718 20.7817 43.9396 9.24695 21.522 44.231 10.0708 
14.2981 37.8888 7.73867 13.3428 37.2933 7.97105 12.1883 36.5572 7.86749 
10.991 35.8486 7.58762 10.0046 35.2765 7.56356 9.28302 34.7801 8.01092 
8.69196 34.2712 8.73558 8.15633 33.762 9.48139 7.70475 33.2971 10.1649 
26.3063 41.44 14.7689 26.7026 42.3557 14.6554 26.9345 43.5468 14.3755 
27.1556 44.6564 13.892 27.2689 45.2877 13.2343 26.881 45.3965 12.504 
25.8614 45.222 11.8678 24.5469 44.9683 11.4163 23.3033 44.7164 11.0702 
10.5031 27.9433 15.3853 9.38525 27.946 15.2547 8.36907 27.922 15.1487 
7.54377 27.9604 14.7093 6.95884 28.2576 13.7454 6.73033 28.9274 12.6396 
6.8748 29.8863 11.898 7.14331 30.9589 11.5181 7.29767 31.9898 11.1924 
12.1768 35.3049 16.4501 12.7648 35.2324 16.7881 12.9306 36.1914 16.5979 
13.5827 35.1539 17.0222 13.7398 36.2128 16.9026 13.9834 36.9307 16.5277 
14.5954 35.14 17.0928 14.7171 36.1986 17.0864 14.97 36.9713 16.7942 
15.2851 37.4508 16.2397 15.6534 35.1846 17.1874 15.7114 36.156 17.2946 
15.9418 36.9515 17.0777 16.3125 37.4707 16.5363 16.6558 37.8832 15.9506 
16.5842 35.2041 17.5506 16.6173 36.083 17.7605 16.767 36.8645 17.5946 
17.1509 37.4685 17.0176 17.5931 37.9408 16.3452 17.8753 38.4214 15.8191 
17.3568 35.1572 18.05 17.4282 35.9892 18.3649 17.5183 36.7522 18.2972 
17.8167 37.44 17.7171 18.2932 38.0302 16.9335 18.6808 38.5607 16.2899 
18.8473 39.0882 15.8036 18.0846 35.0706 18.3342 18.193 35.8927 18.7017 
18.2921 36.6607 18.7859 18.5016 37.4026 18.3344 18.8931 38.1003 17.5378 
19.3189 38.7077 16.8042 19.5795 39.2503 16.26 19.6657 39.7574 15.7843 
11.491 33.4042 16.3282 11.3715 32.3725 16.5086 11.9443 33.1506 16.7616 
11.2713 31.5139 16.7556 11.8624 32.1926 17.1509 12.5736 33.0055 17.2177 
11.1361 30.7519 16.9897 11.8033 31.457 17.6169 12.5183 32.1853 17.7315 
13.4732 33.0563 17.3667 10.9531 29.8422 17.2407 11.7234 30.643 17.9259 
12.481 31.4811 18.1797 13.4291 32.2921 17.732 14.5544 33.2214 17.1223 
10.8494 28.8535 17.4859 11.6766 29.559 18.0399 12.4714 30.5182 18.2976 
13.3837 31.4619 17.9201 14.4671 32.3658 17.2328 15.5586 33.3388 16.9285 
11.0239 28.1453 17.4813 11.8311 28.5447 17.9841 12.6192 29.3604 18.1626 
13.4539 30.3913 17.8372 14.4096 31.3998 17.2452 15.4311 32.3821 16.9162 
16.3904 33.3702 17.1272 11.5244 27.8724 17.0657 12.2755 27.9905 17.6744 
13.0368 28.4748 17.9151 13.7956 29.3477 17.6689 14.5904 30.3974 17.1801 
15.4481 31.4392 16.9039 16.3434 32.4391 17.0693 17.2021 33.3845 17.5254 
13.4027 27.9554 16.2188 14.7353 28.009 16.0372 14.2032 27.9618 16.902 
16.2863 27.9307 15.841 15.6808 28.0174 16.6859 15.0382 28.2173 17.2529 
17.9898 27.8026 15.608 17.258 27.9971 16.4802 16.5339 28.3857 16.9965 
15.7741 28.9108 17.1512 19.4146 27.9207 15.3399 18.6355 28.1245 16.2147 
17.871 28.6249 16.7169 17.1288 29.3024 16.8632 16.3835 29.975 16.8688 
20.1774 28.4505 15.0363 19.4936 28.6588 15.8543 18.7825 29.1374 16.3202 
18.1887 29.8422 16.5121 17.6199 30.546 16.6789 17.0163 31.1159 16.8693 
20.4165 29.2594 14.6863 19.9118 29.5264 15.4303 19.3329 29.9654 15.8688 
18.9132 30.5622 16.1055 18.6371 31.1912 16.4439 18.2781 31.6978 16.9031 
17.7809 32.1143 17.2532 20.5459 30.1517 14.3373 20.2466 30.4481 14.9983 
19.8486 30.8736 15.4507 19.547 31.3605 15.7733 19.4518 31.8462 16.2377 
19.379 32.2564 16.873 19.0789 32.5944 17.4146 18.5808 32.9638 17.7006 
20.196 34.2121 17.8616 20.6863 33.8363 17.7367 21.0142 34.764 17.6363 
20.9476 33.54 17.4126 21.4088 34.4101 17.523 21.7476 35.401 17.3439 
21.0146 33.2588 16.7273 21.6572 34.0783 17.165 22.0846 35.0593 17.1104 
22.4952 36.1334 16.981 21.0805 32.9285 15.8872 21.8636 33.7057 16.4263 
22.4218 34.6354 16.6665 22.8037 35.8026 16.5603 23.1668 37.0287 16.518 
21.2112 32.5534 15.2192 22.0657 33.307 15.5863 22.762 34.1335 15.9849 
23.184 35.3053 16.1048 23.406 36.7401 16.0095 23.6262 38.0929 15.9899 
[...]
POINT_DATA 1002
FIELD FieldData 4
_paraPhi 1 1002 double
6.2831853072 3.1415926536 6.2831853072 3.1415926536 4.7123889804 4.7123889804 1.5707963268 1.5707963268 3.6951670125 
5.7296109483 2.5880182947 0.5535743589 6.2831853072 6.2831853072 6.2831853072 6.2831853072 3.1415926536 3.1415926536 
3.1415926536 3.1415926536 3.1415926536 6.1053039672 5.898798347 5.6768734901 5.4599499503 5.2659633393 5.1032165617 
4.9713148346 4.8656852733 4.7809517865 0.17788134 0.38438696014 0.60631181711 0.82323535693 1.0172219679 1.1799687454 
1.3118704726 1.4175000338 1.5022335207 6.1892828907 6.1070320098 6.035312792 5.9728339911 5.9183214791 5.8706119594 
5.8286879411 5.7916808611 5.7588591896 0.093902416448 0.17615329733 0.2478725152 0.31035131605 0.36486382811 0.41257334776 
0.45449736604 0.4915044461 0.52432611754 3.3194739936 3.5259796137 3.7479044707 3.9648280105 4.1588146215 4.321561399 
4.4534631262 4.5590926874 4.6438261743 2.9637113136 2.7572056934 2.5352808365 2.3183572967 2.1243706857 1.9616239082 
1.829722181 1.7240926197 1.6393591329 3.23549507 3.3177459509 3.3894651688 3.4519439696 3.5064564817 3.5541660013 
3.5960900196 3.6330970997 3.6659187711 3.0476902371 2.9654393563 2.8937201384 2.8312413375 2.7767288255 2.7290193058 
2.6870952876 2.6500882075 2.617266536 6.2831853072 6.2831853072 6.2831853072 6.2831853072 3.1415926536 3.1415926536 
3.1415926536 3.1415926536 3.1415926536 6.1053039672 5.898798347 5.6768734901 5.4599499503 5.2659633393 5.1032165617 
4.9713148346 4.8656852733 4.7809517865 0.17788134 0.38438696014 0.60631181711 0.82323535693 1.0172219679 1.1799687454 
1.3118704726 1.4175000338 1.5022335207 6.1892828907 6.1070320098 6.035312792 5.9728339911 5.9183214791 5.8706119594 
5.8286879411 5.7916808611 5.7588591896 0.093902416448 0.17615329733 0.2478725152 0.31035131605 0.36486382811 0.41257334776 
0.45449736604 0.4915044461 0.52432611754 3.3194739936 3.5259796137 3.7479044707 3.9648280105 4.1588146215 4.321561399 
4.4534631262 4.5590926874 4.6438261743 2.9637113136 2.7572056934 2.5352808365 2.3183572967 2.1243706857 1.9616239082 
1.829722181 1.7240926197 1.6393591329 3.23549507 3.3177459509 3.3894651688 3.4519439696 3.5064564817 3.5541660013 
3.5960900196 3.6330970997 3.6659187711 3.0476902371 2.9654393563 2.8937201384 2.8312413375 2.7767288255 2.7290193058 
2.6870952876 2.6500882075 2.617266536 4.7123889804 4.7123889804 4.7123889804 4.7123889804 4.7123889804 4.7123889804 
4.7123889804 4.7123889804 4.7123889804 4.6087898617 4.4991390697 4.3857031936 4.2712800401 4.1588146215 4.0509635631 
3.94975894 3.8564636551 3.7716124825 4.8159880991 4.9256388911 5.0390747672 5.1534979207 5.2659633393 5.3738143976 
5.4750190208 5.5683143056 5.6531654782 4.6087898617 4.4991390697 4.3857031936 4.2712800401 4.1588146215 4.0509635631 
3.94975894 3.8564636551 3.7716124825 4.8159880991 4.9256388911 5.0390747672 5.1534979207 5.2659633393 5.3738143976 
5.4750190208 5.5683143056 5.6531654782 1.5707963268 1.5707963268 1.5707963268 1.5707963268 1.5707963268 1.5707963268 
1.5707963268 1.5707963268 1.5707963268 1.6743954455 1.7840462375 1.8974821136 2.0119052671 2.1243706857 2.232221744 
2.3334263672 2.426721652 2.5115728246 1.4671972081 1.3575464161 1.24411054 1.1296873865 1.0172219679 0.90937090954 
0.80816628637 0.71487100155 0.63001982895 1.6743954455 1.7840462375 1.8974821136 2.0119052671 2.1243706857 2.232221744 
2.3334263672 2.426721652 2.5115728246 1.4671972081 1.3575464161 1.24411054 1.1296873865 1.0172219679 0.90937090954 
0.80816628637 0.71487100155 0.63001982895 3.6007720849 3.4966939854 3.3839471039 3.2645756454 3.1415926536 3.0186096618 
2.8992382033 2.7864913217 2.6824132222 5.8240058758 5.9280839753 6.0408308569 6.1602023154 6.2831853072 0.12298299178 
0.2423544503 0.35510133185 0.45917943135 6.0560271438 5.7885595667 5.9702140275 5.5125918794 5.6029703303 5.7885595667 
5.2659633393 5.2659633393 5.2659633393 5.2659633393 5.0674903122 5.0120975802 4.9155579264 4.7123889804 4.1588146215 
4.9155579264 4.8353719722 4.7123889804 4.5092200343 4.1588146215 3.6362183941 4.8004512023 4.7123889804 4.5894059886 
4.4126803806 4.1588146215 3.8218076305 3.4545639333 4.7123889804 4.6243267584 4.5092200343 4.3572876485 4.1588146215 
3.9121860814 3.6362183941 3.368750817 6.0174235957 5.9434319871 5.8263323547 5.8809213739 5.7674481418 5.6279784266 
5.8278025282 5.718968232 5.5891129425 5.4372443565 5.7823484065 5.678536687 5.5575666702 5.4192596322 5.2659633393 
5.743164462 5.6444075337 5.5314983644 5.4046708639 5.2659633393 5.1195510325 5.7091357773 5.6152775188 5.5096229709 
5.3926039573 5.2659633393 5.1329233157 4.9978930058 5.6793730533 5.5901633916 5.4910209005 5.3824597928 5.2659633393 
5.1440684722 5.0201624502 4.8979782167 5.5683143056 5.4750190208 5.4750190208 5.3738143976 5.3738143976 5.3738143976 
5.2659633393 5.2659633393 5.2659633393 5.2659633393 5.1534979207 5.1534979207 5.1534979207 5.1534979207 5.1534979207 
5.0390747672 5.0390747672 5.0390747672 5.0390747672 5.0390747672 5.0390747672 4.9256388911 4.9256388911 4.9256388911 
4.9256388911 4.9256388911 4.9256388911 4.9256388911 4.8159880991 4.8159880991 4.8159880991 4.8159880991 4.8159880991 
4.8159880991 4.8159880991 4.8159880991 4.6087898617 4.6087898617 4.4991390697 4.6087898617 4.4991390697 4.3857031936 
4.6087898617 4.4991390697 4.3857031936 4.2712800401 4.6087898617 4.4991390697 4.3857031936 4.2712800401 4.1588146215 
4.6087898617 4.4991390697 4.3857031936 4.2712800401 4.1588146215 4.0509635631 4.6087898617 4.4991390697 4.3857031936 
4.2712800401 4.1588146215 4.0509635631 3.94975894 4.6087898617 4.4991390697 4.3857031936 4.2712800401 4.1588146215 
4.0509635631 3.94975894 3.8564636551 4.526799744 4.4046155105 4.426884955 4.2807094886 4.2918546451 4.3052269283 
4.1588146215 4.1588146215 4.1588146215 4.1588146215 4.042318168 4.0321740035 4.0201070968 4.0055183285 3.9875336042 
3.9337570603 3.9151549899 3.8932795963 3.8672112905 3.8356650183 3.7967995342 3.8346145692 3.809500442 3.7803704271 
3.7462412737 3.7058097288 3.657329819 3.5984456061 3.7454049075 3.7156421835 3.6816134988 3.6424295543 3.5969754326 
3.5438565869 3.4813459737 3.4073543651 3.5642842451 3.4524645613 3.5233842518 3.3320300872 3.403123212 3.4773852225 
3.20576226 3.2746326772 3.348015857 3.4255060145 3.0774230472 3.1415926536 3.2112816139 3.2864685043 3.3668817272 
2.95115522 3.00855263 3.0719036933 3.1415926536 3.2178377658 3.3005964304 2.8307207459 2.8800620952 2.9351694502 
2.9967168029 3.0653475414 3.1415926536 3.225752376 2.718901062 2.7598010554 2.8058000847 2.8576792927 2.91630358 
2.9825888767 3.0574329311 3.1415926536 3.5642842451 3.5233842518 3.4524645613 3.4773852225 3.403123212 3.3320300872 
3.4255060145 3.348015857 3.2746326772 3.20576226 3.3668817272 3.2864685043 3.2112816139 3.1415926536 3.0774230472 
3.3005964304 3.2178377658 3.1415926536 3.0719036933 3.00855263 2.95115522 3.225752376 3.1415926536 3.0653475414 
2.9967168029 2.9351694502 2.8800620952 2.8307207459 3.1415926536 3.0574329311 2.9825888767 2.91630358 2.8576792927 
2.8058000847 2.7598010554 2.718901062 4.526799744 4.426884955 4.4046155105 4.3052269283 4.2918546451 4.2807094886 
4.1588146215 4.1588146215 4.1588146215 4.1588146215 3.9875336042 4.0055183285 4.0201070968 4.0321740035 4.042318168 
3.7967995342 3.8356650183 3.8672112905 3.8932795963 3.9151549899 3.9337570603 3.5984456061 3.657329819 3.7058097288 
3.7462412737 3.7803704271 3.809500442 3.8346145692 3.4073543651 3.4813459737 3.5438565869 3.5969754326 3.6424295543 
3.6816134988 3.7156421835 3.7454049075 4.7123889804 4.8004512023 4.6243267584 4.9155579264 4.7123889804 4.5092200343 
5.0674903122 4.8353719722 4.5894059886 4.3572876485 5.2659633393 5.0120975802 4.7123889804 4.4126803806 4.1588146215 
5.5125918794 5.2659633393 4.9155579264 4.5092200343 4.1588146215 3.9121860814 5.7885595667 5.6029703303 5.2659633393 
4.7123889804 4.1588146215 3.8218076305 3.6362183941 6.0560271438 5.9702140275 5.7885595667 5.2659633393 4.1588146215 
3.6362183941 3.4545639333 3.368750817 0.22715816343 0.49462574053 0.3129712797 0.77059342779 0.68021497688 0.49462574053 
1.0172219679 1.0172219679 1.0172219679 1.0172219679 1.2156949949 1.271087727 1.3676273807 1.5707963268 2.1243706857 
1.3676273807 1.447813335 1.5707963268 1.7739652728 2.1243706857 2.6469669131 1.4827341049 1.5707963268 1.6937793186 
1.8705049266 2.1243706857 2.4613776767 2.8286213739 1.5707963268 1.6588585487 1.7739652728 1.9258976586 2.1243706857 
2.3709992258 2.6469669131 2.9144344902 1.7563855631 1.8785697967 1.8563003522 2.0024758186 1.9913306621 1.9779583789 
2.1243706857 2.1243706857 2.1243706857 2.1243706857 2.2408671392 2.2510113037 2.2630782103 2.2776669786 2.295651703 
2.3494282469 2.3680303173 2.3899057108 2.4159740166 2.4475202889 2.486385773 2.448570738 2.4736848652 2.5028148801 
2.5369440334 2.5773755784 2.6258554882 2.6847397011 2.5377803997 2.5675431237 2.6015718084 2.6407557529 2.6862098746 
2.7393287203 2.8018393335 2.8758309421 1.6743954455 1.6743954455 1.7840462375 1.6743954455 1.7840462375 1.8974821136 
1.6743954455 1.7840462375 1.8974821136 2.0119052671 1.6743954455 1.7840462375 1.8974821136 2.0119052671 2.1243706857 
1.6743954455 1.7840462375 1.8974821136 2.0119052671 2.1243706857 2.232221744 1.6743954455 1.7840462375 1.8974821136 
2.0119052671 2.1243706857 2.232221744 2.3334263672 1.6743954455 1.7840462375 1.8974821136 2.0119052671 2.1243706857 
2.232221744 2.3334263672 2.426721652 1.4671972081 1.3575464161 1.4671972081 1.24411054 1.3575464161 1.4671972081 
1.1296873865 1.24411054 1.3575464161 1.4671972081 1.0172219679 1.1296873865 1.24411054 1.3575464161 1.4671972081 
0.90937090954 1.0172219679 1.1296873865 1.24411054 1.3575464161 1.4671972081 0.80816628637 0.90937090954 1.0172219679 
1.1296873865 1.24411054 1.3575464161 1.4671972081 0.71487100155 0.80816628637 0.90937090954 1.0172219679 1.1296873865 
1.24411054 1.3575464161 1.4671972081 0.60381225391 0.57404952988 0.69302191562 0.54002084522 0.66790778838 0.79216440667 
0.50083690068 0.63877777351 0.77356233629 0.90072551443 0.45538277901 0.60464862014 0.75168694275 0.89058134991 1.0172219679 
0.40226393329 0.56421707518 0.72561863695 0.87851444325 1.0172219679 1.139116835 0.33975332011 0.51573716537 0.69407236469 
0.86392567495 1.0172219679 1.1502619915 1.2630228569 0.26576171152 0.45685295248 0.6552068806 0.84594095064 1.0172219679 
1.1636342747 1.2852923014 1.3852070904 0.22715816343 0.3129712797 0.49462574053 0.49462574053 0.68021497688 0.77059342779 
1.0172219679 1.0172219679 1.0172219679 1.0172219679 2.1243706857 1.5707963268 1.3676273807 1.271087727 1.2156949949 
2.6469669131 2.1243706857 1.7739652728 1.5707963268 1.447813335 1.3676273807 2.8286213739 2.4613776767 2.1243706857 
1.8705049266 1.6937793186 1.5707963268 1.4827341049 2.9144344902 2.6469669131 2.3709992258 2.1243706857 1.9258976586 
1.7739652728 1.6588585487 1.5707963268 1.7563855631 1.8563003522 1.8785697967 1.9779583789 1.9913306621 2.0024758186 
2.1243706857 2.1243706857 2.1243706857 2.1243706857 2.295651703 2.2776669786 2.2630782103 2.2510113037 2.2408671392 
2.486385773 2.4475202889 2.4159740166 2.3899057108 2.3680303173 2.3494282469 2.6847397011 2.6258554882 2.5773755784 
2.5369440334 2.5028148801 2.4736848652 2.448570738 2.8758309421 2.8018393335 2.7393287203 2.6862098746 2.6407557529 
2.6015718084 2.5675431237 2.5377803997 5.8604937156 5.901393709 5.9723133995 5.9473927383 6.0216547488 6.0927478736 
5.9992719463 6.0767621038 6.1501452836 6.2190157008 6.0578962336 6.1383094565 6.2134963469 0 0.064169606361 
6.1241815303 6.206940195 6.2831853072 0.069688960264 0.13304002361 0.19043743361 6.1990255847 0 0.07624511221 
0.14487585072 0.20642320337 0.26153055843 0.3108719077 0 0.084159722458 0.15900377685 0.22528907359 0.28391336087 
0.3357925689 0.38179159818 0.42269159155 5.8604937156 5.9723133995 5.901393709 6.0927478736 6.0216547488 5.9473927383 
6.2190157008 6.1501452836 6.0767621038 5.9992719463 0.064169606361 0 6.2134963469 6.1383094565 6.0578962336 
0.19043743361 0.13304002361 0.069688960264 6.2831853072 6.206940195 6.1241815303 0.3108719077 0.26153055843 0.20642320337 
0.14487585072 0.07624511221 6.2831853072 6.1990255847 0.42269159155 0.38179159818 0.3357925689 0.28391336087 0.22528907359 
0.15900377685 0.084159722458 0 5.6793730533 5.7091357773 5.5901633916 5.743164462 5.6152775188 5.4910209005 
5.7823484065 5.6444075337 5.5096229709 5.3824597928 5.8278025282 5.678536687 5.5314983644 5.3926039573 5.2659633393 
5.8809213739 5.718968232 5.5575666702 5.4046708639 5.2659633393 5.1440684722 5.9434319871 5.7674481418 5.5891129425 
5.4192596322 5.2659633393 5.1329233157 5.0201624502 6.0174235957 5.8263323547 5.6279784266 5.4372443565 5.2659633393 
5.1195510325 4.9978930058 4.8979782167 1.3852070904 1.2852923014 1.2630228569 1.1636342747 1.1502619915 1.139116835 
1.0172219679 1.0172219679 1.0172219679 1.0172219679 0.84594095064 0.86392567495 0.87851444325 0.89058134991 0.90072551443 
0.6552068806 0.69407236469 0.72561863695 0.75168694275 0.77356233629 0.79216440667 0.45685295248 0.51573716537 0.56421707518 
0.60464862014 0.63877777351 0.66790778838 0.69302191562 0.26576171152 0.33975332011 0.40226393329 0.45538277901 0.50083690068 
0.54002084522 0.57404952988 0.60381225391 
_paraPhiHalf 1 1002 double
0 3.1415926536 0 3.1415926536 1.5707963268 1.5707963268 1.5707963268 1.5707963268 2.5880182947 
0.5535743589 2.5880182947 0.5535743589 0 0 0 0 3.1415926536 3.1415926536 
3.1415926536 3.1415926536 3.1415926536 0.17788134 0.38438696014 0.60631181711 0.82323535693 1.0172219679 1.1799687454 
1.3118704726 1.4175000338 1.5022335207 0.17788134 0.38438696014 0.60631181711 0.82323535693 1.0172219679 1.1799687454 
1.3118704726 1.4175000338 1.5022335207 0.093902416448 0.17615329733 0.2478725152 0.31035131605 0.36486382811 0.41257334776 
0.45449736604 0.4915044461 0.52432611754 0.093902416448 0.17615329733 0.2478725152 0.31035131605 0.36486382811 0.41257334776 
0.45449736604 0.4915044461 0.52432611754 2.9637113136 2.7572056934 2.5352808365 2.3183572967 2.1243706857 1.9616239082 
1.829722181 1.7240926197 1.6393591329 2.9637113136 2.7572056934 2.5352808365 2.3183572967 2.1243706857 1.9616239082 
1.829722181 1.7240926197 1.6393591329 3.0476902371 2.9654393563 2.8937201384 2.8312413375 2.7767288255 2.7290193058 
2.6870952876 2.6500882075 2.617266536 3.0476902371 2.9654393563 2.8937201384 2.8312413375 2.7767288255 2.7290193058 
2.6870952876 2.6500882075 2.617266536 0 0 0 0 3.1415926536 3.1415926536 
3.1415926536 3.1415926536 3.1415926536 0.17788134 0.38438696014 0.60631181711 0.82323535693 1.0172219679 1.1799687454 
1.3118704726 1.4175000338 1.5022335207 0.17788134 0.38438696014 0.60631181711 0.82323535693 1.0172219679 1.1799687454 
1.3118704726 1.4175000338 1.5022335207 0.093902416448 0.17615329733 0.2478725152 0.31035131605 0.36486382811 0.41257334776 
0.45449736604 0.4915044461 0.52432611754 0.093902416448 0.17615329733 0.2478725152 0.31035131605 0.36486382811 0.41257334776 
0.45449736604 0.4915044461 0.52432611754 2.9637113136 2.7572056934 2.5352808365 2.3183572967 2.1243706857 1.9616239082 
1.829722181 1.7240926197 1.6393591329 2.9637113136 2.7572056934 2.5352808365 2.3183572967 2.1243706857 1.9616239082 
1.829722181 1.7240926197 1.6393591329 3.0476902371 2.9654393563 2.8937201384 2.8312413375 2.7767288255 2.7290193058 
2.6870952876 2.6500882075 2.617266536 3.0476902371 2.9654393563 2.8937201384 2.8312413375 2.7767288255 2.7290193058 
2.6870952876 2.6500882075 2.617266536 1.5707963268 1.5707963268 1.5707963268 1.5707963268 1.5707963268 1.5707963268 
1.5707963268 1.5707963268 1.5707963268 1.6743954455 1.7840462375 1.8974821136 2.0119052671 2.1243706857 2.232221744 
2.3334263672 2.426721652 2.5115728246 1.4671972081 1.3575464161 1.24411054 1.1296873865 1.0172219679 0.90937090954 
0.80816628637 0.71487100155 0.63001982895 1.6743954455 1.7840462375 1.8974821136 2.0119052671 2.1243706857 2.232221744 
2.3334263672 2.426721652 2.5115728246 1.4671972081 1.3575464161 1.24411054 1.1296873865 1.0172219679 0.90937090954 
0.80816628637 0.71487100155 0.63001982895 1.5707963268 1.5707963268 1.5707963268 1.5707963268 1.5707963268 1.5707963268 
1.5707963268 1.5707963268 1.5707963268 1.6743954455 1.7840462375 1.8974821136 2.0119052671 2.1243706857 2.232221744 
2.3334263672 2.426721652 2.5115728246 1.4671972081 1.3575464161 1.24411054 1.1296873865 1.0172219679 0.90937090954 
0.80816628637 0.71487100155 0.63001982895 1.6743954455 1.7840462375 1.8974821136 2.0119052671 2.1243706857 2.232221744 
2.3334263672 2.426721652 2.5115728246 1.4671972081 1.3575464161 1.24411054 1.1296873865 1.0172219679 0.90937090954 
0.80816628637 0.71487100155 0.63001982895 2.6824132222 2.7864913217 2.8992382033 3.0186096618 3.1415926536 3.0186096618 
2.8992382033 2.7864913217 2.6824132222 0.45917943135 0.35510133185 0.2423544503 0.12298299178 0 0.12298299178 
0.2423544503 0.35510133185 0.45917943135 0.22715816343 0.49462574053 0.3129712797 0.77059342779 0.68021497688 0.49462574053 
1.0172219679 1.0172219679 1.0172219679 1.0172219679 1.2156949949 1.271087727 1.3676273807 1.5707963268 2.1243706857 
1.3676273807 1.447813335 1.5707963268 1.7739652728 2.1243706857 2.6469669131 1.4827341049 1.5707963268 1.6937793186 
1.8705049266 2.1243706857 2.4613776767 2.8286213739 1.5707963268 1.6588585487 1.7739652728 1.9258976586 2.1243706857 
2.3709992258 2.6469669131 2.9144344902 0.26576171152 0.33975332011 0.45685295248 0.40226393329 0.51573716537 0.6552068806 
0.45538277901 0.56421707518 0.69407236469 0.84594095064 0.50083690068 0.60464862014 0.72561863695 0.86392567495 1.0172219679 
0.54002084522 0.63877777351 0.75168694275 0.87851444325 1.0172219679 1.1636342747 0.57404952988 0.66790778838 0.77356233629 
0.89058134991 1.0172219679 1.1502619915 1.2852923014 0.60381225391 0.69302191562 0.79216440667 0.90072551443 1.0172219679 
1.139116835 1.2630228569 1.3852070904 0.71487100155 0.80816628637 0.80816628637 0.90937090954 0.90937090954 0.90937090954 
1.0172219679 1.0172219679 1.0172219679 1.0172219679 1.1296873865 1.1296873865 1.1296873865 1.1296873865 1.1296873865 
1.24411054 1.24411054 1.24411054 1.24411054 1.24411054 1.24411054 1.3575464161 1.3575464161 1.3575464161 
1.3575464161 1.3575464161 1.3575464161 1.3575464161 1.4671972081 1.4671972081 1.4671972081 1.4671972081 1.4671972081 
1.4671972081 1.4671972081 1.4671972081 1.6743954455 1.6743954455 1.7840462375 1.6743954455 1.7840462375 1.8974821136 
1.6743954455 1.7840462375 1.8974821136 2.0119052671 1.6743954455 1.7840462375 1.8974821136 2.0119052671 2.1243706857 
1.6743954455 1.7840462375 1.8974821136 2.0119052671 2.1243706857 2.232221744 1.6743954455 1.7840462375 1.8974821136 
2.0119052671 2.1243706857 2.232221744 2.3334263672 1.6743954455 1.7840462375 1.8974821136 2.0119052671 2.1243706857 
2.232221744 2.3334263672 2.426721652 1.7563855631 1.8785697967 1.8563003522 2.0024758186 1.9913306621 1.9779583789 
2.1243706857 2.1243706857 2.1243706857 2.1243706857 2.2408671392 2.2510113037 2.2630782103 2.2776669786 2.295651703 
2.3494282469 2.3680303173 2.3899057108 2.4159740166 2.4475202889 2.486385773 2.448570738 2.4736848652 2.5028148801 
2.5369440334 2.5773755784 2.6258554882 2.6847397011 2.5377803997 2.5675431237 2.6015718084 2.6407557529 2.6862098746 
2.7393287203 2.8018393335 2.8758309421 2.718901062 2.8307207459 2.7598010554 2.95115522 2.8800620952 2.8058000847 
3.0774230472 3.00855263 2.9351694502 2.8576792927 3.0774230472 3.1415926536 3.0719036933 2.9967168029 2.91630358 
2.95115522 3.00855263 3.0719036933 3.1415926536 3.0653475414 2.9825888767 2.8307207459 2.8800620952 2.9351694502 
2.9967168029 3.0653475414 3.1415926536 3.0574329311 2.718901062 2.7598010554 2.8058000847 2.8576792927 2.91630358 
2.9825888767 3.0574329311 3.1415926536 2.718901062 2.7598010554 2.8307207459 2.8058000847 2.8800620952 2.95115522 
2.8576792927 2.9351694502 3.00855263 3.0774230472 2.91630358 2.9967168029 3.0719036933 3.1415926536 3.0774230472 
2.9825888767 3.0653475414 3.1415926536 3.0719036933 3.00855263 2.95115522 3.0574329311 3.1415926536 3.0653475414 