# vtk DataFile Version 5.1
vtk output
ASCII
DATASET POLYDATA
POINTS 1002 float
21.8532 39.4744 15.3039 11.2474 36.2054 18.1692 22.3186 33.4115 10.9315 
13.4797 28.8015 11.5059 13.6965 40.0875 11.0463 15.782 36.0663 7.97958 
19.4647 33.6707 19.6999 21.4505 28.9504 17.3507 7.93372 33.8319 12.2689 
23.4821 40.8798 9.68577 8.97933 29.1569 21.4666 26.584 36.65 15.7517 
20.9671 39.0995 15.454 19.8771 38.7422 15.7026 18.6234 38.4604 16.0762 
17.3125 38.1802 16.4653 16.0688 37.7876 16.7393 14.9475 37.3507 16.9645 
13.9083 37.034 17.2952 12.9117 36.827 17.7022 11.9998 36.5775 18.0215 
21.1669 39.4374 14.9294 20.384 39.3902 14.6032 19.5739 39.4624 14.3001 
18.7791 39.6841 13.9731 17.9383 39.9238 13.6243 16.9541 40.0556 13.2406 
15.8803 40.1001 12.7489 14.915 40.1264 12.1465 14.193 40.1352 11.546 
21.9511 39.1663 15.7785 21.8984 38.6217 16.1877 21.6212 37.8698 16.4734 
21.202 37.104 16.7631 20.8156 36.4589 17.2293 20.5125 35.8572 17.8168 
20.2401 35.2213 18.359 19.994 34.6266 18.8443 19.762 34.1306 19.3136 
22.2462 39.8202 14.9069 22.643 40.1604 14.4571 23.0126 40.5605 13.9872 
23.2354 41.0961 13.5082 23.2714 41.6864 12.9529 23.2647 42.0522 12.2519 
23.3444 42.0127 11.4721 23.4665 41.6897 10.7571 23.5265 41.2898 10.169 
22.7144 39.6707 15.5096 23.524 39.838 15.8077 24.3114 40.017 16.168 
25.1987 40.1316 16.4728 26.193 39.9487 16.5975 27.0013 39.3871 16.5523 
27.2988 38.6649 16.4278 27.1312 37.9788 16.249 26.8184 37.3218 16.0094 
11.3641 36.5801 17.5807 11.5573 36.9206 16.8407 11.8101 37.2833 16.0405 
12.0541 37.7572 15.2763 12.2349 38.368 14.5814 12.3928 39.0015 13.9441 
12.6023 39.4992 13.3243 12.8885 39.8122 12.6446 13.2532 39.9915 11.8645 
11.6229 36.0234 18.5814 12.1655 35.7111 18.8481 12.9431 35.2935 18.9581 
13.885 34.8917 19.0159 14.8338 34.601 19.1325 15.7566 34.4033 19.2979 
16.73 34.2354 19.4369 17.7363 34.0606 19.5301 18.6678 33.8682 19.6101 
10.6472 35.9797 17.8677 10.0621 35.7271 17.4882 9.47452 35.549 17.0963 
8.87614 35.4406 16.6844 8.35033 35.2767 16.1627 8.02828 35.0031 15.4492 
7.91046 34.7085 14.5656 7.87997 34.4512 13.6513 7.87974 34.1775 12.8643 
10.8155 35.6048 18.4735 10.4093 34.8588 18.7295 9.96666 34.0652 19.0579 
9.52705 33.2647 19.4898 9.24339 32.4025 19.8756 9.10868 31.485 20.1494 
8.92853 30.6399 20.4892 8.69956 29.9675 20.9755 8.66665 29.4784 21.3841 
21.7716 32.9558 10.9785 21.1167 32.4425 11.083 20.2992 31.887 11.2272 
19.2855 31.3965 11.3927 18.1291 31.0533 11.5708 17.0072 30.7312 11.6884 
16.0694 30.236 11.6487 15.2575 29.6099 11.4974 14.4097 29.0822 11.4089 
21.8843 33.5115 10.4739 21.332 33.6555 10.0289 20.7137 33.8577 9.58694 
20.0566 34.0783 9.11635 19.3247 34.2774 8.62613 18.521 34.517 8.201 
17.7264 34.8938 7.93635 16.9995 35.3647 7.8499 16.349 35.782 7.88574 
22.3543 32.9976 11.4047 22.3481 32.4582 11.9005 22.3107 31.8341 12.4829 
22.2658 31.212 13.1633 22.2581 30.6068 13.8244 22.3307 29.9738 14.3947 
22.4144 29.3855 15.0016 22.3293 29.0141 15.7637 21.9807 28.9093 16.5986 
22.6223 33.9141 10.5855 22.9575 34.493 10.182 23.2682 35.2133 9.83957 
23.5048 36.0454 9.67708 23.6948 36.9094 9.62216 23.8693 37.817 9.50378 
23.9697 38.791 9.34833 23.9286 39.7052 9.32488 23.7532 40.4052 9.4713 
22.8726 33.6521 11.2557 23.4803 33.9235 11.6359 24.16 34.1885 11.9622 
24.8507 34.4542 12.2444 25.4955 34.7601 12.6674 26.0805 35.1054 13.3116 
26.5095 35.461 14.0038 26.6671 35.8359 14.6026 26.6267 36.2443 15.1623 
13.4533 29.1214 11.0683 13.4076 29.8348 10.9017 13.3738 30.7923 10.8541 
13.4897 31.6959 10.6631 13.8665 32.4073 10.2085 14.3968 33.0496 9.59223 
14.8772 33.7691 8.99811 15.2481 34.5668 8.55127 15.548 35.3582 8.24683 
14.0857 28.8466 12.0809 14.6682 28.9947 12.8296 15.2925 29.0826 13.5414 
16.0796 29.0302 14.0944 17.0148 28.9488 14.6056 17.9588 28.9609 15.2009 
18.8726 29.0092 15.8139 19.8057 28.9919 16.3604 20.7082 28.939 16.8644 
12.4363 28.8148 11.4368 11.3723 29.0429 11.5659 10.5047 29.4972 11.8345 
9.8406 30.0343 12.0706 9.19784 30.4545 12.1502 8.55585 30.7838 12.1317 
8.1115 31.2771 12.1324 7.94432 32.0594 12.1678 7.92649 32.982 12.2082 
12.8739 28.7629 12.1501 12.2445 28.919 13.11 11.6448 29.0483 14.2545 
11.0925 29.0476 15.4156 10.6196 29.0392 16.5016 10.249 29.0834 17.5531 
9.90286 29.0644 18.6743 9.50654 28.9749 19.8414 9.14604 28.9741 20.8411 
13.7884 40.0282 10.2803 13.95 39.8282 9.549 14.0885 39.4667 8.83434 
14.1446 39.0549 8.08198 14.2078 38.7067 7.40141 14.4353 38.3451 7.07036 
14.8297 37.8372 7.18963 15.2385 37.2228 7.53091 15.5534 36.621 7.82082 
12.9824 39.907 11.1008 12.2498 39.596 11.1221 11.5892 39.0932 11.1026 
11.0693 38.3582 11.0964 10.5031 37.5177 11.1466 9.68989 36.7881 11.239 
8.83195 36.186 11.3749 8.27377 35.5261 11.5947 8.041 34.7111 11.9065 
14.5289 40.1571 10.4816 15.5993 40.114 9.93475 16.8396 39.9978 9.55187 
18.0175 39.9655 9.35923 18.9934 40.1544 9.23746 19.9054 40.5168 9.14404 
20.9058 40.8674 9.18167 21.9204 41.0537 9.36406 22.7974 41.04 9.56034 
15.0984 35.8142 8.29386 14.2399 35.4294 8.60688 13.0841 34.9983 8.82191 
11.7256 34.6468 8.9447 10.5066 34.4376 9.14095 9.64323 34.3296 9.56252 
9.02711 34.2413 10.1735 8.52298 34.1255 10.8515 8.1498 33.983 11.5471 
16.3244 36.5467 7.59755 16.9939 36.9428 7.19763 17.8667 37.2901 6.87018 
18.8713 37.6938 6.71913 19.8291 38.2243 6.8378 20.6624 38.8465 7.26144 
21.4467 39.4759 7.89582 22.2287 40.0479 8.56546 22.9348 40.5232 9.16212 
19.6728 33.2162 19.91 19.8459 32.6745 19.9937 20.0692 32.0328 19.9558 
20.4352 31.2817 19.9042 20.8721 30.5146 19.894 21.1848 29.9094 19.7905 
21.3181 29.5247 19.4243 21.3842 29.2674 18.807 21.4436 29.0719 18.0788 
18.5019 33.2308 19.9051 17.2646 32.5826 20.0125 15.9496 31.797 20.0809 
14.838 31.0945 20.2494 13.982 30.637 20.6446 13.0742 30.3554 21.2409 
11.8693 30.0743 21.806 10.5717 29.7323 22.0655 9.56442 29.3998 21.9218 
20.3812 33.7679 19.5957 21.1785 33.8904 19.4392 21.8764 34.1119 19.1705 
22.6779 34.5081 18.7942 23.7616 35.0949 18.4136 24.9371 35.7563 18.0878 
25.7957 36.2795 17.7174 26.2178 36.5417 17.18 26.4157 36.6147 16.4886 
20.3768 28.9614 17.7189 19.1357 28.9278 18.0471 17.7749 28.8962 18.4388 
16.3134 28.9323 19.0369 14.876 28.9674 19.8046 13.6003 28.9136 20.5331 
12.3952 28.8562 21.0888 11.1214 28.9056 21.4514 9.90043 29.0287 21.5871 
22.3598 29.0355 17.3845 23.0325 29.3116 17.3745 23.4737 29.9107 17.3321 
23.8391 30.8803 17.2558 24.2414 32.0654 17.0589 24.6984 33.2141 16.6948 
25.2266 34.2109 16.3091 25.7827 35.0946 16.0625 26.2497 35.9076 15.9189 
7.76567 33.2006 13.0218 7.52637 32.5789 13.8941 7.18817 31.9411 14.8139 
6.85898 31.2372 15.7246 6.76345 30.4978 16.6872 7.01726 29.8424 17.7917 
7.4714 29.388 18.9682 7.92444 29.1705 20.0312 8.38191 29.1279 20.866 
24.1148 40.8878 10.0757 24.7415 40.8018 10.5538 25.4779 40.6087 11.1406 
26.3671 40.2833 11.762 27.1675 39.8299 12.3281 27.5316 39.2725 12.873 
27.4323 38.609 13.5199 27.1416 37.8757 14.2982 26.8566 37.1919 15.0891 
20.1786 39.0622 15.118 19.3263 39.0797 14.8304 19.0087 38.8026 15.4397 
18.4755 39.2999 14.5841 18.1038 38.9891 15.2215 17.6886 38.6715 15.8759 
17.6018 39.6627 14.3249 17.2136 39.3239 15.0078 16.7558 38.9691 15.6652 
16.3448 38.456 16.248 16.6205 39.9479 14.0045 16.2925 39.6224 14.7001 
15.8764 39.2053 15.3489 15.4522 38.6883 15.9395 15.1443 38.0156 16.459 
15.5595 40.0574 13.5813 15.3105 39.7593 14.2714 15.0084 39.2749 14.8747 
14.6537 38.7303 15.4643 14.3523 38.1344 16.0532 14.1197 37.5302 16.66 
14.5826 40.0657 13.0392 14.3581 39.8034 13.7652 14.1394 39.3103 14.3432 
13.8804 38.707 14.9028 13.6315 38.1246 15.5249 13.4038 37.6131 16.2257 
13.1585 37.1887 16.9821 13.813 40.0442 12.4364 13.5396 39.826 13.2142 
13.3206 39.4131 13.8365 13.1138 38.8212 14.4005 12.9174 38.1856 15.0156 
12.712 37.6495 15.7271 12.4689 37.2484 16.5282 12.2119 36.9194 17.3359 
21.5463 39.8151 14.5309 21.9053 40.2893 14.1156 20.7317 39.8511 14.2073 
22.1577 40.8941 13.6554 21.0242 40.4582 13.7758 19.9047 39.9478 13.8237 
22.2349 41.5939 13.089 21.1996 41.1494 13.2303 20.2091 40.4825 13.2682 
19.147 40.0166 13.3483 22.253 42.1585 12.3522 21.2903 41.7889 12.5009 
20.4719 40.977 12.5832 19.574 40.2393 12.6357 18.3462 39.9899 12.8547 
22.383 42.2871 11.4971 21.4243 42.1176 11.5994 20.6738 41.3535 11.7384 
19.964 40.4118 11.832 18.8448 39.9209 11.9807 17.3257 39.9544 12.3164 
22.6001 41.9745 10.6976 21.6307 41.9693 10.6849 20.7938 41.4511 10.7893 
20.1233 40.5867 10.9323 19.2002 39.9383 11.048 17.7635 39.8293 11.2637 
16.1822 40.0143 11.6686 22.7613 41.4949 10.0618 21.8167 41.5202 9.93268 
20.8495 41.225 9.89908 20.0297 40.6396 9.99832 19.2015 40.0763 10.1164 
18.0258 39.8631 10.2411 16.5585 39.9724 10.5253 15.2049 40.122 11.0079 
22.1495 40.6236 8.93956 21.3985 40.1269 8.18756 21.17 40.5429 8.63012 
20.6452 39.5702 7.35438 20.3698 40.0458 7.75725 20.0398 40.3226 8.38861 
19.8482 38.962 6.64389 19.5724 39.5532 6.86557 19.139 39.9015 7.5195 
18.902 40.09 8.37348 18.8524 38.3646 6.27109 18.6247 39.0093 6.18783 
18.2207 39.4868 6.7173 17.8922 39.7929 7.62386 17.8547 39.9598 8.53509 
17.7081 37.8817 6.3075 17.4446 38.4778 5.91624 17.1457 38.9912 6.15192 
16.9148 39.4042 6.99526 16.8146 39.752 7.95779 16.8218 39.9662 8.77229 
16.7112 37.5115 6.6895 16.334 38.0651 6.13749 16.0122 38.5466 6.00539 
15.8836 38.9468 6.57927 15.8825 39.3622 7.53242 15.8492 39.7805 8.39531 
15.7368 40.0451 9.13568 16.0319 37.1234 7.25882 15.6236 37.7002 6.7679 
15.2039 38.2194 6.40532 14.9687 38.6156 6.57162 14.9608 38.9715 7.29299 
14.9867 39.4063 8.16937 14.8831 39.8321 8.93522 14.6899 40.0847 9.6707 
13.0498 39.7764 10.3547 13.164 39.4946 9.6238 12.3042 39.3656 10.3992 
13.2681 39.1047 8.91572 12.3945 38.9904 9.70537 11.6631 38.7285 10.4217 
13.418 38.7287 8.28939 12.5358 38.5592 9.11137 11.7426 38.2303 9.81023 
11.0882 37.8827 10.46 13.74 38.3504 7.91461 12.856 38.1377 8.72489 
11.8986 37.7129 9.35684 11.0591 37.3105 9.90057 10.3297 37.0478 10.5119 
14.203 37.8053 7.88635 13.3544 37.5976 8.59163 12.2385 37.18 9.10542 
11.1217 36.7452 9.48876 10.1781 36.5092 9.95618 9.40323 36.3895 10.5995 
[...]
POINT_DATA 1002
FIELD FieldData 4
_paraPhi 1 1002 double
6.2831853072 3.1415926536 6.2831853072 3.1415926536 4.7123889804 4.7123889804 1.5707963268 1.5707963268 3.6951670125 
5.7296109483 2.5880182947 0.5535743589 6.2831853072 6.2831853072 6.2831853072 6.2831853072 3.1415926536 3.1415926536 
3.1415926536 3.1415926536 3.1415926536 6.1053039672 5.898798347 5.6768734901 5.4599499503 5.2659633393 5.1032165617 
4.9713148346 4.8656852733 4.7809517865 0.17788134 0.38438696014 0.60631181711 0.82323535693 1.0172219679 1.1799687454 
1.3118704726 1.4175000338 1.5022335207 6.1892828907 6.1070320098 6.035312792 5.9728339911 5.9183214791 5.8706119594 
5.8286879411 5.7916808611 5.7588591896 0.093902416448 0.17615329733 0.2478725152 0.31035131605 0.36486382811 0.41257334776 
0.45449736604 0.4915044461 0.52432611754 3.3194739936 3.5259796137 3.7479044707 3.9648280105 4.1588146215 4.321561399 
4.4534631262 4.5590926874 4.6438261743 2.9637113136 2.7572056934 2.5352808365 2.3183572967 2.1243706857 1.9616239082 
1.829722181 1.7240926197 1.6393591329 3.23549507 3.3177459509 3.3894651688 3.4519439696 3.5064564817 3.5541660013 
3.5960900196 3.6330970997 3.6659187711 3.0476902371 2.9654393563 2.8937201384 2.8312413375 2.7767288255 2.7290193058 
2.6870952876 2.6500882075 2.617266536 6.2831853072 6.2831853072 6.2831853072 6.2831853072 3.1415926536 3.1415926536 
3.1415926536 3.1415926536 3.1415926536 6.1053039672 5.898798347 5.6768734901 5.4599499503 5.2659633393 5.1032165617 
4.9713148346 4.8656852733 4.7809517865 0.17788134 0.38438696014 0.60631181711 0.82323535693 1.0172219679 1.1799687454 
1.3118704726 1.4175000338 1.5022335207 6.1892828907 6.1070320098 6.035312792 5.9728339911 5.9183214791 5.8706119594 
5.8286879411 5.7916808611 5.7588591896 0.093902416448 0.17615329733 0.2478725152 0.31035131605 0.36486382811 0.41257334776 
0.45449736604 0.4915044461 0.52432611754 3.3194739936 3.5259796137 3.7479044707 3.9648280105 4.1588146215 4.321561399 
4.4534631262 4.5590926874 4.6438261743 2.9637113136 2.7572056934 2.5352808365 2.3183572967 2.1243706857 1.9616239082 
1.829722181 1.7240926197 1.6393591329 3.23549507 3.3177459509 3.3894651688 3.4519439696 3.5064564817 3.5541660013 
3.5960900196 3.6330970997 3.6659187711 3.0476902371 2.9654393563 2.8937201384 2.8312413375 2.7767288255 2.7290193058 
2.6870952876 2.6500882075 2.617266536 4.7123889804 4.7123889804 4.7123889804 4.7123889804 4.7123889804 4.7123889804 
4.7123889804 4.7123889804 4.7123889804 4.6087898617 4.4991390697 4.3857031936 4.2712800401 4.1588146215 4.0509635631 
3.94975894 3.8564636551 3.7716124825 4.8159880991 4.9256388911 5.0390747672 5.1534979207 5.2659633393 5.3738143976 
5.4750190208 5.5683143056 5.6531654782 4.6087898617 4.4991390697 4.3857031936 4.2712800401 4.1588146215 4.0509635631 
3.94975894 3.8564636551 3.7716124825 4.8159880991 4.9256388911 5.0390747672 5.1534979207 5.2659633393 5.3738143976 
5.4750190208 5.5683143056 5.6531654782 1.5707963268 1.5707963268 1.5707963268 1.5707963268 1.5707963268 1.5707963268 
1.5707963268 1.5707963268 1.5707963268 1.6743954455 1.7840462375 1.8974821136 2.0119052671 2.1243706857 2.232221744 
2.3334263672 2.426721652 2.5115728246 1.4671972081 1.3575464161 1.24411054 1.1296873865 1.0172219679 0.90937090954 
0.80816628637 0.71487100155 0.63001982895 1.6743954455 1.7840462375 1.8974821136 2.0119052671 2.1243706857 2.232221744 
2.3334263672 2.426721652 2.5115728246 1.4671972081 1.3575464161 1.24411054 1.1296873865 1.0172219679 0.90937090954 
0.80816628637 0.71487100155 0.63001982895 3.6007720849 3.4966939854 3.3839471039 3.2645756454 3.1415926536 3.0186096618 
2.8992382033 2.7864913217 2.6824132222 5.8240058758 5.9280839753 6.0408308569 6.1602023154 6.2831853072 0.12298299178 
0.2423544503 0.35510133185 0.45917943135 6.0560271438 5.7885595667 5.9702140275 5.5125918794 5.6029703303 5.7885595667 
5.2659633393 5.2659633393 5.2659633393 5.2659633393 5.0674903122 5.0120975802 4.9155579264 4.7123889804 4.1588146215 
4.9155579264 4.8353719722 4.7123889804 4.5092200343 4.1588146215 3.6362183941 4.8004512023 4.7123889804 4.5894059886 
4.4126803806 4.1588146215 3.8218076305 3.4545639333 4.7123889804 4.6243267584 4.5092200343 4.3572876485 4.1588146215 
3.9121860814 3.6362183941 3.368750817 6.0174235957 5.9434319871 5.8263323547 5.8809213739 5.7674481418 5.6279784266 
5.8278025282 5.718968232 5.5891129425 5.4372443565 5.7823484065 5.678536687 5.5575666702 5.4192596322 5.2659633393 
5.743164462 5.6444075337 5.5314983644 5.4046708639 5.2659633393 5.1195510325 5.7091357773 5.6152775188 5.5096229709 
5.3926039573 5.2659633393 5.1329233157 4.9978930058 5.6793730533 5.5901633916 5.4910209005 5.3824597928 5.2659633393 
5.1440684722 5.0201624502 4.8979782167 5.5683143056 5.4750190208 5.4750190208 5.3738143976 5.3738143976 5.3738143976 
5.2659633393 5.2659633393 5.2659633393 5.2659633393 5.1534979207 5.1534979207 5.1534979207 5.1534979207 5.1534979207 
5.0390747672 5.0390747672 5.0390747672 5.0390747672 5.0390747672 5.0390747672 4.9256388911 4.9256388911 4.9256388911 
4.9256388911 4.9256388911 4.9256388911 4.9256388911 4.8159880991 4.8159880991 4.8159880991 4.8159880991 4.8159880991 
4.8159880991 4.8159880991 4.8159880991 4.6087898617 4.6087898617 4.4991390697 4.6087898617 4.4991390697 4.3857031936 
4.6087898617 4.4991390697 4.3857031936 4.2712800401 4.6087898617 4.4991390697 4.3857031936 4.2712800401 4.1588146215 
4.6087898617 4.4991390697 4.3857031936 4.2712800401 4.1588146215 4.0509635631 4.6087898617 4.4991390697 4.3857031936 
4.2712800401 4.1588146215 4.0509635631 3.94975894 4.6087898617 4.4991390697 4.3857031936 4.2712800401 4.1588146215 
4.0509635631 3.94975894 3.8564636551 4.526799744 4.4046155105 4.426884955 4.2807094886 4.2918546451 4.3052269283 
4.1588146215 4.1588146215 4.1588146215 4.1588146215 4.042318168 4.0321740035 4.0201070968 4.0055183285 3.9875336042 
3.9337570603 3.9151549899 3.8932795963 3.8672112905 3.8356650183 3.7967995342 3.8346145692 3.809500442 3.7803704271 
3.7462412737 3.7058097288 3.657329819 3.5984456061 3.7454049075 3.7156421835 3.6816134988 3.6424295543 3.5969754326 
3.5438565869 3.4813459737 3.4073543651 3.5642842451 3.4524645613 3.5233842518 3.3320300872 3.403123212 3.4773852225 
3.20576226 3.2746326772 3.348015857 3.4255060145 3.0774230472 3.1415926536 3.2112816139 3.2864685043 3.3668817272 
2.95115522 3.00855263 3.0719036933 3.1415926536 3.2178377658 3.3005964304 2.8307207459 2.8800620952 2.9351694502 
2.9967168029 3.0653475414 3.1415926536 3.225752376 2.718901062 2.7598010554 2.8058000847 2.8576792927 2.91630358 
2.9825888767 3.0574329311 3.1415926536 3.5642842451 3.5233842518 3.4524645613 3.4773852225 3.403123212 3.3320300872 
3.4255060145 3.348015857 3.2746326772 3.20576226 3.3668817272 3.2864685043 3.2112816139 3.1415926536 3.0774230472 
3.3005964304 3.2178377658 3.1415926536 3.0719036933 3.00855263 2.95115522 3.225752376 3.1415926536 3.0653475414 
2.9967168029 2.9351694502 2.8800620952 2.8307207459 3.1415926536 3.0574329311 2.9825888767 2.91630358 2.8576792927 
2.8058000847 2.7598010554 2.718901062 4.526799744 4.426884955 4.4046155105 4.3052269283 4.2918546451 4.2807094886 
4.1588146215 4.1588146215 4.1588146215 4.1588146215 3.9875336042 4.0055183285 4.0201070968 4.0321740035 4.042318168 
3.7967995342 3.8356650183 3.8672112905 3.8932795963 3.9151549899 3.9337570603 3.5984456061 3.657329819 3.7058097288 
3.7462412737 3.7803704271 3.809500442 3.8346145692 3.4073543651 3.4813459737 3.5438565869 3.5969754326 3.6424295543 
3.6816134988 3.7156421835 3.7454049075 4.7123889804 4.8004512023 4.6243267584 4.9155579264 4.7123889804 4.5092200343 
5.0674903122 4.8353719722 4.5894059886 4.3572876485 5.2659633393 5.0120975802 4.7123889804 4.4126803806 4.1588146215 
5.5125918794 5.2659633393 4.9155579264 4.5092200343 4.1588146215 3.9121860814 5.7885595667 5.6029703303 5.2659633393 
4.7123889804 4.1588146215 3.8218076305 3.6362183941 6.0560271438 5.9702140275 5.7885595667 5.2659633393 4.1588146215 
3.6362183941 3.4545639333 3.368750817 0.22715816343 0.49462574053 0.3129712797 0.77059342779 0.68021497688 0.49462574053 
1.0172219679 1.0172219679 1.0172219679 1.0172219679 1.2156949949 1.271087727 1.3676273807 1.5707963268 2.1243706857 
1.3676273807 1.447813335 1.5707963268 1.7739652728 2.1243706857 2.6469669131 1.4827341049 1.5707963268 1.6937793186 
1.8705049266 2.1243706857 2.4613776767 2.8286213739 1.5707963268 1.6588585487 1.7739652728 1.9258976586 2.1243706857 
2.3709992258 2.6469669131 2.9144344902 1.7563855631 1.8785697967 1.8563003522 2.0024758186 1.9913306621 1.9779583789 
2.1243706857 2.1243706857 2.1243706857 2.1243706857 2.2408671392 2.2510113037 2.2630782103 2.2776669786 2.295651703 
2.3494282469 2.3680303173 2.3899057108 2.4159740166 2.4475202889 2.486385773 2.448570738 2.4736848652 2.5028148801 
2.5369440334 2.5773755784 2.6258554882 2.6847397011 2.5377803997 2.5675431237 2.6015718084 2.6407557529 2.6862098746 
2.7393287203 2.8018393335 2.8758309421 1.6743954455 1.6743954455 1.7840462375 1.6743954455 1.7840462375 1.8974821136 
1.6743954455 1.7840462375 1.8974821136 2.0119052671 1.6743954455 1.7840462375 1.8974821136 2.0119052671 2.1243706857 
1.6743954455 1.7840462375 1.8974821136 2.0119052671 2.1243706857 2.232221744 1.6743954455 1.7840462375 1.8974821136 
2.0119052671 2.1243706857 2.232221744 2.3334263672 1.6743954455 1.7840462375 1.8974821136 2.0119052671 2.1243706857 
2.232221744 2.3334263672 2.426721652 1.4671972081 1.3575464161 1.4671972081 1.24411054 1.3575464161 1.4671972081 
1.1296873865 1.24411054 1.3575464161 1.4671972081 1.0172219679 1.1296873865 1.24411054 1.3575464161 1.4671972081 
0.90937090954 1.0172219679 1.1296873865 1.24411054 1.3575464161 1.4671972081 0.80816628637 0.90937090954 1.0172219679 
1.1296873865 1.24411054 1.3575464161 1.4671972081 0.71487100155 0.80816628637 0.90937090954 1.0172219679 1.1296873865 
1.24411054 1.3575464161 1.4671972081 0.60381225391 0.57404952988 0.69302191562 0.54002084522 0.66790778838 0.79216440667 
0.50083690068 0.63877777351 0.77356233629 0.90072551443 0.45538277901 0.60464862014 0.75168694275 0.89058134991 1.0172219679 
0.40226393329 0.56421707518 0.72561863695 0.87851444325 1.0172219679 1.139116835 0.33975332011 0.51573716537 0.69407236469 
0.86392567495 1.0172219679 1.1502619915 1.2630228569 0.26576171152 0.45685295248 0.6552068806 0.84594095064 1.0172219679 
1.1636342747 1.2852923014 1.3852070904 0.22715816343 0.3129712797 0.49462574053 0.49462574053 0.68021497688 0.77059342779 
1.0172219679 1.0172219679 1.0172219679 1.0172219679 2.1243706857 1.5707963268 1.3676273807 1.271087727 1.2156949949 
2.6469669131 2.1243706857 1.7739652728 1.5707963268 1.447813335 1.3676273807 2.8286213739 2.4613776767 2.1243706857 
1.8705049266 1.6937793186 1.5707963268 1.4827341049 2.9144344902 2.6469669131 2.3709992258 2.1243706857 1.9258976586 
1.7739652728 1.6588585487 1.5707963268 1.7563855631 1.8563003522 1.8785697967 1.9779583789 1.9913306621 2.0024758186 
2.1243706857 2.1243706857 2.1243706857 2.1243706857 2.295651703 2.2776669786 2.2630782103 2.2510113037 2.2408671392 
2.486385773 2.4475202889 2.4159740166 2.3899057108 2.3680303173 2.3494282469 2.6847397011 2.6258554882 2.5773755784 
2.5369440334 2.5028148801 2.4736848652 2.448570738 2.8758309421 2.8018393335 2.7393287203 2.6862098746 2.6407557529 
2.6015718084 2.5675431237 2.5377803997 5.8604937156 5.901393709 5.9723133995 5.9473927383 6.0216547488 6.0927478736 
5.9992719463 6.0767621038 6.1501452836 6.2190157008 6.0578962336 6.1383094565 6.2134963469 0 0.064169606361 
6.1241815303 6.206940195 6.2831853072 0.069688960264 0.13304002361 0.19043743361 6.1990255847 0 0.07624511221 
0.14487585072 0.20642320337 0.26153055843 0.3108719077 0 0.084159722458 0.15900377685 0.22528907359 0.28391336087 
0.3357925689 0.38179159818 0.42269159155 5.8604937156 5.9723133995 5.901393709 6.0927478736 6.0216547488 5.9473927383 
6.2190157008 6.1501452836 6.0767621038 5.9992719463 0.064169606361 0 6.2134963469 6.1383094565 6.0578962336 
0.19043743361 0.13304002361 0.069688960264 6.2831853072 6.206940195 6.1241815303 0.3108719077 0.26153055843 0.20642320337 
0.14487585072 0.07624511221 6.2831853072 6.1990255847 0.42269159155 0.38179159818 0.3357925689 0.28391336087 0.22528907359 
0.15900377685 0.084159722458 0 5.6793730533 5.7091357773 5.5901633916 5.743164462 5.6152775188 5.4910209005 
5.7823484065 5.6444075337 5.5096229709 5.3824597928 5.8278025282 5.678536687 5.5314983644 5.3926039573 5.2659633393 
5.8809213739 5.718968232 5.5575666702 5.4046708639 5.2659633393 5.1440684722 5.9434319871 5.7674481418 5.5891129425 
5.4192596322 5.2659633393 5.1329233157 5.0201624502 6.0174235957 5.8263323547 5.6279784266 5.4372443565 5.2659633393 
5.1195510325 4.9978930058 4.8979782167 1.3852070904 1.2852923014 1.2630228569 1.1636342747 1.1502619915 1.139116835 
1.0172219679 1.0172219679 1.0172219679 1.0172219679 0.84594095064 0.86392567495 0.87851444325 0.89058134991 0.90072551443 
0.6552068806 0.69407236469 0.72561863695 0.75168694275 0.77356233629 0.79216440667 0.45685295248 0.51573716537 0.56421707518 
0.60464862014 0.63877777351 0.66790778838 0.69302191562 0.26576171152 0.33975332011 0.40226393329 0.45538277901 0.50083690068 
0.54002084522 0.57404952988 0.60381225391 
_paraPhiHalf 1 1002 double
0 3.1415926536 0 3.1415926536 1.5707963268 1.5707963268 1.5707963268 1.5707963268 2.5880182947 
0.5535743589 2.5880182947 0.5535743589 0 0 0 0 3.1415926536 3.1415926536 
3.1415926536 3.1415926536 3.1415926536 0.17788134 0.38438696014 0.60631181711 0.82323535693 1.0172219679 1.1799687454 
1.3118704726 1.4175000338 1.5022335207 0.17788134 0.38438696014 0.60631181711 0.82323535693 1.0172219679 1.1799687454 
1.3118704726 1.4175000338 1.5022335207 0.093902416448 0.17615329733 0.2478725152 0.31035131605 0.36486382811 0.41257334776 
0.45449736604 0.4915044461 0.52432611754 0.093902416448 0.17615329733 0.2478725152 0.31035131605 0.36486382811 0.41257334776 
0.45449736604 0.4915044461 0.52432611754 2.9637113136 2.7572056934 2.5352808365 2.3183572967 2.1243706857 1.9616239082 
1.829722181 1.7240926197 1.6393591329 2.9637113136 2.7572056934 2.5352808365 2.3183572967 2.1243706857 1.9616239082 
1.829722181 1.7240926197 1.6393591329 3.0476902371 2.9654393563 2.8937201384 2.8312413375 2.7767288255 2.7290193058 
2.6870952876 2.6500882075 2.617266536 3.0476902371 2.9654393563 2.8937201384 2.8312413375 2.7767288255 2.7290193058 
2.6870952876 2.6500882075 2.617266536 0 0 0 0 3.1415926536 3.1415926536 
3.1415926536 3.1415926536 3.1415926536 0.17788134 0.38438696014 0.60631181711 0.82323535693 1.0172219679 1.1799687454 
1.3118704726 1.4175000338 1.5022335207 0.17788134 0.38438696014 0.60631181711 0.82323535693 1.0172219679 1.1799687454 
1.3118704726 1.4175000338 1.5022335207 0.093902416448 0.17615329733 0.2478725152 0.31035131605 0.36486382811 0.41257334776 
0.45449736604 0.4915044461 0.52432611754 0.093902416448 0.17615329733 0.2478725152 0.31035131605 0.36486382811 0.41257334776 
0.45449736604 0.4915044461 0.52432611754 2.9637113136 2.7572056934 2.5352808365 2.3183572967 2.1243706857 1.9616239082 
1.829722181 1.7240926197 1.6393591329 2.9637113136 2.7572056934 2.5352808365 2.3183572967 2.1243706857 1.9616239082 
1.829722181 1.7240926197 1.6393591329 3.0476902371 2.9654393563 2.8937201384 2.8312413375 2.7767288255 2.7290193058 
2.6870952876 2.6500882075 2.617266536 3.0476902371 2.9654393563 2.8937201384 2.8312413375 2.7767288255 2.7290193058 
2.6870952876 2.6500882075 2.617266536 1.5707963268 1.5707963268 1.5707963268 1.5707963268 1.5707963268 1.5707963268 
1.5707963268 1.5707963268 1.5707963268 1.6743954455 1.7840462375 1.8974821136 2.0119052671 2.1243706857 2.232221744 
2.3334263672 2.426721652 2.5115728246 1.4671972081 1.3575464161 1.24411054 1.1296873865 1.0172219679 0.90937090954 
0.80816628637 0.71487100155 0.63001982895 1.6743954455 1.7840462375 1.8974821136 2.0119052671 2.1243706857 2.232221744 
2.3334263672 2.426721652 2.5115728246 1.4671972081 1.3575464161 1.24411054 1.1296873865 1.0172219679 0.90937090954 
0.80816628637 0.71487100155 0.63001982895 1.5707963268 1.5707963268 1.5707963268 1.5707963268 1.5707963268 1.5707963268 
1.5707963268 1.5707963268 1.5707963268 1.6743954455 1.7840462375 1.8974821136 2.0119052671 2.1243706857 2.232221744 
2.3334263672 2.426721652 2.5115728246 1.4671972081 1.3575464161 1.24411054 1.1296873865 1.0172219679 0.90937090954 
0.80816628637 0.71487100155 0.63001982895 1.6743954455 1.7840462375 1.8974821136 2.0119052671 2.1243706857 2.232221744 
2.3334263672 2.426721652 2.5115728246 1.4671972081 1.3575464161 1.24411054 1.1296873865 1.0172219679 0.90937090954 
0.80816628637 0.71487100155 0.63001982895 2.6824132222 2.7864913217 2.8992382033 3.0186096618 3.1415926536 3.0186096618 
2.8992382033 2.7864913217 2.6824132222 0.45917943135 0.35510133185 0.2423544503 0.12298299178 0 0.12298299178 
0.2423544503 0.35510133185 0.45917943135 0.22715816343 0.49462574053 0.3129712797 0.77059342779 0.68021497688 0.49462574053 
1.0172219679 1.0172219679 1.0172219679 1.0172219679 1.2156949949 1.271087727 1.3676273807 1.5707963268 2.1243706857 
1.3676273807 1.447813335 1.5707963268 1.7739652728 2.1243706857 2.6469669131 1.4827341049 1.5707963268 1.6937793186 
1.8705049266 2.1243706857 2.4613776767 2.8286213739 1.5707963268 1.6588585487 1.7739652728 1.9258976586 2.1243706857 
2.3709992258 2.6469669131 2.9144344902 0.26576171152 0.33975332011 0.45685295248 0.40226393329 0.51573716537 0.6552068806 
0.45538277901 0.56421707518 0.69407236469 0.84594095064 0.50083690068 0.60464862014 0.72561863695 0.86392567495 1.0172219679 
0.54002084522 0.63877777351 0.75168694275 0.87851444325 1.0172219679 1.1636342747 0.57404952988 0.66790778838 0.77356233629 
0.89058134991 1.0172219679 1.1502619915 1.2852923014 0.60381225391 0.69302191562 0.79216440667 0.90072551443 1.0172219679 
1.139116835 1.2630228569 1.3852070904 0.71487100155 0.80816628637 0.80816628637 0.90937090954 0.90937090954 0.90937090954 
1.0172219679 1.0172219679 1.0172219679 1.0172219679 1.1296873865 1.1296873865 1.1296873865 1.1296873865 1.1296873865 
1.24411054 1.24411054 1.24411054 1.24411054 1.24411054 1.24411054 1.3575464161 1.3575464161 1.3575464161 
1.3575464161 1.3575464161 1.3575464161 1.3575464161 1.4671972081 1.4671972081 1.4671972081 1.4671972081 1.4671972081 
1.4671972081 1.4671972081 1.4671972081 1.6743954455 1.6743954455 1.7840462375 1.6743954455 1.7840462375 1.8974821136 
1.6743954455 1.7840462375 1.8974821136 2.0119052671 1.6743954455 1.7840462375 1.8974821136 2.0119052671 2.1243706857 
1.6743954455 1.7840462375 1.8974821136 2.0119052671 2.1243706857 2.232221744 1.6743954455 1.7840462375 1.8974821136 
2.0119052671 2.1243706857 2.232221744 2.3334263672 1.6743954455 1.7840462375 1.8974821136 2.0119052671 2.1243706857 
2.232221744 2.3334263672 2.426721652 1.7563855631 1.8785697967 1.8563003522 2.0024758186 1.9913306621 1.9779583789 
2.1243706857 2.1243706857 2.1243706857 2.1243706857 2.2408671392 2.2510113037 2.2630782103 2.2776669786 2.295651703 
2.3494282469 2.3680303173 2.3899057108 2.4159740166 2.4475202889 2.486385773 2.448570738 2.4736848652 2.5028148801 
2.5369440334 2.5773755784 2.6258554882 2.6847397011 2.5377803997 2.5675431237 2.6015718084 2.6407557529 2.6862098746 
2.7393287203 2.8018393335 2.8758309421 2.718901062 2.8307207459 2.7598010554 2.95115522 2.8800620952 2.8058000847 
3.0774230472 3.00855263 2.9351694502 2.8576792927 3.0774230472 3.1415926536 3.0719036933 2.9967168029 2.91630358 
2.95115522 3.00855263 3.0719036933 3.1415926536 3.0653475414 2.9825888767 2.8307207459 2.8800620952 2.9351694502 
2.9967168029 3.0653475414 3.1415926536 3.0574329311 2.718901062 2.7598010554 2.8058000847 2.8576792927 2.91630358 
2.9825888767 3.0574329311 3.1415926536 2.718901062 2.7598010554 2.8307207459 2.8058000847 2.8800620952 2.95115522 
2.8576792927 2.9351694502 3.00855263 3.0774230472 2.91630358 2.9967168029 3.0719036933 3.1415926536 3.0774230472 
2.9825888767 3.0653475414 3.1415926536 3.0719036933 3.00855263 2.95115522 3.0574329311 3.1415926536 3.0653475414 