# vtk DataFile Version 5.1
vtk output
ASCII
DATASET POLYDATA
POINTS 100 float
0.416377 0.752642 0.798928 0.416102 0.75247 0.798246 0.415298 0.752099 0.796017 
0.413897 0.751426 0.792285 0.411788 0.7503 0.787121 0.408837 0.748545 0.780613 
0.404896 0.746 0.772862 0.399824 0.742548 0.763967 0.393497 0.738146 0.754025 
0.385831 0.732843 0.743116 0.376785 0.726782 0.731307 0.366367 0.720194 0.71864 
0.35464 0.713368 0.705142 0.341712 0.706621 0.690823 0.327728 0.70025 0.675685 
0.312861 0.694494 0.659725 0.297291 0.689493 0.642945 0.281197 0.685262 0.625357 
0.264741 0.681675 0.606987 0.248052 0.678475 0.58788 0.23123 0.675287 0.5681 
0.214331 0.671659 0.547724 0.197378 0.667105 0.526842 0.180361 0.661155 0.505548 
0.163251 0.6534 0.483935 0.146006 0.643535 0.462087 0.128589 0.631384 0.440075 
0.110975 0.616909 0.417953 0.0931614 0.600204 0.395754 0.0751785 0.581468 0.373495 
0.0570891 0.560975 0.35118 0.0389903 0.539021 0.328801 0.0210096 0.515884 0.306352 
0.00329847 0.491784 0.283828 -0.0139768 0.466847 0.261241 -0.0306448 0.441097 0.238615 
-0.0465387 0.414449 0.215998 -0.0615059 0.386732 0.193456 -0.0754156 0.35772 0.171075 
-0.0881635 0.327168 0.148954 -0.0996757 0.294863 0.127202 -0.109908 0.260663 0.105925 
-0.118845 0.224532 0.085223 -0.126497 0.186563 0.0651792 -0.132895 0.146978 0.0458551 
-0.138084 0.106122 0.0272858 -0.142123 0.0644366 0.00947779 -0.145076 0.0224168 -0.00759048 
-0.14701 -0.0194296 -0.0239658 -0.147996 -0.0606293 -0.0397154 -0.148102 -0.100784 -0.0549215 
-0.147399 -0.139602 -0.0696742 -0.145955 -0.176911 -0.0840652 -0.143839 -0.212667 -0.0981821 
-0.141121 -0.246931 -0.112104 -0.13787 -0.279852 -0.125898 -0.134156 -0.311625 -0.139618 
-0.130046 -0.342458 -0.153305 -0.125606 -0.372533 -0.166989 -0.120896 -0.40198 -0.180689 
-0.115972 -0.430856 -0.194415 -0.110885 -0.459143 -0.208171 -0.105678 -0.486757 -0.221957 
-0.100389 -0.513566 -0.235768 -0.0950508 -0.539419 -0.249592 -0.0896946 -0.564181 -0.263414 
-0.084351 -0.587758 -0.27721 -0.0790529 -0.610128 -0.29095 -0.0738373 -0.631351 -0.304592 
-0.0687476 -0.651573 -0.318091 -0.0638332 -0.671017 -0.331392 -0.05915 -0.689959 -0.34444 
-0.0547578 -0.708695 -0.35718 -0.0507175 -0.72751 -0.369566 -0.0470874 -0.746641 -0.381565 
-0.0439185 -0.766243 -0.393161 -0.0412499 -0.786372 -0.404364 -0.0391042 -0.806973 -0.415212 
-0.0374844 -0.827885 -0.425768 -0.0363719 -0.848852 -0.436125 -0.0357255 -0.869556 -0.446397 
-0.0354833 -0.889643 -0.456712 -0.0355657 -0.908764 -0.467206 -0.0358801 -0.926607 -0.478005 
-0.0363273 -0.942921 -0.489218 -0.0368081 -0.957542 -0.500921 -0.0372306 -0.970396 -0.513148 
-0.0375167 -0.9815 -0.525879 -0.0376079 -0.990945 -0.539037 -0.0374689 -0.998883 -0.552482 
-0.0370904 -1.0055 -0.566016 -0.0364885 -1.01098 -0.579389 -0.0357027 -1.01552 -0.592306 
-0.034792 -1.01926 -0.604446 -0.0338286 -1.02233 -0.615478 -0.0328915 -1.0248 -0.625075 
-0.0320585 -1.02671 -0.632939 -0.0313994 -1.02809 -0.638812 -0.0309695 -1.02892 -0.642499 
-0.0308041 -1.0292 -0.643874 
LINES 2 100
OFFSETS vtktypeint64
0 100 
CONNECTIVITY vtktypeint64
0 1 2 3 4 5 6 7 8 
9 10 11 12 13 14 15 16 17 
18 19 20 21 22 23 24 25 26 
27 28 29 30 31 32 33 34 35 
36 37 38 39 40 41 42 43 44 
45 46 47 48 49 50 51 52 53 
54 55 56 57 58 59 60 61 62 
63 64 65 66 67 68 69 70 71 
72 73 74 75 76 77 78 79 80 
81 82 83 84 85 86 87 88 89 
90 91 92 93 94 95 96 97 98 
99 
POINT_DATA 100
FIELD FieldData 3
_theta 1 100 double
0 0.031733259127 0.063466518254 0.095199777382 0.12693303651 0.15866629564 0.19039955476 0.22213281389 0.25386607302 
0.28559933214 0.31733259127 0.3490658504 0.38079910953 0.41253236865 0.44426562778 0.47599888691 0.50773214603 0.53946540516 
0.57119866429 0.60293192342 0.63466518254 0.66639844167 0.6981317008 0.72986495992 0.76159821905 0.79333147818 0.82506473731 
0.85679799643 0.88853125556 0.92026451469 0.95199777382 0.98373103294 1.0154642921 1.0471975512 1.0789308103 1.1106640695 
1.1423973286 1.1741305877 1.2058638468 1.237597106 1.2693303651 1.3010636242 1.3327968833 1.3645301425 1.3962634016 
1.4279966607 1.4597299198 1.491463179 1.5231964381 1.5549296972 1.5866629564 1.6183962155 1.6501294746 1.6818627337 
1.7135959929 1.745329252 1.7770625111 1.8087957702 1.8405290294 1.8722622885 1.9039955476 1.9357288068 1.9674620659 
1.999195325 2.0309285841 2.0626618433 2.0943951024 2.1261283615 2.1578616206 2.1895948798 2.2213281389 2.253061398 
2.2847946572 2.3165279163 2.3482611754 2.3799944345 2.4117276937 2.4434609528 2.4751942119 2.506927471 2.5386607302 
2.5703939893 2.6021272484 2.6338605076 2.6655937667 2.6973270258 2.7290602849 2.7607935441 2.7925268032 2.8242600623 
2.8559933214 2.8877265806 2.9194598397 2.9511930988 2.982926358 3.0146596171 3.0463928762 3.0781261353 3.1098593945 
3.1415926536 
_radius 1 100 double
1.624116268e-15 0.019230004841 0.038340814283 0.057220056369 0.075790969847 0.094014560957 0.11187972764 0.12938642911 0.14652886289 
0.16328368914 0.17960390087 0.19541481627 0.21060758786 0.22502859842 0.23846849892 0.25065878979 0.26128380194 0.2700117081 
0.27654209938 0.28066216286 0.28230007387 0.28156339635 0.27875200672 0.27433901875 0.26891900136 0.26312984187 0.25756192241 
0.25267460042 0.24874326413 0.24585544426 0.24395577435 0.24291326773 0.24257280129 0.24276934655 0.24331385007 0.24397860982 
0.24450671319 0.24465209901 0.24423803306 0.24321198341 0.24167636962 0.23988379579 0.23819687944 0.23702324993 0.23674374505 
0.23765381795 0.23993247946 0.24364125311 0.24874351619 0.25512848468 0.26262692579 0.27101529655 0.28001410597 0.28928954287 
0.29846716653 0.30716351354 0.31503140853 0.32180360982 0.32731961241 0.33152997073 0.33448113244 0.33628760531 0.337098778 
0.33706669896 0.33631955032 0.33494390255 0.3329772837 0.33041114205 0.3272028844 0.32329438747 0.31863335969 0.31319336361 
0.30698841341 0.30007907 0.29256889987 0.28459256471 0.27629872183 0.26783150884 0.25931359649 0.25083241566 0.24243024749 
0.2340988816 0.22578000192 0.21737231496 0.20874507543 0.19975555129 0.19026637773 0.18015880137 0.16933962805 0.15774226297 
0.14532416923 0.1320635624 0.11795743823 0.10302188251 0.087294575965 0.070838565166 0.053745724548 0.036138088656 0.018165627394 
1.0463848304e-15 
_area 1 100 double
0 0.0010323139452 0.0040868235415 0.0090499344084 0.015773603755 0.024121816973 0.034006636974 0.045396797264 0.058300515364 
0.072738882622 0.088715987203 0.10617572733 0.12493653356 0.14461245105 0.16455083581 0.18382691859 0.2013213549 0.21587566618 
0.22649090495 0.23251937223 0.23380020651 0.23070411182 0.22407453301 0.21507618281 0.20498527255 0.19497891835 0.18598786366 
0.17864109864 0.17327657986 0.16998563465 0.16869115113 0.16924438556 0.17149654382 0.17516366242 0.17979385429 0.18481247279 
0.18951858166 0.1932344437 0.1954572622 0.19599161581 0.19502057275 0.19301472637 0.1905296767 0.18812219989 0.18636081833 
0.18580305304 0.18693618145 0.19013630136 0.19569276275 0.2038316446 0.21465803137 0.22805587571 0.24361212786 0.26060604122 
0.27809227348 0.29504141025 0.31048255962 0.32362836199 0.33396562808 0.34129511884 0.34572114362 0.34760292617 0.34747831228 
0.3459666084 0.34365846298 0.34100389843 0.33820765133 0.3351480316 0.33138043413 0.3262826783 0.31927287925 0.30998429601 
0.2983565796 0.28464892741 0.2693877323 0.25326584355 0.23701680397 0.22129009083 0.20655102024 0.19302426148 0.18069278809 
0.1693495717 0.15867960802 0.14834084164 0.13802327664 0.12748350414 0.11656169984 0.10518843258 0.093385467958 0.081262128634 
0.069007302993 0.056876547962 0.045173895222 0.034228831082 0.024370096025 0.015899298693 0.009068711598 0.004067979414 0.0010223134739 
1.326580095e-16 
