# vtk DataFile Version 5.1
vtk output
ASCII
DATASET POLYDATA
POINTS 1002 float
-0.691626 0.0306024 -0.0575136 0.627548 0.00407843 -0.236229 -0.576761 0.0908734 0.190163 
0.552261 -0.0230639 0.231453 0.0574483 0.42428 -0.136989 0.0122428 0.402265 0.123001 
0.0993983 -0.114576 -0.0597526 0.0902833 -0.168275 0.114118 0.98406 0.142107 -0.0318198 
-0.994302 0.121917 -0.0108956 1.00862 -0.432155 -0.0754076 -1.01716 -0.546367 -0.0498743 
-0.5683 0.0722485 -0.0613802 -0.424096 0.103741 -0.0735122 -0.27782 0.126278 -0.0793635 
-0.135711 0.139926 -0.0837622 0.0123856 0.139924 -0.107535 0.170195 0.123807 -0.156421 
0.323076 0.0966619 -0.209852 0.453113 0.065263 -0.243515 0.553271 0.0335456 -0.249576 
-0.635483 0.0729128 -0.0584532 -0.569562 0.119572 -0.061331 -0.493621 0.170567 -0.0645002 
-0.404603 0.223901 -0.0731519 -0.307579 0.275335 -0.0925252 -0.218293 0.319726 -0.113867 
-0.144461 0.354449 -0.123239 -0.0777315 0.381491 -0.1227 -0.00983081 0.404358 -0.125506 
-0.669623 0.0195458 -0.0544699 -0.629919 0.00862888 -0.0541931 -0.568344 -0.00374956 -0.0604604 
-0.493719 -0.0145746 -0.0656679 -0.419463 -0.0188056 -0.0553626 -0.343665 -0.018929 -0.0301979 
-0.251162 -0.0249127 -0.010643 -0.136954 -0.0436273 -0.0127795 -0.0140991 -0.0747747 -0.0333644 
-0.763328 0.00726993 -0.0679365 -0.822092 -0.0161733 -0.0942638 -0.865374 -0.0309763 -0.140446 
-0.8944 -0.0300377 -0.193019 -0.916059 -0.0132581 -0.217829 -0.939428 0.0123948 -0.193525 
-0.966033 0.0392349 -0.139628 -0.988224 0.0651606 -0.0883356 -0.998239 0.0924059 -0.0482939 
-0.784283 -0.0315974 -0.0745302 -0.859685 -0.110761 -0.120662 -0.914521 -0.1994 -0.184144 
-0.95168 -0.287293 -0.238656 -0.970767 -0.372766 -0.266539 -0.973005 -0.45859 -0.264244 
-0.971601 -0.534576 -0.230815 -0.980434 -0.579153 -0.172103 -0.998958 -0.580565 -0.106023 
0.601461 0.0478029 -0.247639 0.571504 0.0958542 -0.264244 0.536466 0.146126 -0.282686 
0.490398 0.197331 -0.290771 0.43262 0.247795 -0.283512 0.370236 0.294633 -0.269818 
0.304695 0.335933 -0.253347 0.229708 0.371372 -0.225447 0.14467 0.400755 -0.183329 
0.609113 -0.0206165 -0.238902 0.584885 -0.0463817 -0.240873 0.551295 -0.0703772 -0.236239 
0.507878 -0.0913483 -0.226208 0.458 -0.112188 -0.217142 0.40125 -0.131455 -0.204788 
0.332734 -0.139869 -0.176943 0.25396 -0.13406 -0.134628 0.174032 -0.122584 -0.0921563 
0.678104 0.00256759 -0.223825 0.730367 0.00569063 -0.212313 0.783122 0.0177889 -0.198949 
0.834501 0.0368149 -0.180982 0.884386 0.054449 -0.163893 0.931852 0.0685395 -0.152117 
0.971164 0.0858284 -0.1367 0.99454 0.10811 -0.107723 0.998203 0.128545 -0.0692022 
0.679073 -0.0390743 -0.213193 0.724329 -0.0827973 -0.180654 0.767171 -0.129438 -0.147274 
0.815724 -0.182788 -0.127261 0.869382 -0.238539 -0.12594 0.917127 -0.287575 -0.133125 
0.95405 -0.329959 -0.135249 0.983871 -0.371153 -0.126059 1.00478 -0.408177 -0.105254 
-0.479498 0.112925 0.209972 -0.364438 0.125729 0.227852 -0.221126 0.122825 0.219471 
-0.0614464 0.106732 0.187946 0.0828254 0.0861147 0.17383 0.197104 0.0648651 0.197842 
0.294985 0.0417714 0.229512 0.388578 0.0177791 0.239402 0.475727 -0.00422829 0.234348 
-0.53875 0.121939 0.202866 -0.491923 0.156737 0.213911 -0.438178 0.197629 0.225142 
-0.378992 0.242499 0.232574 -0.312569 0.282089 0.225343 -0.239559 0.310605 0.201997 
-0.167397 0.333874 0.176028 -0.102201 0.358562 0.156814 -0.043134 0.382841 0.140842 
-0.548627 0.0754156 0.185085 -0.510846 0.0582999 0.18202 -0.464287 0.0399565 0.183613 
-0.408566 0.0220931 0.187719 -0.337336 0.00283572 0.185449 -0.246195 -0.0228152 0.169918 
-0.145748 -0.0557491 0.146641 -0.0535624 -0.0923343 0.127691 0.0237141 -0.13009 0.1181 
-0.652734 0.0860085 0.18943 -0.73682 0.0847886 0.196216 -0.820239 0.0868026 0.198089 
-0.886061 0.0869738 0.182091 -0.926415 0.0843798 0.150411 -0.952188 0.0849617 0.114539 
-0.975964 0.091559 0.0795001 -0.99578 0.100879 0.0455233 -1.00289 0.110749 0.0147748 
-0.660194 0.0536946 0.175026 -0.753383 0.00873456 0.165074 -0.847517 -0.045205 0.154581 
-0.928431 -0.113692 0.13131 -0.991122 -0.201298 0.0914901 -1.04188 -0.299801 0.0502997 
-1.07877 -0.390868 0.0245461 -1.08718 -0.462674 0.00945635 -1.06183 -0.51415 -0.0129161 
0.518339 0.0234285 0.236789 0.481408 0.0728409 0.234624 0.443844 0.120675 0.221063 
0.401865 0.166053 0.198943 0.34901 0.211709 0.176316 0.28548 0.257942 0.157938 
0.217182 0.301811 0.143174 0.147838 0.341306 0.131743 0.0787908 0.375277 0.125025 
0.53571 -0.0558334 0.224208 0.508312 -0.0873287 0.220969 0.46839 -0.117533 0.223405 
0.420907 -0.145228 0.225375 0.371628 -0.166056 0.218832 0.321338 -0.178317 0.203373 
0.269797 -0.185354 0.182979 0.216885 -0.187786 0.159115 0.158555 -0.1821 0.13418 
0.605397 -0.0117712 0.238572 0.661746 0.00177924 0.244258 0.721427 0.0164611 0.23725 
0.784371 0.032525 0.209758 0.850738 0.0505903 0.165034 0.915326 0.0701471 0.116032 
0.965721 0.0900096 0.0736235 0.992652 0.109193 0.0376286 0.996813 0.126828 0.00277912 
0.617435 -0.0623734 0.227951 0.685858 -0.103561 0.222847 0.75504 -0.145795 0.207806 
0.819026 -0.190561 0.179335 0.873707 -0.239871 0.145659 0.924316 -0.292915 0.111759 
0.974386 -0.344546 0.070681 1.01202 -0.387431 0.0200735 1.02297 -0.416648 -0.0312124 
0.0442426 0.448793 -0.120155 0.0290133 0.474087 -0.102941 0.0101326 0.49967 -0.0735291 
-0.00950416 0.519883 -0.0247941 -0.0200282 0.523544 0.0288056 -0.0155927 0.505833 0.0643787 
-0.00407622 0.476796 0.0804114 0.00376577 0.449311 0.0926653 0.00739563 0.425807 0.108467 
0.177757 0.42864 -0.178554 0.295031 0.428308 -0.206682 0.408083 0.417665 -0.211613 
0.52717 0.394255 -0.203332 0.64767 0.361862 -0.191676 0.745424 0.323534 -0.168702 
0.813004 0.277739 -0.129437 0.869109 0.226881 -0.0870056 0.927472 0.179697 -0.0544658 
-0.0751588 0.433182 -0.0847875 -0.209649 0.438517 -0.0497234 -0.331576 0.434501 -0.0426534 
-0.448418 0.413915 -0.0437606 -0.57911 0.37476 -0.0274896 -0.716051 0.324061 -0.00337288 
-0.828382 0.271487 0.0042278 -0.903746 0.221038 -0.00295651 -0.954791 0.171561 -0.00924253 
0.107269 0.40194 0.106057 0.205669 0.393617 0.0938248 0.31102 0.375441 0.0855676 
0.426576 0.351853 0.077013 0.548132 0.326784 0.0620173 0.664455 0.296188 0.0400229 
0.766029 0.25649 0.0187005 0.851362 0.213446 0.00283185 0.923655 0.174799 -0.0121882 
-0.0948364 0.414043 0.139142 -0.215384 0.422872 0.158633 -0.334207 0.424792 0.168179 
-0.444021 0.411236 0.162387 -0.559665 0.378294 0.152268 -0.691234 0.334245 0.144476 
-0.815591 0.288318 0.12564 -0.904399 0.239162 0.0853191 -0.958171 0.182743 0.0342808 
0.120586 -0.141163 -0.0604147 0.138987 -0.171823 -0.0601766 0.146123 -0.199294 -0.0506146 
0.138348 -0.217411 -0.0266392 0.12074 -0.225368 0.00656643 0.101702 -0.223961 0.0390205 
0.0875982 -0.213664 0.0653701 0.0819426 -0.198083 0.085581 0.0842119 -0.182314 0.101323 
0.242343 -0.167969 -0.100882 0.363254 -0.230825 -0.127079 0.466039 -0.296448 -0.13165 
0.574241 -0.365595 -0.133772 0.691269 -0.436553 -0.153093 0.789096 -0.490982 -0.175522 
0.85458 -0.509024 -0.173297 0.906386 -0.493714 -0.144914 0.959412 -0.463734 -0.108639 
-0.0513868 -0.0884827 -0.0201774 -0.225589 -0.0814328 0.00448301 -0.409724 -0.102283 0.00786449 
-0.58471 -0.151748 -0.00534079 -0.725291 -0.225189 -0.0294057 -0.81318 -0.314678 -0.0603757 
-0.86026 -0.405207 -0.0853751 -0.900597 -0.478688 -0.0890693 -0.954764 -0.525377 -0.0722805 
0.196959 -0.219107 0.123639 0.303611 -0.272162 0.128238 0.414326 -0.325249 0.114293 
0.521245 -0.377767 0.0881175 0.612472 -0.424927 0.0666059 0.695832 -0.458884 0.046998 
0.788132 -0.475966 0.015496 0.883752 -0.476597 -0.0238392 0.960959 -0.46133 -0.0561322 
-0.0435909 -0.127122 0.108936 -0.219682 -0.0972697 0.123983 -0.411988 -0.105427 0.144243 
-0.575165 -0.16048 0.139545 -0.690275 -0.232692 0.103397 -0.780339 -0.288229 0.0624002 
-0.86565 -0.335192 0.0348259 -0.93839 -0.399932 0.0123993 -0.987689 -0.479412 -0.0157628 
1.05014 0.103014 -0.0340747 1.10588 0.0589191 -0.027068 1.1398 0.00177884 0.0030219 
1.15322 -0.0658918 0.0460722 1.15135 -0.132122 0.0671108 1.13568 -0.194887 0.046357 
1.11143 -0.261399 0.00249566 1.08435 -0.328709 -0.0363444 1.05158 -0.386605 -0.0609076 
-1.03958 0.0459134 -0.0367943 -1.08798 -0.042397 -0.0686631 -1.12638 -0.135906 -0.110025 
-1.14896 -0.22964 -0.149641 -1.16524 -0.322853 -0.164422 -1.17567 -0.415147 -0.14599 
-1.16333 -0.498857 -0.111514 -1.12338 -0.555931 -0.0813993 -1.07041 -0.570837 -0.061877 
-0.499886 0.112062 -0.0715891 -0.426577 0.157728 -0.0772755 -0.353714 0.142922 -0.0808543 
-0.34766 0.207617 -0.0781171 -0.283347 0.188669 -0.0788039 -0.210729 0.165264 -0.080349 
-0.257733 0.255413 -0.0879415 -0.204709 0.233898 -0.0799069 -0.139615 0.206575 -0.0811814 
-0.0632903 0.173639 -0.0941155 -0.161443 0.295235 -0.115416 -0.109359 0.269593 -0.106106 
-0.0509962 0.23926 -0.10393 0.021353 0.202626 -0.119201 0.0985496 0.163154 -0.140493 
-0.0719757 0.326452 -0.146716 -0.00711313 0.295581 -0.15425 0.0539497 0.260755 -0.156164 
0.122085 0.221244 -0.168477 0.194608 0.180161 -0.186962 0.261825 0.139188 -0.20021 
0.00677682 0.352751 -0.165949 0.0857978 0.31905 -0.19661 0.155047 0.280716 -0.211795 
0.222822 0.237964 -0.224695 0.291319 0.194322 -0.238438 0.352252 0.152651 -0.243757 
0.404377 0.11034 -0.242348 0.0789593 0.377541 -0.175326 0.164458 0.344787 -0.21823 
0.23864 0.306569 -0.244141 0.30594 0.263114 -0.260202 0.372084 0.21641 -0.273807 
0.430948 0.170276 -0.277418 0.477343 0.125324 -0.267724 0.516628 0.0794712 -0.255854 
-0.714073 0.0590016 -0.0545177 -0.782756 0.0451735 -0.0636029 -0.651877 0.114943 -0.0450431 
-0.83214 0.0375052 -0.0971892 -0.725554 0.109958 -0.0394902 -0.569669 0.174491 -0.045863 
-0.859782 0.0426615 -0.142273 -0.776451 0.109623 -0.0599983 -0.637372 0.179272 -0.0362077 
-0.466387 0.236893 -0.0632864 -0.877133 0.063084 -0.16139 -0.803665 0.121532 -0.0925565 
-0.685113 0.189297 -0.0472368 -0.523872 0.252773 -0.0572762 -0.361101 0.297367 -0.0883465 
-0.898328 0.0925771 -0.138027 -0.824205 0.147295 -0.103075 -0.717683 0.208834 -0.0641924 
[...]
POINT_DATA 1002
FIELD FieldData 4
_paraPhi 1 1002 double
6.2831853072 3.1415926536 6.2831853072 3.1415926536 4.7123889804 4.7123889804 1.5707963268 1.5707963268 3.6951670125 
5.7296109483 2.5880182947 0.5535743589 6.2831853072 6.2831853072 6.2831853072 6.2831853072 3.1415926536 3.1415926536 
3.1415926536 3.1415926536 3.1415926536 6.1053039672 5.898798347 5.6768734901 5.4599499503 5.2659633393 5.1032165617 
4.9713148346 4.8656852733 4.7809517865 0.17788134 0.38438696014 0.60631181711 0.82323535693 1.0172219679 1.1799687454 
1.3118704726 1.4175000338 1.5022335207 6.1892828907 6.1070320098 6.035312792 5.9728339911 5.9183214791 5.8706119594 
5.8286879411 5.7916808611 5.7588591896 0.093902416448 0.17615329733 0.2478725152 0.31035131605 0.36486382811 0.41257334776 
0.45449736604 0.4915044461 0.52432611754 3.3194739936 3.5259796137 3.7479044707 3.9648280105 4.1588146215 4.321561399 
4.4534631262 4.5590926874 4.6438261743 2.9637113136 2.7572056934 2.5352808365 2.3183572967 2.1243706857 1.9616239082 
1.829722181 1.7240926197 1.6393591329 3.23549507 3.3177459509 3.3894651688 3.4519439696 3.5064564817 3.5541660013 
3.5960900196 3.6330970997 3.6659187711 3.0476902371 2.9654393563 2.8937201384 2.8312413375 2.7767288255 2.7290193058 
2.6870952876 2.6500882075 2.617266536 6.2831853072 6.2831853072 6.2831853072 6.2831853072 3.1415926536 3.1415926536 
3.1415926536 3.1415926536 3.1415926536 6.1053039672 5.898798347 5.6768734901 5.4599499503 5.2659633393 5.1032165617 
4.9713148346 4.8656852733 4.7809517865 0.17788134 0.38438696014 0.60631181711 0.82323535693 1.0172219679 1.1799687454 
1.3118704726 1.4175000338 1.5022335207 6.1892828907 6.1070320098 6.035312792 5.9728339911 5.9183214791 5.8706119594 
5.8286879411 5.7916808611 5.7588591896 0.093902416448 0.17615329733 0.2478725152 0.31035131605 0.36486382811 0.41257334776 
0.45449736604 0.4915044461 0.52432611754 3.3194739936 3.5259796137 3.7479044707 3.9648280105 4.1588146215 4.321561399 
4.4534631262 4.5590926874 4.6438261743 2.9637113136 2.7572056934 2.5352808365 2.3183572967 2.1243706857 1.9616239082 
1.829722181 1.7240926197 1.6393591329 3.23549507 3.3177459509 3.3894651688 3.4519439696 3.5064564817 3.5541660013 
3.5960900196 3.6330970997 3.6659187711 3.0476902371 2.9654393563 2.8937201384 2.8312413375 2.7767288255 2.7290193058 
2.6870952876 2.6500882075 2.617266536 4.7123889804 4.7123889804 4.7123889804 4.7123889804 4.7123889804 4.7123889804 
4.7123889804 4.7123889804 4.7123889804 4.6087898617 4.4991390697 4.3857031936 4.2712800401 4.1588146215 4.0509635631 
3.94975894 3.8564636551 3.7716124825 4.8159880991 4.9256388911 5.0390747672 5.1534979207 5.2659633393 5.3738143976 
5.4750190208 5.5683143056 5.6531654782 4.6087898617 4.4991390697 4.3857031936 4.2712800401 4.1588146215 4.0509635631 
3.94975894 3.8564636551 3.7716124825 4.8159880991 4.9256388911 5.0390747672 5.1534979207 5.2659633393 5.3738143976 
5.4750190208 5.5683143056 5.6531654782 1.5707963268 1.5707963268 1.5707963268 1.5707963268 1.5707963268 1.5707963268 
1.5707963268 1.5707963268 1.5707963268 1.6743954455 1.7840462375 1.8974821136 2.0119052671 2.1243706857 2.232221744 
2.3334263672 2.426721652 2.5115728246 1.4671972081 1.3575464161 1.24411054 1.1296873865 1.0172219679 0.90937090954 
0.80816628637 0.71487100155 0.63001982895 1.6743954455 1.7840462375 1.8974821136 2.0119052671 2.1243706857 2.232221744 
2.3334263672 2.426721652 2.5115728246 1.4671972081 1.3575464161 1.24411054 1.1296873865 1.0172219679 0.90937090954 
0.80816628637 0.71487100155 0.63001982895 3.6007720849 3.4966939854 3.3839471039 3.2645756454 3.1415926536 3.0186096618 
2.8992382033 2.7864913217 2.6824132222 5.8240058758 5.9280839753 6.0408308569 6.1602023154 6.2831853072 0.12298299178 
0.2423544503 0.35510133185 0.45917943135 6.0560271438 5.7885595667 5.9702140275 5.5125918794 5.6029703303 5.7885595667 
5.2659633393 5.2659633393 5.2659633393 5.2659633393 5.0674903122 5.0120975802 4.9155579264 4.7123889804 4.1588146215 
4.9155579264 4.8353719722 4.7123889804 4.5092200343 4.1588146215 3.6362183941 4.8004512023 4.7123889804 4.5894059886 
4.4126803806 4.1588146215 3.8218076305 3.4545639333 4.7123889804 4.6243267584 4.5092200343 4.3572876485 4.1588146215 
3.9121860814 3.6362183941 3.368750817 6.0174235957 5.9434319871 5.8263323547 5.8809213739 5.7674481418 5.6279784266 
5.8278025282 5.718968232 5.5891129425 5.4372443565 5.7823484065 5.678536687 5.5575666702 5.4192596322 5.2659633393 
5.743164462 5.6444075337 5.5314983644 5.4046708639 5.2659633393 5.1195510325 5.7091357773 5.6152775188 5.5096229709 
5.3926039573 5.2659633393 5.1329233157 4.9978930058 5.6793730533 5.5901633916 5.4910209005 5.3824597928 5.2659633393 
5.1440684722 5.0201624502 4.8979782167 5.5683143056 5.4750190208 5.4750190208 5.3738143976 5.3738143976 5.3738143976 
5.2659633393 5.2659633393 5.2659633393 5.2659633393 5.1534979207 5.1534979207 5.1534979207 5.1534979207 5.1534979207 
5.0390747672 5.0390747672 5.0390747672 5.0390747672 5.0390747672 5.0390747672 4.9256388911 4.9256388911 4.9256388911 
4.9256388911 4.9256388911 4.9256388911 4.9256388911 4.8159880991 4.8159880991 4.8159880991 4.8159880991 4.8159880991 
4.8159880991 4.8159880991 4.8159880991 4.6087898617 4.6087898617 4.4991390697 4.6087898617 4.4991390697 4.3857031936 
4.6087898617 4.4991390697 4.3857031936 4.2712800401 4.6087898617 4.4991390697 4.3857031936 4.2712800401 4.1588146215 
4.6087898617 4.4991390697 4.3857031936 4.2712800401 4.1588146215 4.0509635631 4.6087898617 4.4991390697 4.3857031936 
4.2712800401 4.1588146215 4.0509635631 3.94975894 4.6087898617 4.4991390697 4.3857031936 4.2712800401 4.1588146215 
4.0509635631 3.94975894 3.8564636551 4.526799744 4.4046155105 4.426884955 4.2807094886 4.2918546451 4.3052269283 
4.1588146215 4.1588146215 4.1588146215 4.1588146215 4.042318168 4.0321740035 4.0201070968 4.0055183285 3.9875336042 
3.9337570603 3.9151549899 3.8932795963 3.8672112905 3.8356650183 3.7967995342 3.8346145692 3.809500442 3.7803704271 
3.7462412737 3.7058097288 3.657329819 3.5984456061 3.7454049075 3.7156421835 3.6816134988 3.6424295543 3.5969754326 
3.5438565869 3.4813459737 3.4073543651 3.5642842451 3.4524645613 3.5233842518 3.3320300872 3.403123212 3.4773852225 
3.20576226 3.2746326772 3.348015857 3.4255060145 3.0774230472 3.1415926536 3.2112816139 3.2864685043 3.3668817272 
2.95115522 3.00855263 3.0719036933 3.1415926536 3.2178377658 3.3005964304 2.8307207459 2.8800620952 2.9351694502 
2.9967168029 3.0653475414 3.1415926536 3.225752376 2.718901062 2.7598010554 2.8058000847 2.8576792927 2.91630358 
2.9825888767 3.0574329311 3.1415926536 3.5642842451 3.5233842518 3.4524645613 3.4773852225 3.403123212 3.3320300872 
3.4255060145 3.348015857 3.2746326772 3.20576226 3.3668817272 3.2864685043 3.2112816139 3.1415926536 3.0774230472 
3.3005964304 3.2178377658 3.1415926536 3.0719036933 3.00855263 2.95115522 3.225752376 3.1415926536 3.0653475414 
2.9967168029 2.9351694502 2.8800620952 2.8307207459 3.1415926536 3.0574329311 2.9825888767 2.91630358 2.8576792927 
2.8058000847 2.7598010554 2.718901062 4.526799744 4.426884955 4.4046155105 4.3052269283 4.2918546451 4.2807094886 
4.1588146215 4.1588146215 4.1588146215 4.1588146215 3.9875336042 4.0055183285 4.0201070968 4.0321740035 4.042318168 
3.7967995342 3.8356650183 3.8672112905 3.8932795963 3.9151549899 3.9337570603 3.5984456061 3.657329819 3.7058097288 
3.7462412737 3.7803704271 3.809500442 3.8346145692 3.4073543651 3.4813459737 3.5438565869 3.5969754326 3.6424295543 
3.6816134988 3.7156421835 3.7454049075 4.7123889804 4.8004512023 4.6243267584 4.9155579264 4.7123889804 4.5092200343 
5.0674903122 4.8353719722 4.5894059886 4.3572876485 5.2659633393 5.0120975802 4.7123889804 4.4126803806 4.1588146215 
5.5125918794 5.2659633393 4.9155579264 4.5092200343 4.1588146215 3.9121860814 5.7885595667 5.6029703303 5.2659633393 
4.7123889804 4.1588146215 3.8218076305 3.6362183941 6.0560271438 5.9702140275 5.7885595667 5.2659633393 4.1588146215 
3.6362183941 3.4545639333 3.368750817 0.22715816343 0.49462574053 0.3129712797 0.77059342779 0.68021497688 0.49462574053 
1.0172219679 1.0172219679 1.0172219679 1.0172219679 1.2156949949 1.271087727 1.3676273807 1.5707963268 2.1243706857 
1.3676273807 1.447813335 1.5707963268 1.7739652728 2.1243706857 2.6469669131 1.4827341049 1.5707963268 1.6937793186 
1.8705049266 2.1243706857 2.4613776767 2.8286213739 1.5707963268 1.6588585487 1.7739652728 1.9258976586 2.1243706857 
2.3709992258 2.6469669131 2.9144344902 1.7563855631 1.8785697967 1.8563003522 2.0024758186 1.9913306621 1.9779583789 
2.1243706857 2.1243706857 2.1243706857 2.1243706857 2.2408671392 2.2510113037 2.2630782103 2.2776669786 2.295651703 
2.3494282469 2.3680303173 2.3899057108 2.4159740166 2.4475202889 2.486385773 2.448570738 2.4736848652 2.5028148801 
2.5369440334 2.5773755784 2.6258554882 2.6847397011 2.5377803997 2.5675431237 2.6015718084 2.6407557529 2.6862098746 
2.7393287203 2.8018393335 2.8758309421 1.6743954455 1.6743954455 1.7840462375 1.6743954455 1.7840462375 1.8974821136 
1.6743954455 1.7840462375 1.8974821136 2.0119052671 1.6743954455 1.7840462375 1.8974821136 2.0119052671 2.1243706857 
1.6743954455 1.7840462375 1.8974821136 2.0119052671 2.1243706857 2.232221744 1.6743954455 1.7840462375 1.8974821136 
2.0119052671 2.1243706857 2.232221744 2.3334263672 1.6743954455 1.7840462375 1.8974821136 2.0119052671 2.1243706857 
2.232221744 2.3334263672 2.426721652 1.4671972081 1.3575464161 1.4671972081 1.24411054 1.3575464161 1.4671972081 
1.1296873865 1.24411054 1.3575464161 1.4671972081 1.0172219679 1.1296873865 1.24411054 1.3575464161 1.4671972081 
0.90937090954 1.0172219679 1.1296873865 1.24411054 1.3575464161 1.4671972081 0.80816628637 0.90937090954 1.0172219679 
1.1296873865 1.24411054 1.3575464161 1.4671972081 0.71487100155 0.80816628637 0.90937090954 1.0172219679 1.1296873865 
1.24411054 1.3575464161 1.4671972081 0.60381225391 0.57404952988 0.69302191562 0.54002084522 0.66790778838 0.79216440667 
0.50083690068 0.63877777351 0.77356233629 0.90072551443 0.45538277901 0.60464862014 0.75168694275 0.89058134991 1.0172219679 
0.40226393329 0.56421707518 0.72561863695 0.87851444325 1.0172219679 1.139116835 0.33975332011 0.51573716537 0.69407236469 
0.86392567495 1.0172219679 1.1502619915 1.2630228569 0.26576171152 0.45685295248 0.6552068806 0.84594095064 1.0172219679 
1.1636342747 1.2852923014 1.3852070904 0.22715816343 0.3129712797 0.49462574053 0.49462574053 0.68021497688 0.77059342779 
1.0172219679 1.0172219679 1.0172219679 1.0172219679 2.1243706857 1.5707963268 1.3676273807 1.271087727 1.2156949949 
2.6469669131 2.1243706857 1.7739652728 1.5707963268 1.447813335 1.3676273807 2.8286213739 2.4613776767 2.1243706857 
1.8705049266 1.6937793186 1.5707963268 1.4827341049 2.9144344902 2.6469669131 2.3709992258 2.1243706857 1.9258976586 
1.7739652728 1.6588585487 1.5707963268 1.7563855631 1.8563003522 1.8785697967 1.9779583789 1.9913306621 2.0024758186 
2.1243706857 2.1243706857 2.1243706857 2.1243706857 2.295651703 2.2776669786 2.2630782103 2.2510113037 2.2408671392 
2.486385773 2.4475202889 2.4159740166 2.3899057108 2.3680303173 2.3494282469 2.6847397011 2.6258554882 2.5773755784 
2.5369440334 2.5028148801 2.4736848652 2.448570738 2.8758309421 2.8018393335 2.7393287203 2.6862098746 2.6407557529 
2.6015718084 2.5675431237 2.5377803997 5.8604937156 5.901393709 5.9723133995 5.9473927383 6.0216547488 6.0927478736 
5.9992719463 6.0767621038 6.1501452836 6.2190157008 6.0578962336 6.1383094565 6.2134963469 0 0.064169606361 
6.1241815303 6.206940195 6.2831853072 0.069688960264 0.13304002361 0.19043743361 6.1990255847 0 0.07624511221 
0.14487585072 0.20642320337 0.26153055843 0.3108719077 0 0.084159722458 0.15900377685 0.22528907359 0.28391336087 
0.3357925689 0.38179159818 0.42269159155 5.8604937156 5.9723133995 5.901393709 6.0927478736 6.0216547488 5.9473927383 
6.2190157008 6.1501452836 6.0767621038 5.9992719463 0.064169606361 0 6.2134963469 6.1383094565 6.0578962336 
0.19043743361 0.13304002361 0.069688960264 6.2831853072 6.206940195 6.1241815303 0.3108719077 0.26153055843 0.20642320337 
0.14487585072 0.07624511221 6.2831853072 6.1990255847 0.42269159155 0.38179159818 0.3357925689 0.28391336087 0.22528907359 
0.15900377685 0.084159722458 0 5.6793730533 5.7091357773 5.5901633916 5.743164462 5.6152775188 5.4910209005 
5.7823484065 5.6444075337 5.5096229709 5.3824597928 5.8278025282 5.678536687 5.5314983644 5.3926039573 5.2659633393 
5.8809213739 5.718968232 5.5575666702 5.4046708639 5.2659633393 5.1440684722 5.9434319871 5.7674481418 5.5891129425 
5.4192596322 5.2659633393 5.1329233157 5.0201624502 6.0174235957 5.8263323547 5.6279784266 5.4372443565 5.2659633393 
5.1195510325 4.9978930058 4.8979782167 1.3852070904 1.2852923014 1.2630228569 1.1636342747 1.1502619915 1.139116835 
1.0172219679 1.0172219679 1.0172219679 1.0172219679 0.84594095064 0.86392567495 0.87851444325 0.89058134991 0.90072551443 
0.6552068806 0.69407236469 0.72561863695 0.75168694275 0.77356233629 0.79216440667 0.45685295248 0.51573716537 0.56421707518 
0.60464862014 0.63877777351 0.66790778838 0.69302191562 0.26576171152 0.33975332011 0.40226393329 0.45538277901 0.50083690068 
0.54002084522 0.57404952988 0.60381225391 
_paraPhiHalf 1 1002 double
0 3.1415926536 0 3.1415926536 1.5707963268 1.5707963268 1.5707963268 1.5707963268 2.5880182947 
0.5535743589 2.5880182947 0.5535743589 0 0 0 0 3.1415926536 3.1415926536 
3.1415926536 3.1415926536 3.1415926536 0.17788134 0.38438696014 0.60631181711 0.82323535693 1.0172219679 1.1799687454 
1.3118704726 1.4175000338 1.5022335207 0.17788134 0.38438696014 0.60631181711 0.82323535693 1.0172219679 1.1799687454 
1.3118704726 1.4175000338 1.5022335207 0.093902416448 0.17615329733 0.2478725152 0.31035131605 0.36486382811 0.41257334776 
0.45449736604 0.4915044461 0.52432611754 0.093902416448 0.17615329733 0.2478725152 0.31035131605 0.36486382811 0.41257334776 
0.45449736604 0.4915044461 0.52432611754 2.9637113136 2.7572056934 2.5352808365 2.3183572967 2.1243706857 1.9616239082 
1.829722181 1.7240926197 1.6393591329 2.9637113136 2.7572056934 2.5352808365 2.3183572967 2.1243706857 1.9616239082 
1.829722181 1.7240926197 1.6393591329 3.0476902371 2.9654393563 2.8937201384 2.8312413375 2.7767288255 2.7290193058 
2.6870952876 2.6500882075 2.617266536 3.0476902371 2.9654393563 2.8937201384 2.8312413375 2.7767288255 2.7290193058 
2.6870952876 2.6500882075 2.617266536 0 0 0 0 3.1415926536 3.1415926536 
3.1415926536 3.1415926536 3.1415926536 0.17788134 0.38438696014 0.60631181711 0.82323535693 1.0172219679 1.1799687454 
1.3118704726 1.4175000338 1.5022335207 0.17788134 0.38438696014 0.60631181711 0.82323535693 1.0172219679 1.1799687454 
1.3118704726 1.4175000338 1.5022335207 0.093902416448 0.17615329733 0.2478725152 0.31035131605 0.36486382811 0.41257334776 
0.45449736604 0.4915044461 0.52432611754 0.093902416448 0.17615329733 0.2478725152 0.31035131605 0.36486382811 0.41257334776 
0.45449736604 0.4915044461 0.52432611754 2.9637113136 2.7572056934 2.5352808365 2.3183572967 2.1243706857 1.9616239082 
1.829722181 1.7240926197 1.6393591329 2.9637113136 2.7572056934 2.5352808365 2.3183572967 2.1243706857 1.9616239082 
1.829722181 1.7240926197 1.6393591329 3.0476902371 2.9654393563 2.8937201384 2.8312413375 2.7767288255 2.7290193058 
2.6870952876 2.6500882075 2.617266536 3.0476902371 2.9654393563 2.8937201384 2.8312413375 2.7767288255 2.7290193058 
2.6870952876 2.6500882075 2.617266536 1.5707963268 1.5707963268 1.5707963268 1.5707963268 1.5707963268 1.5707963268 
1.5707963268 1.5707963268 1.5707963268 1.6743954455 1.7840462375 1.8974821136 2.0119052671 2.1243706857 2.232221744 
2.3334263672 2.426721652 2.5115728246 1.4671972081 1.3575464161 1.24411054 1.1296873865 1.0172219679 0.90937090954 
0.80816628637 0.71487100155 0.63001982895 1.6743954455 1.7840462375 1.8974821136 2.0119052671 2.1243706857 2.232221744 
2.3334263672 2.426721652 2.5115728246 1.4671972081 1.3575464161 1.24411054 1.1296873865 1.0172219679 0.90937090954 
0.80816628637 0.71487100155 0.63001982895 1.5707963268 1.5707963268 1.5707963268 1.5707963268 1.5707963268 1.5707963268 
1.5707963268 1.5707963268 1.5707963268 1.6743954455 1.7840462375 1.8974821136 2.0119052671 2.1243706857 2.232221744 
2.3334263672 2.426721652 2.5115728246 1.4671972081 1.3575464161 1.24411054 1.1296873865 1.0172219679 0.90937090954 
0.80816628637 0.71487100155 0.63001982895 1.6743954455 1.7840462375 1.8974821136 2.0119052671 2.1243706857 2.232221744 
2.3334263672 2.426721652 2.5115728246 1.4671972081 1.3575464161 1.24411054 1.1296873865 1.0172219679 0.90937090954 
0.80816628637 0.71487100155 0.63001982895 2.6824132222 2.7864913217 2.8992382033 3.0186096618 3.1415926536 3.0186096618 
2.8992382033 2.7864913217 2.6824132222 0.45917943135 0.35510133185 0.2423544503 0.12298299178 0 0.12298299178 
0.2423544503 0.35510133185 0.45917943135 0.22715816343 0.49462574053 0.3129712797 0.77059342779 0.68021497688 0.49462574053 
1.0172219679 1.0172219679 1.0172219679 1.0172219679 1.2156949949 1.271087727 1.3676273807 1.5707963268 2.1243706857 
1.3676273807 1.447813335 1.5707963268 1.7739652728 2.1243706857 2.6469669131 1.4827341049 1.5707963268 1.6937793186 
1.8705049266 2.1243706857 2.4613776767 2.8286213739 1.5707963268 1.6588585487 1.7739652728 1.9258976586 2.1243706857 
2.3709992258 2.6469669131 2.9144344902 0.26576171152 0.33975332011 0.45685295248 0.40226393329 0.51573716537 0.6552068806 
0.45538277901 0.56421707518 0.69407236469 0.84594095064 0.50083690068 0.60464862014 0.72561863695 0.86392567495 1.0172219679 
0.54002084522 0.63877777351 0.75168694275 0.87851444325 1.0172219679 1.1636342747 0.57404952988 0.66790778838 0.77356233629 
0.89058134991 1.0172219679 1.1502619915 1.2852923014 0.60381225391 0.69302191562 0.79216440667 0.90072551443 1.0172219679 
1.139116835 1.2630228569 1.3852070904 0.71487100155 0.80816628637 0.80816628637 0.90937090954 0.90937090954 0.90937090954 
1.0172219679 1.0172219679 1.0172219679 1.0172219679 1.1296873865 1.1296873865 1.1296873865 1.1296873865 1.1296873865 
1.24411054 1.24411054 1.24411054 1.24411054 1.24411054 1.24411054 1.3575464161 1.3575464161 1.3575464161 
1.3575464161 1.3575464161 1.3575464161 1.3575464161 1.4671972081 1.4671972081 1.4671972081 1.4671972081 1.4671972081 
1.4671972081 1.4671972081 1.4671972081 1.6743954455 1.6743954455 1.7840462375 1.6743954455 1.7840462375 1.8974821136 
1.6743954455 1.7840462375 1.8974821136 2.0119052671 1.6743954455 1.7840462375 1.8974821136 2.0119052671 2.1243706857 
1.6743954455 1.7840462375 1.8974821136 2.0119052671 2.1243706857 2.232221744 1.6743954455 1.7840462375 1.8974821136 
2.0119052671 2.1243706857 2.232221744 2.3334263672 1.6743954455 1.7840462375 1.8974821136 2.0119052671 2.1243706857 
2.232221744 2.3334263672 2.426721652 1.7563855631 1.8785697967 1.8563003522 2.0024758186 1.9913306621 1.9779583789 
2.1243706857 2.1243706857 2.1243706857 2.1243706857 2.2408671392 2.2510113037 2.2630782103 2.2776669786 2.295651703 
2.3494282469 2.3680303173 2.3899057108 2.4159740166 2.4475202889 2.486385773 2.448570738 2.4736848652 2.5028148801 
2.5369440334 2.5773755784 2.6258554882 2.6847397011 2.5377803997 2.5675431237 2.6015718084 2.6407557529 2.6862098746 
2.7393287203 2.8018393335 2.8758309421 2.718901062 2.8307207459 2.7598010554 2.95115522 2.8800620952 2.8058000847 
3.0774230472 3.00855263 2.9351694502 2.8576792927 3.0774230472 3.1415926536 3.0719036933 2.9967168029 2.91630358 
2.95115522 3.00855263 3.0719036933 3.1415926536 3.0653475414 2.9825888767 2.8307207459 2.8800620952 2.9351694502 
2.9967168029 3.0653475414 3.1415926536 3.0574329311 2.718901062 2.7598010554 2.8058000847 2.8576792927 2.91630358 
2.9825888767 3.0574329311 3.1415926536 2.718901062 2.7598010554 2.8307207459 2.8058000847 2.8800620952 2.95115522 
2.8576792927 2.9351694502 3.00855263 3.0774230472 2.91630358 2.9967168029 3.0719036933 3.1415926536 3.0774230472 
2.9825888767 3.0653475414 3.1415926536 3.0719036933 3.00855263 2.95115522 3.0574329311 3.1415926536 3.0653475414 