# vtk DataFile Version 5.1
vtk output
ASCII
DATASET POLYDATA
POINTS 1002 float
-12.371 0.547332 -1.02878 11.2248 0.0729483 -4.22535 -10.3164 1.62543 3.4014 
9.87821 -0.412547 4.13998 1.02753 7.58903 -2.45027 0.219004 7.1952 2.2002 
1.77789 -2.0494 -1.0688 1.61487 -3.00994 2.04128 17.6017 2.54184 -0.569147 
-17.7849 2.18064 -0.19495 18.0411 -7.72987 -1.34884 -18.1938 -9.77281 -0.892164 
-10.1651 1.29226 -1.09796 -7.58571 1.85557 -1.31498 -4.96931 2.25868 -1.41962 
-2.42745 2.50278 -1.49824 0.221527 2.50276 -1.92344 3.04426 2.21452 -2.79788 
5.77884 1.72901 -3.75363 8.10479 1.16738 -4.35574 9.89627 0.600038 -4.46411 
-11.3668 1.30414 -1.04559 -10.1877 2.13875 -1.09709 -8.8293 3.05092 -1.15378 
-7.23707 4.0049 -1.30851 -5.50162 4.9249 -1.65501 -3.90458 5.71892 -2.03673 
-2.58396 6.33998 -2.20436 -1.39039 6.82368 -2.19469 -0.175876 7.2327 -2.24487 
-11.9774 0.34958 -0.974347 -11.2673 0.154339 -0.969424 -10.1659 -0.0670443 -1.08154 
-8.83107 -0.260665 -1.17467 -7.5029 -0.336368 -0.99028 -6.14712 -0.338604 -0.540114 
-4.49256 -0.445643 -0.190331 -2.44973 -0.780381 -0.228565 -0.252225 -1.33749 -0.596785 
-13.6535 0.129977 -1.2152 -14.7046 -0.289357 -1.68612 -15.4788 -0.554149 -2.5122 
-15.998 -0.537379 -3.45256 -16.3854 -0.237247 -3.89633 -16.8033 0.221625 -3.46161 
-17.2792 0.701733 -2.49758 -17.6761 1.16546 -1.58012 -17.8553 1.65279 -0.863891 
-14.0283 -0.565222 -1.33314 -15.377 -1.98119 -2.15831 -16.3579 -3.56664 -3.29381 
-17.0225 -5.13877 -4.26886 -17.3639 -6.66762 -4.7676 -17.4039 -8.20274 -4.72657 
-17.3788 -9.56189 -4.12865 -17.5368 -10.3592 -3.0785 -17.8682 -10.3845 -1.89651 
10.7582 0.855041 -4.42946 10.2224 1.71452 -4.72646 9.59564 2.61372 -5.0563 
8.77164 3.52963 -5.20089 7.7382 4.43227 -5.07106 6.62237 5.27009 -4.82617 
5.45004 6.00883 -4.53157 4.10876 6.64273 -4.03253 2.58768 7.16828 -3.27916 
10.8951 -0.368759 -4.27316 10.4617 -0.82961 -4.30842 9.86092 -1.25881 -4.22553 
9.08432 -1.63393 -4.0461 8.19217 -2.00668 -3.88395 7.17709 -2.35129 -3.66298 
5.95155 -2.50178 -3.16494 4.54252 -2.39788 -2.40806 3.11286 -2.19262 -1.64839 
12.1291 0.045924 -4.00347 13.0639 0.101807 -3.79757 14.0075 0.318244 -3.55855 
14.9266 0.658583 -3.23719 15.8189 0.973985 -2.93154 16.6679 1.22597 -2.72089 
17.3711 1.53517 -2.44512 17.7892 1.93371 -1.92681 17.8547 2.29924 -1.23779 
12.1464 -0.698919 -3.81329 12.9559 -1.48098 -3.23127 13.7223 -2.31522 -2.63424 
14.5907 -3.26947 -2.2763 15.5505 -4.26667 -2.25268 16.4045 -5.14376 -2.38121 
17.065 -5.90191 -2.41923 17.5983 -6.63874 -2.25486 17.9724 -7.30098 -1.88271 
-8.57668 2.01986 3.75574 -6.51863 2.2489 4.07556 -3.95523 2.19698 3.92567 
-1.09908 1.90912 3.36176 1.48148 1.54033 3.10923 3.52556 1.16023 3.53871 
5.27636 0.747149 4.10519 6.95044 0.318 4.28214 8.50925 -0.0756428 4.19177 
-9.6365 2.18111 3.62862 -8.79892 2.80355 3.82619 -7.83759 3.535 4.02708 
-6.77896 4.33758 4.16002 -5.59085 5.04568 4.03069 -4.28494 5.55573 3.61312 
-2.99421 5.97192 3.14865 -1.82806 6.41352 2.80499 -0.771527 6.84777 2.51932 
-9.81319 1.34894 3.31058 -9.13743 1.0428 3.25575 -8.30464 0.714708 3.28424 
-7.30796 0.39519 3.35767 -6.03388 0.0507344 3.31707 -4.40368 -0.408083 3.03927 
-2.60701 -0.997172 2.62296 -0.958091 -1.65158 2.28402 0.424156 -2.32692 2.1125 
-11.6753 1.53843 3.38828 -13.1793 1.51663 3.50963 -14.6714 1.55267 3.54311 
-15.8487 1.55574 3.25692 -16.5705 1.50934 2.69028 -17.0316 1.51974 2.04864 
-17.4569 1.63773 1.42192 -17.8113 1.8044 0.814189 -17.9385 1.98092 0.264204 
-11.8088 0.960431 3.13064 -13.4756 0.156264 2.95261 -15.1594 -0.808532 2.76488 
-16.6067 -2.03356 2.34861 -17.728 -3.60059 1.63634 -18.636 -5.3625 0.899571 
-19.2958 -6.99139 0.438929 -19.4461 -8.27577 0.16904 -18.9927 -9.19654 -0.231112 
9.27146 0.419051 4.23542 8.61088 1.30289 4.19668 7.939 2.1585 3.95408 
7.18812 2.97016 3.55844 6.2427 3.7868 3.15373 5.10632 4.61376 2.82502 
3.88466 5.39843 2.56096 2.64434 6.10486 2.35652 1.40932 6.71248 2.23639 
9.58217 -0.998689 4.01037 9.09212 -1.56204 3.95241 8.37804 -2.10228 3.99595 
7.52871 -2.59767 4.03117 6.64726 -2.97022 3.91415 5.74771 -3.18954 3.63768 
4.82578 -3.31543 3.27294 3.87934 -3.35893 2.84612 2.83602 -3.25724 2.40012 
10.8287 -0.210552 4.26729 11.8366 0.0318289 4.36898 12.9041 0.294447 4.24362 
14.03 0.581783 3.75187 15.217 0.904911 2.95189 16.3723 1.25472 2.07539 
17.2737 1.61 1.31683 17.7554 1.95314 0.673018 17.8298 2.26855 0.0497015 
11.044 -1.11566 4.07732 12.2679 -1.85236 3.98597 13.5053 -2.6078 3.71693 
14.6498 -3.40853 3.20768 15.6279 -4.29055 2.60533 16.5331 -5.23933 1.99896 
17.4287 -6.16282 1.26423 18.1018 -6.92989 0.359033 18.2977 -7.45247 -0.558308 
0.791314 8.02748 -2.14916 0.518904 8.47989 -1.84122 0.181194 8.93747 -1.31511 
-0.170023 9.29902 -0.443357 -0.358238 9.36452 0.515388 -0.278886 9.04772 1.15167 
-0.0728888 8.52832 1.43844 0.0673809 8.0367 1.65762 0.132308 7.61628 1.94025 
3.17949 7.66703 -3.19374 5.27719 7.66111 -3.69687 7.29934 7.47073 -3.78505 
9.42941 7.05198 -3.63692 11.5848 6.47257 -3.42842 13.3333 5.78702 -3.01752 
14.5421 4.96789 -2.31521 15.5456 4.05819 -1.55625 16.5895 3.21419 -0.974216 
-1.3444 7.74824 -1.51654 -3.75 7.84364 -0.889346 -5.93087 7.77181 -0.762862 
-8.02078 7.4036 -0.78263 -10.3585 6.70324 -0.49157 -12.8079 5.79641 -0.060214 
-14.8171 4.856 0.075686 -16.1651 3.95361 -0.0528771 -17.0781 3.06861 -0.165357 
1.91871 7.1894 1.89712 3.67875 7.04054 1.67832 5.56311 6.71547 1.53062 
7.63005 6.29359 1.37759 9.80434 5.84521 1.10934 11.885 5.29795 0.715916 
13.7018 4.58786 0.334513 15.2282 3.81791 0.0506603 16.5212 3.12662 -0.218007 
-1.69632 7.40587 2.48893 -3.85255 7.5638 2.83756 -5.97793 7.59815 3.0083 
-7.94214 7.35571 2.90468 -10.0106 6.7665 2.72367 -12.364 5.97861 2.58428 
-14.5883 5.1571 2.24733 -16.1768 4.27784 1.52608 -17.1386 3.26865 0.613131 
2.15688 -2.52496 -1.08063 2.486 -3.07338 -1.07635 2.61363 -3.56475 -0.905283 
2.47456 -3.88882 -0.476419 2.15962 -4.03116 0.117531 1.81909 -4.00601 0.698037 
1.56683 -3.82183 1.16935 1.46568 -3.54314 1.53086 1.50628 -3.26108 1.81243 
4.33473 -3.00442 -1.80448 6.49745 -4.12874 -2.27304 8.33597 -5.30253 -2.35481 
10.2714 -6.53934 -2.3928 12.3646 -7.80854 -2.73838 14.1144 -8.78209 -3.13955 
15.2857 -9.10482 -3.09975 16.2124 -8.83097 -2.5921 17.1608 -8.29472 -1.94326 
-0.919186 -1.5827 -0.360901 -4.03514 -1.45663 0.080241 -7.32875 -1.82959 0.140764 
-10.4587 -2.71434 -0.0954367 -12.9732 -4.02793 -0.525911 -14.5452 -5.62862 -1.07989 
-15.3873 -7.24793 -1.52705 -16.1088 -8.56229 -1.59316 -17.0777 -9.3974 -1.2929 
3.52294 -3.91917 2.2116 5.43061 -4.86812 2.29386 7.41095 -5.81764 2.0444 
9.32342 -6.75696 1.57615 10.9552 -7.60048 1.19133 12.4463 -8.20789 0.840586 
14.0972 -8.51345 0.277119 15.8075 -8.52476 -0.426455 17.1885 -8.25169 -1.00407 
-0.779693 -2.27384 1.9486 -3.92938 -1.73987 2.21773 -7.36915 -1.88577 2.58013 
-10.2879 -2.87048 2.49608 -12.3469 -4.16208 1.84949 -13.9578 -5.15545 1.11616 
-15.4837 -5.99549 0.622945 -16.7848 -7.15353 0.221791 -17.6666 -8.5752 -0.281975 
18.7837 1.84259 -0.609457 19.7806 1.05387 -0.484096 20.3873 0.0318014 0.054133 
20.6274 -1.17863 0.824145 20.594 -2.36329 1.20043 20.3138 -3.48596 0.829207 
19.88 -4.67563 0.0446791 19.3955 -5.87958 -0.650056 18.8095 -6.91514 -1.08945 
-18.5948 0.821196 -0.658211 -19.4605 -0.758369 -1.22827 -20.1473 -2.43091 -1.96815 
-20.5512 -4.1075 -2.67682 -20.8425 -5.77479 -2.94122 -21.0289 -7.42567 -2.61149 
-20.8083 -8.92297 -1.99476 -20.0936 -9.94384 -1.45609 -19.1463 -10.2105 -1.10688 
-8.94136 2.00442 -1.28058 -7.6301 2.82126 -1.38229 -6.3268 2.55641 -1.44631 
-6.21854 3.71363 -1.39732 -5.06819 3.37469 -1.4096 -3.76928 2.95602 -1.43723 
-4.61006 4.56854 -1.57301 -3.66164 4.18367 -1.42927 -2.49732 3.69493 -1.45206 
-1.13209 3.1058 -1.68341 -2.88772 5.28082 -2.06441 -1.95613 4.82212 -1.89785 
-0.912234 4.27954 -1.8589 0.38188 3.62428 -2.13207 1.76272 2.91828 -2.51297 
-1.28743 5.83919 -2.62426 -0.127255 5.28698 -2.759 0.964935 4.66401 -2.7932 
2.18364 3.9573 -3.01342 3.48088 3.22248 -3.34411 4.68322 2.48966 -3.58114 
0.12121 6.30961 -2.96827 1.53466 5.70679 -3.5167 2.7733 5.02109 -3.78828 
3.98555 4.25639 -4.01899 5.21072 3.47579 -4.26482 6.30065 2.73046 -4.36003 
7.23305 1.97367 -4.33488 1.41232 6.75304 -3.13601 2.94165 6.16718 -3.90343 
4.26853 5.48357 -4.36689 5.4723 4.70628 -4.65414 6.65537 3.87088 -4.89746 
7.70827 3.04569 -4.96207 8.53815 2.24167 -4.78872 9.24085 1.4215 -4.57642 
-12.7725 1.0553 -0.975191 -14.001 0.807935 -1.13769 -11.66 2.05593 -0.805731 
-14.8843 0.670753 -1.73844 -12.9778 1.96674 -0.706385 -10.1896 3.12108 -0.820396 
-15.3788 0.762974 -2.54482 -13.8882 1.96073 -1.07318 -11.4006 3.20658 -0.647659 
-8.34219 4.23728 -1.13204 -15.6891 1.12828 -2.88676 -14.375 2.17373 -1.65551 
-12.2545 3.38586 -0.844882 -9.37043 4.52129 -1.02449 -6.45896 5.31898 -1.58027 
-16.0682 1.65585 -2.46889 -14.7424 2.63458 -1.84365 -12.8371 3.73532 -1.14812 
-10.214 4.86201 -1.07638 -7.44554 5.74421 -1.42674 -4.94466 6.21963 -1.76755 
-16.536 2.1781 -1.67512 -15.2405 3.17221 -1.45707 -13.4513 4.19122 -1.10425 
-10.9955 5.23173 -1.07673 -8.36356 6.12956 -1.29109 -6.01359 6.68808 -1.40093 
-3.76441 6.87782 -1.60039 -16.9231 2.63745 -0.894613 -15.7939 3.61452 -0.783028 
-14.1879 4.58715 -0.624957 -11.8958 5.56124 -0.740371 -9.31081 6.44651 -1.04822 
-7.00288 7.07223 -1.12133 -4.89464 7.35238 -1.07358 -2.60829 7.36076 -1.423 
-16.406 4.08748 0.694521 -15.1946 5.03808 1.57967 -15.3041 4.93072 0.831627 
-13.2019 5.97689 2.18567 -13.7455 5.93271 1.61398 -13.602 5.88073 0.809684 
-10.7527 6.91918 2.43411 -11.549 7.01494 2.0833 -11.8526 7.01792 1.3905 
-11.3471 6.90418 0.400518 -8.44973 7.64945 2.55825 -9.21945 7.94392 2.28651 
-9.85579 8.13273 1.77844 -9.76429 8.06639 0.854676 -8.97541 7.76935 -0.132484 
-6.35768 7.95685 2.65158 -6.98584 8.37151 2.37045 -7.75224 8.79239 2.00404 
-8.05375 8.95777 1.25803 -7.58161 8.71723 0.304999 -6.72556 8.24474 -0.395536 
-4.16617 7.9384 2.55247 -4.62285 8.35325 2.29017 -5.30824 8.86672 2.02401 
-5.83408 9.27421 1.4667 -5.72471 9.2726 0.585825 -5.08612 8.87095 -0.18945 
[...]
POINT_DATA 1002
FIELD FieldData 4
_paraPhi 1 1002 double
6.2831853072 3.1415926536 6.2831853072 3.1415926536 4.7123889804 4.7123889804 1.5707963268 1.5707963268 3.6951670125 
5.7296109483 2.5880182947 0.5535743589 6.2831853072 6.2831853072 6.2831853072 6.2831853072 3.1415926536 3.1415926536 
3.1415926536 3.1415926536 3.1415926536 6.1053039672 5.898798347 5.6768734901 5.4599499503 5.2659633393 5.1032165617 
4.9713148346 4.8656852733 4.7809517865 0.17788134 0.38438696014 0.60631181711 0.82323535693 1.0172219679 1.1799687454 
1.3118704726 1.4175000338 1.5022335207 6.1892828907 6.1070320098 6.035312792 5.9728339911 5.9183214791 5.8706119594 
5.8286879411 5.7916808611 5.7588591896 0.093902416448 0.17615329733 0.2478725152 0.31035131605 0.36486382811 0.41257334776 
0.45449736604 0.4915044461 0.52432611754 3.3194739936 3.5259796137 3.7479044707 3.9648280105 4.1588146215 4.321561399 
4.4534631262 4.5590926874 4.6438261743 2.9637113136 2.7572056934 2.5352808365 2.3183572967 2.1243706857 1.9616239082 
1.829722181 1.7240926197 1.6393591329 3.23549507 3.3177459509 3.3894651688 3.4519439696 3.5064564817 3.5541660013 
3.5960900196 3.6330970997 3.6659187711 3.0476902371 2.9654393563 2.8937201384 2.8312413375 2.7767288255 2.7290193058 
2.6870952876 2.6500882075 2.617266536 6.2831853072 6.2831853072 6.2831853072 6.2831853072 3.1415926536 3.1415926536 
3.1415926536 3.1415926536 3.1415926536 6.1053039672 5.898798347 5.6768734901 5.4599499503 5.2659633393 5.1032165617 
4.9713148346 4.8656852733 4.7809517865 0.17788134 0.38438696014 0.60631181711 0.82323535693 1.0172219679 1.1799687454 
1.3118704726 1.4175000338 1.5022335207 6.1892828907 6.1070320098 6.035312792 5.9728339911 5.9183214791 5.8706119594 
5.8286879411 5.7916808611 5.7588591896 0.093902416448 0.17615329733 0.2478725152 0.31035131605 0.36486382811 0.41257334776 
0.45449736604 0.4915044461 0.52432611754 3.3194739936 3.5259796137 3.7479044707 3.9648280105 4.1588146215 4.321561399 
4.4534631262 4.5590926874 4.6438261743 2.9637113136 2.7572056934 2.5352808365 2.3183572967 2.1243706857 1.9616239082 
1.829722181 1.7240926197 1.6393591329 3.23549507 3.3177459509 3.3894651688 3.4519439696 3.5064564817 3.5541660013 
3.5960900196 3.6330970997 3.6659187711 3.0476902371 2.9654393563 2.8937201384 2.8312413375 2.7767288255 2.7290193058 
2.6870952876 2.6500882075 2.617266536 4.7123889804 4.7123889804 4.7123889804 4.7123889804 4.7123889804 4.7123889804 
4.7123889804 4.7123889804 4.7123889804 4.6087898617 4.4991390697 4.3857031936 4.2712800401 4.1588146215 4.0509635631 
3.94975894 3.8564636551 3.7716124825 4.8159880991 4.9256388911 5.0390747672 5.1534979207 5.2659633393 5.3738143976 
5.4750190208 5.5683143056 5.6531654782 4.6087898617 4.4991390697 4.3857031936 4.2712800401 4.1588146215 4.0509635631 
3.94975894 3.8564636551 3.7716124825 4.8159880991 4.9256388911 5.0390747672 5.1534979207 5.2659633393 5.3738143976 
5.4750190208 5.5683143056 5.6531654782 1.5707963268 1.5707963268 1.5707963268 1.5707963268 1.5707963268 1.5707963268 
1.5707963268 1.5707963268 1.5707963268 1.6743954455 1.7840462375 1.8974821136 2.0119052671 2.1243706857 2.232221744 
2.3334263672 2.426721652 2.5115728246 1.4671972081 1.3575464161 1.24411054 1.1296873865 1.0172219679 0.90937090954 
0.80816628637 0.71487100155 0.63001982895 1.6743954455 1.7840462375 1.8974821136 2.0119052671 2.1243706857 2.232221744 
2.3334263672 2.426721652 2.5115728246 1.4671972081 1.3575464161 1.24411054 1.1296873865 1.0172219679 0.90937090954 
0.80816628637 0.71487100155 0.63001982895 3.6007720849 3.4966939854 3.3839471039 3.2645756454 3.1415926536 3.0186096618 
2.8992382033 2.7864913217 2.6824132222 5.8240058758 5.9280839753 6.0408308569 6.1602023154 6.2831853072 0.12298299178 
0.2423544503 0.35510133185 0.45917943135 6.0560271438 5.7885595667 5.9702140275 5.5125918794 5.6029703303 5.7885595667 
5.2659633393 5.2659633393 5.2659633393 5.2659633393 5.0674903122 5.0120975802 4.9155579264 4.7123889804 4.1588146215 
4.9155579264 4.8353719722 4.7123889804 4.5092200343 4.1588146215 3.6362183941 4.8004512023 4.7123889804 4.5894059886 
4.4126803806 4.1588146215 3.8218076305 3.4545639333 4.7123889804 4.6243267584 4.5092200343 4.3572876485 4.1588146215 
3.9121860814 3.6362183941 3.368750817 6.0174235957 5.9434319871 5.8263323547 5.8809213739 5.7674481418 5.6279784266 
5.8278025282 5.718968232 5.5891129425 5.4372443565 5.7823484065 5.678536687 5.5575666702 5.4192596322 5.2659633393 
5.743164462 5.6444075337 5.5314983644 5.4046708639 5.2659633393 5.1195510325 5.7091357773 5.6152775188 5.5096229709 
5.3926039573 5.2659633393 5.1329233157 4.9978930058 5.6793730533 5.5901633916 5.4910209005 5.3824597928 5.2659633393 
5.1440684722 5.0201624502 4.8979782167 5.5683143056 5.4750190208 5.4750190208 5.3738143976 5.3738143976 5.3738143976 
5.2659633393 5.2659633393 5.2659633393 5.2659633393 5.1534979207 5.1534979207 5.1534979207 5.1534979207 5.1534979207 
5.0390747672 5.0390747672 5.0390747672 5.0390747672 5.0390747672 5.0390747672 4.9256388911 4.9256388911 4.9256388911 
4.9256388911 4.9256388911 4.9256388911 4.9256388911 4.8159880991 4.8159880991 4.8159880991 4.8159880991 4.8159880991 
4.8159880991 4.8159880991 4.8159880991 4.6087898617 4.6087898617 4.4991390697 4.6087898617 4.4991390697 4.3857031936 
4.6087898617 4.4991390697 4.3857031936 4.2712800401 4.6087898617 4.4991390697 4.3857031936 4.2712800401 4.1588146215 
4.6087898617 4.4991390697 4.3857031936 4.2712800401 4.1588146215 4.0509635631 4.6087898617 4.4991390697 4.3857031936 
4.2712800401 4.1588146215 4.0509635631 3.94975894 4.6087898617 4.4991390697 4.3857031936 4.2712800401 4.1588146215 
4.0509635631 3.94975894 3.8564636551 4.526799744 4.4046155105 4.426884955 4.2807094886 4.2918546451 4.3052269283 
4.1588146215 4.1588146215 4.1588146215 4.1588146215 4.042318168 4.0321740035 4.0201070968 4.0055183285 3.9875336042 
3.9337570603 3.9151549899 3.8932795963 3.8672112905 3.8356650183 3.7967995342 3.8346145692 3.809500442 3.7803704271 
3.7462412737 3.7058097288 3.657329819 3.5984456061 3.7454049075 3.7156421835 3.6816134988 3.6424295543 3.5969754326 
3.5438565869 3.4813459737 3.4073543651 3.5642842451 3.4524645613 3.5233842518 3.3320300872 3.403123212 3.4773852225 
3.20576226 3.2746326772 3.348015857 3.4255060145 3.0774230472 3.1415926536 3.2112816139 3.2864685043 3.3668817272 
2.95115522 3.00855263 3.0719036933 3.1415926536 3.2178377658 3.3005964304 2.8307207459 2.8800620952 2.9351694502 
2.9967168029 3.0653475414 3.1415926536 3.225752376 2.718901062 2.7598010554 2.8058000847 2.8576792927 2.91630358 
2.9825888767 3.0574329311 3.1415926536 3.5642842451 3.5233842518 3.4524645613 3.4773852225 3.403123212 3.3320300872 
3.4255060145 3.348015857 3.2746326772 3.20576226 3.3668817272 3.2864685043 3.2112816139 3.1415926536 3.0774230472 
3.3005964304 3.2178377658 3.1415926536 3.0719036933 3.00855263 2.95115522 3.225752376 3.1415926536 3.0653475414 
2.9967168029 2.9351694502 2.8800620952 2.8307207459 3.1415926536 3.0574329311 2.9825888767 2.91630358 2.8576792927 
2.8058000847 2.7598010554 2.718901062 4.526799744 4.426884955 4.4046155105 4.3052269283 4.2918546451 4.2807094886 
4.1588146215 4.1588146215 4.1588146215 4.1588146215 3.9875336042 4.0055183285 4.0201070968 4.0321740035 4.042318168 
3.7967995342 3.8356650183 3.8672112905 3.8932795963 3.9151549899 3.9337570603 3.5984456061 3.657329819 3.7058097288 
3.7462412737 3.7803704271 3.809500442 3.8346145692 3.4073543651 3.4813459737 3.5438565869 3.5969754326 3.6424295543 
3.6816134988 3.7156421835 3.7454049075 4.7123889804 4.8004512023 4.6243267584 4.9155579264 4.7123889804 4.5092200343 
5.0674903122 4.8353719722 4.5894059886 4.3572876485 5.2659633393 5.0120975802 4.7123889804 4.4126803806 4.1588146215 
5.5125918794 5.2659633393 4.9155579264 4.5092200343 4.1588146215 3.9121860814 5.7885595667 5.6029703303 5.2659633393 
4.7123889804 4.1588146215 3.8218076305 3.6362183941 6.0560271438 5.9702140275 5.7885595667 5.2659633393 4.1588146215 
3.6362183941 3.4545639333 3.368750817 0.22715816343 0.49462574053 0.3129712797 0.77059342779 0.68021497688 0.49462574053 
1.0172219679 1.0172219679 1.0172219679 1.0172219679 1.2156949949 1.271087727 1.3676273807 1.5707963268 2.1243706857 
1.3676273807 1.447813335 1.5707963268 1.7739652728 2.1243706857 2.6469669131 1.4827341049 1.5707963268 1.6937793186 
1.8705049266 2.1243706857 2.4613776767 2.8286213739 1.5707963268 1.6588585487 1.7739652728 1.9258976586 2.1243706857 
2.3709992258 2.6469669131 2.9144344902 1.7563855631 1.8785697967 1.8563003522 2.0024758186 1.9913306621 1.9779583789 
2.1243706857 2.1243706857 2.1243706857 2.1243706857 2.2408671392 2.2510113037 2.2630782103 2.2776669786 2.295651703 
2.3494282469 2.3680303173 2.3899057108 2.4159740166 2.4475202889 2.486385773 2.448570738 2.4736848652 2.5028148801 
2.5369440334 2.5773755784 2.6258554882 2.6847397011 2.5377803997 2.5675431237 2.6015718084 2.6407557529 2.6862098746 
2.7393287203 2.8018393335 2.8758309421 1.6743954455 1.6743954455 1.7840462375 1.6743954455 1.7840462375 1.8974821136 
1.6743954455 1.7840462375 1.8974821136 2.0119052671 1.6743954455 1.7840462375 1.8974821136 2.0119052671 2.1243706857 
1.6743954455 1.7840462375 1.8974821136 2.0119052671 2.1243706857 2.232221744 1.6743954455 1.7840462375 1.8974821136 
2.0119052671 2.1243706857 2.232221744 2.3334263672 1.6743954455 1.7840462375 1.8974821136 2.0119052671 2.1243706857 
2.232221744 2.3334263672 2.426721652 1.4671972081 1.3575464161 1.4671972081 1.24411054 1.3575464161 1.4671972081 
1.1296873865 1.24411054 1.3575464161 1.4671972081 1.0172219679 1.1296873865 1.24411054 1.3575464161 1.4671972081 
0.90937090954 1.0172219679 1.1296873865 1.24411054 1.3575464161 1.4671972081 0.80816628637 0.90937090954 1.0172219679 
1.1296873865 1.24411054 1.3575464161 1.4671972081 0.71487100155 0.80816628637 0.90937090954 1.0172219679 1.1296873865 
1.24411054 1.3575464161 1.4671972081 0.60381225391 0.57404952988 0.69302191562 0.54002084522 0.66790778838 0.79216440667 
0.50083690068 0.63877777351 0.77356233629 0.90072551443 0.45538277901 0.60464862014 0.75168694275 0.89058134991 1.0172219679 
0.40226393329 0.56421707518 0.72561863695 0.87851444325 1.0172219679 1.139116835 0.33975332011 0.51573716537 0.69407236469 
0.86392567495 1.0172219679 1.1502619915 1.2630228569 0.26576171152 0.45685295248 0.6552068806 0.84594095064 1.0172219679 
1.1636342747 1.2852923014 1.3852070904 0.22715816343 0.3129712797 0.49462574053 0.49462574053 0.68021497688 0.77059342779 
1.0172219679 1.0172219679 1.0172219679 1.0172219679 2.1243706857 1.5707963268 1.3676273807 1.271087727 1.2156949949 
2.6469669131 2.1243706857 1.7739652728 1.5707963268 1.447813335 1.3676273807 2.8286213739 2.4613776767 2.1243706857 
1.8705049266 1.6937793186 1.5707963268 1.4827341049 2.9144344902 2.6469669131 2.3709992258 2.1243706857 1.9258976586 
1.7739652728 1.6588585487 1.5707963268 1.7563855631 1.8563003522 1.8785697967 1.9779583789 1.9913306621 2.0024758186 
2.1243706857 2.1243706857 2.1243706857 2.1243706857 2.295651703 2.2776669786 2.2630782103 2.2510113037 2.2408671392 
2.486385773 2.4475202889 2.4159740166 2.3899057108 2.3680303173 2.3494282469 2.6847397011 2.6258554882 2.5773755784 
2.5369440334 2.5028148801 2.4736848652 2.448570738 2.8758309421 2.8018393335 2.7393287203 2.6862098746 2.6407557529 
2.6015718084 2.5675431237 2.5377803997 5.8604937156 5.901393709 5.9723133995 5.9473927383 6.0216547488 6.0927478736 
5.9992719463 6.0767621038 6.1501452836 6.2190157008 6.0578962336 6.1383094565 6.2134963469 0 0.064169606361 
6.1241815303 6.206940195 6.2831853072 0.069688960264 0.13304002361 0.19043743361 6.1990255847 0 0.07624511221 
0.14487585072 0.20642320337 0.26153055843 0.3108719077 0 0.084159722458 0.15900377685 0.22528907359 0.28391336087 
0.3357925689 0.38179159818 0.42269159155 5.8604937156 5.9723133995 5.901393709 6.0927478736 6.0216547488 5.9473927383 
6.2190157008 6.1501452836 6.0767621038 5.9992719463 0.064169606361 0 6.2134963469 6.1383094565 6.0578962336 
0.19043743361 0.13304002361 0.069688960264 6.2831853072 6.206940195 6.1241815303 0.3108719077 0.26153055843 0.20642320337 
0.14487585072 0.07624511221 6.2831853072 6.1990255847 0.42269159155 0.38179159818 0.3357925689 0.28391336087 0.22528907359 
0.15900377685 0.084159722458 0 5.6793730533 5.7091357773 5.5901633916 5.743164462 5.6152775188 5.4910209005 
5.7823484065 5.6444075337 5.5096229709 5.3824597928 5.8278025282 5.678536687 5.5314983644 5.3926039573 5.2659633393 
5.8809213739 5.718968232 5.5575666702 5.4046708639 5.2659633393 5.1440684722 5.9434319871 5.7674481418 5.5891129425 
5.4192596322 5.2659633393 5.1329233157 5.0201624502 6.0174235957 5.8263323547 5.6279784266 5.4372443565 5.2659633393 
5.1195510325 4.9978930058 4.8979782167 1.3852070904 1.2852923014 1.2630228569 1.1636342747 1.1502619915 1.139116835 
1.0172219679 1.0172219679 1.0172219679 1.0172219679 0.84594095064 0.86392567495 0.87851444325 0.89058134991 0.90072551443 
0.6552068806 0.69407236469 0.72561863695 0.75168694275 0.77356233629 0.79216440667 0.45685295248 0.51573716537 0.56421707518 
0.60464862014 0.63877777351 0.66790778838 0.69302191562 0.26576171152 0.33975332011 0.40226393329 0.45538277901 0.50083690068 
0.54002084522 0.57404952988 0.60381225391 
_paraPhiHalf 1 1002 double
0 3.1415926536 0 3.1415926536 1.5707963268 1.5707963268 1.5707963268 1.5707963268 2.5880182947 
0.5535743589 2.5880182947 0.5535743589 0 0 0 0 3.1415926536 3.1415926536 
3.1415926536 3.1415926536 3.1415926536 0.17788134 0.38438696014 0.60631181711 0.82323535693 1.0172219679 1.1799687454 
1.3118704726 1.4175000338 1.5022335207 0.17788134 0.38438696014 0.60631181711 0.82323535693 1.0172219679 1.1799687454 
1.3118704726 1.4175000338 1.5022335207 0.093902416448 0.17615329733 0.2478725152 0.31035131605 0.36486382811 0.41257334776 
0.45449736604 0.4915044461 0.52432611754 0.093902416448 0.17615329733 0.2478725152 0.31035131605 0.36486382811 0.41257334776 
0.45449736604 0.4915044461 0.52432611754 2.9637113136 2.7572056934 2.5352808365 2.3183572967 2.1243706857 1.9616239082 
1.829722181 1.7240926197 1.6393591329 2.9637113136 2.7572056934 2.5352808365 2.3183572967 2.1243706857 1.9616239082 
1.829722181 1.7240926197 1.6393591329 3.0476902371 2.9654393563 2.8937201384 2.8312413375 2.7767288255 2.7290193058 
2.6870952876 2.6500882075 2.617266536 3.0476902371 2.9654393563 2.8937201384 2.8312413375 2.7767288255 2.7290193058 
2.6870952876 2.6500882075 2.617266536 0 0 0 0 3.1415926536 3.1415926536 
3.1415926536 3.1415926536 3.1415926536 0.17788134 0.38438696014 0.60631181711 0.82323535693 1.0172219679 1.1799687454 
1.3118704726 1.4175000338 1.5022335207 0.17788134 0.38438696014 0.60631181711 0.82323535693 1.0172219679 1.1799687454 
1.3118704726 1.4175000338 1.5022335207 0.093902416448 0.17615329733 0.2478725152 0.31035131605 0.36486382811 0.41257334776 
0.45449736604 0.4915044461 0.52432611754 0.093902416448 0.17615329733 0.2478725152 0.31035131605 0.36486382811 0.41257334776 
0.45449736604 0.4915044461 0.52432611754 2.9637113136 2.7572056934 2.5352808365 2.3183572967 2.1243706857 1.9616239082 
1.829722181 1.7240926197 1.6393591329 2.9637113136 2.7572056934 2.5352808365 2.3183572967 2.1243706857 1.9616239082 
1.829722181 1.7240926197 1.6393591329 3.0476902371 2.9654393563 2.8937201384 2.8312413375 2.7767288255 2.7290193058 
2.6870952876 2.6500882075 2.617266536 3.0476902371 2.9654393563 2.8937201384 2.8312413375 2.7767288255 2.7290193058 
2.6870952876 2.6500882075 2.617266536 1.5707963268 1.5707963268 1.5707963268 1.5707963268 1.5707963268 1.5707963268 
1.5707963268 1.5707963268 1.5707963268 1.6743954455 1.7840462375 1.8974821136 2.0119052671 2.1243706857 2.232221744 
2.3334263672 2.426721652 2.5115728246 1.4671972081 1.3575464161 1.24411054 1.1296873865 1.0172219679 0.90937090954 
0.80816628637 0.71487100155 0.63001982895 1.6743954455 1.7840462375 1.8974821136 2.0119052671 2.1243706857 2.232221744 
2.3334263672 2.426721652 2.5115728246 1.4671972081 1.3575464161 1.24411054 1.1296873865 1.0172219679 0.90937090954 
0.80816628637 0.71487100155 0.63001982895 1.5707963268 1.5707963268 1.5707963268 1.5707963268 1.5707963268 1.5707963268 
1.5707963268 1.5707963268 1.5707963268 1.6743954455 1.7840462375 1.8974821136 2.0119052671 2.1243706857 2.232221744 
2.3334263672 2.426721652 2.5115728246 1.4671972081 1.3575464161 1.24411054 1.1296873865 1.0172219679 0.90937090954 
0.80816628637 0.71487100155 0.63001982895 1.6743954455 1.7840462375 1.8974821136 2.0119052671 2.1243706857 2.232221744 
2.3334263672 2.426721652 2.5115728246 1.4671972081 1.3575464161 1.24411054 1.1296873865 1.0172219679 0.90937090954 
0.80816628637 0.71487100155 0.63001982895 2.6824132222 2.7864913217 2.8992382033 3.0186096618 3.1415926536 3.0186096618 
2.8992382033 2.7864913217 2.6824132222 0.45917943135 0.35510133185 0.2423544503 0.12298299178 0 0.12298299178 
0.2423544503 0.35510133185 0.45917943135 0.22715816343 0.49462574053 0.3129712797 0.77059342779 0.68021497688 0.49462574053 
1.0172219679 1.0172219679 1.0172219679 1.0172219679 1.2156949949 1.271087727 1.3676273807 1.5707963268 2.1243706857 
1.3676273807 1.447813335 1.5707963268 1.7739652728 2.1243706857 2.6469669131 1.4827341049 1.5707963268 1.6937793186 
1.8705049266 2.1243706857 2.4613776767 2.8286213739 1.5707963268 1.6588585487 1.7739652728 1.9258976586 2.1243706857 
2.3709992258 2.6469669131 2.9144344902 0.26576171152 0.33975332011 0.45685295248 0.40226393329 0.51573716537 0.6552068806 
0.45538277901 0.56421707518 0.69407236469 0.84594095064 0.50083690068 0.60464862014 0.72561863695 0.86392567495 1.0172219679 
0.54002084522 0.63877777351 0.75168694275 0.87851444325 1.0172219679 1.1636342747 0.57404952988 0.66790778838 0.77356233629 
0.89058134991 1.0172219679 1.1502619915 1.2852923014 0.60381225391 0.69302191562 0.79216440667 0.90072551443 1.0172219679 
1.139116835 1.2630228569 1.3852070904 0.71487100155 0.80816628637 0.80816628637 0.90937090954 0.90937090954 0.90937090954 
1.0172219679 1.0172219679 1.0172219679 1.0172219679 1.1296873865 1.1296873865 1.1296873865 1.1296873865 1.1296873865 
1.24411054 1.24411054 1.24411054 1.24411054 1.24411054 1.24411054 1.3575464161 1.3575464161 1.3575464161 
1.3575464161 1.3575464161 1.3575464161 1.3575464161 1.4671972081 1.4671972081 1.4671972081 1.4671972081 1.4671972081 
1.4671972081 1.4671972081 1.4671972081 1.6743954455 1.6743954455 1.7840462375 1.6743954455 1.7840462375 1.8974821136 
1.6743954455 1.7840462375 1.8974821136 2.0119052671 1.6743954455 1.7840462375 1.8974821136 2.0119052671 2.1243706857 
1.6743954455 1.7840462375 1.8974821136 2.0119052671 2.1243706857 2.232221744 1.6743954455 1.7840462375 1.8974821136 
2.0119052671 2.1243706857 2.232221744 2.3334263672 1.6743954455 1.7840462375 1.8974821136 2.0119052671 2.1243706857 
2.232221744 2.3334263672 2.426721652 1.7563855631 1.8785697967 1.8563003522 2.0024758186 1.9913306621 1.9779583789 
2.1243706857 2.1243706857 2.1243706857 2.1243706857 2.2408671392 2.2510113037 2.2630782103 2.2776669786 2.295651703 
2.3494282469 2.3680303173 2.3899057108 2.4159740166 2.4475202889 2.486385773 2.448570738 2.4736848652 2.5028148801 
2.5369440334 2.5773755784 2.6258554882 2.6847397011 2.5377803997 2.5675431237 2.6015718084 2.6407557529 2.6862098746 
2.7393287203 2.8018393335 2.8758309421 2.718901062 2.8307207459 2.7598010554 2.95115522 2.8800620952 2.8058000847 
3.0774230472 3.00855263 2.9351694502 2.8576792927 3.0774230472 3.1415926536 3.0719036933 2.9967168029 2.91630358 
2.95115522 3.00855263 3.0719036933 3.1415926536 3.0653475414 2.9825888767 2.8307207459 2.8800620952 2.9351694502 
2.9967168029 3.0653475414 3.1415926536 3.0574329311 2.718901062 2.7598010554 2.8058000847 2.8576792927 2.91630358 
2.9825888767 3.0574329311 3.1415926536 2.718901062 2.7598010554 2.8307207459 2.8058000847 2.8800620952 2.95115522 
2.8576792927 2.9351694502 3.00855263 3.0774230472 2.91630358 2.9967168029 3.0719036933 3.1415926536 3.0774230472 
2.9825888767 3.0653475414 3.1415926536 3.0719036933 3.00855263 2.95115522 3.0574329311 3.1415926536 3.0653475414 