# vtk DataFile Version 5.1
vtk output
ASCII
DATASET POLYDATA
POINTS 1002 float
-0.0444985 0.522109 0.0773834 -0.0631925 -0.434314 -0.557224 -0.0390395 0.401537 0.326004 
-0.174293 -0.722114 -0.216417 0.16174 -0.258186 -0.216849 0.0971367 -0.41193 -0.0506402 
-0.502427 0.0508088 -0.192695 -0.597953 -0.124529 0.0237908 0.25252 -0.984283 -0.398187 
0.674766 0.643023 0.530121 -0.366285 -0.777267 -0.511988 -0.1221 0.691482 0.354257 
-0.0760095 0.39787 0.0175805 -0.102845 0.251576 -0.0501839 -0.121345 0.112259 -0.124447 
-0.130338 -0.00492975 -0.200406 -0.133117 -0.112943 -0.273579 -0.130723 -0.221189 -0.343853 
-0.11963 -0.311937 -0.411154 -0.100321 -0.369141 -0.470869 -0.0795553 -0.402998 -0.519046 
-0.0178404 0.499548 0.0688497 0.00167376 0.451961 0.0574988 0.00839219 0.383813 0.0443025 
0.00716286 0.302479 0.025177 0.00826533 0.205269 -0.00829948 0.0163484 0.0906743 -0.058291 
0.0338135 -0.0254523 -0.114639 0.0656224 -0.124066 -0.163487 0.11127 -0.200288 -0.197545 
-0.0923537 0.460685 0.04735 -0.139661 0.392713 0.0136397 -0.187467 0.330626 -0.0201266 
-0.237748 0.275611 -0.0490945 -0.288854 0.21983 -0.0739093 -0.337012 0.167104 -0.0997134 
-0.382045 0.130564 -0.127439 -0.425835 0.108184 -0.153269 -0.467124 0.084323 -0.1749 
0.0135728 0.61457 0.132855 0.0911601 0.681726 0.196332 0.187854 0.719673 0.267866 
0.294706 0.743548 0.343536 0.401736 0.764537 0.414423 0.504545 0.772448 0.468982 
0.595413 0.754612 0.50007 0.658407 0.716776 0.512527 0.683187 0.675542 0.519571 
-0.0403768 0.584542 0.116206 -0.0334459 0.627376 0.154692 -0.0244196 0.661876 0.192097 
-0.0195591 0.696028 0.22664 -0.0244593 0.718684 0.255245 -0.0375932 0.718661 0.277696 
-0.0550251 0.708294 0.298607 -0.0758869 0.703771 0.320852 -0.0993022 0.70185 0.341022 
-0.0257304 -0.439513 -0.541113 0.0112321 -0.438236 -0.516909 0.0477572 -0.426941 -0.484519 
0.081337 -0.407876 -0.446139 0.10892 -0.381917 -0.404352 0.133032 -0.347025 -0.361103 
0.15698 -0.310287 -0.319545 0.174646 -0.284889 -0.282719 0.176372 -0.271686 -0.249721 
-0.112998 -0.406419 -0.545047 -0.167965 -0.380246 -0.524995 -0.223595 -0.359854 -0.494978 
-0.275711 -0.342515 -0.453176 -0.322236 -0.310172 -0.401511 -0.364148 -0.244451 -0.348046 
-0.404067 -0.15296 -0.301567 -0.442533 -0.0637188 -0.263404 -0.47655 0.00408053 -0.22846 
-0.0262294 -0.482289 -0.583667 0.0106331 -0.553459 -0.60766 0.0470857 -0.646501 -0.622886 
0.0819496 -0.744339 -0.622657 0.113837 -0.82614 -0.607484 0.144008 -0.887837 -0.581546 
0.174762 -0.936453 -0.544769 0.205224 -0.970727 -0.497584 0.232006 -0.985396 -0.446337 
-0.0825005 -0.45775 -0.586712 -0.113239 -0.498212 -0.617509 -0.155169 -0.558312 -0.648327 
-0.198597 -0.628686 -0.670525 -0.23246 -0.689147 -0.670571 -0.258461 -0.722721 -0.644929 
-0.28639 -0.733792 -0.606946 -0.317773 -0.7426 -0.571639 -0.345822 -0.759603 -0.541677 
-0.0829471 0.32074 0.272563 -0.123916 0.217012 0.211795 -0.164908 0.0987871 0.148188 
-0.202259 -0.0260428 0.084526 -0.225284 -0.168204 0.0230837 -0.228067 -0.339688 -0.0334735 
-0.216452 -0.513879 -0.0851976 -0.200756 -0.641169 -0.133875 -0.186712 -0.703212 -0.178566 
-0.023387 0.391037 0.309014 -0.0119041 0.373969 0.284738 -0.00332825 0.342152 0.25692 
0.00221117 0.283011 0.225294 -0.000359672 0.191315 0.180192 -0.0124058 0.0728791 0.114581 
-0.0198132 -0.0629748 0.0409916 -0.00345848 -0.202325 -0.0164021 0.0399452 -0.324195 -0.0450179 
-0.0899795 0.364875 0.303621 -0.149958 0.322078 0.270606 -0.214521 0.264064 0.231265 
-0.279393 0.182816 0.193323 -0.347341 0.0882537 0.161426 -0.420486 0.00484413 0.134406 
-0.48928 -0.0529551 0.10864 -0.54139 -0.0883546 0.0817081 -0.575347 -0.10986 0.0532091 
0.0254805 0.46553 0.364982 0.10835 0.526927 0.401673 0.20946 0.578725 0.443449 
0.316536 0.609944 0.500076 0.412532 0.616258 0.566384 0.492589 0.609751 0.616239 
0.563465 0.60793 0.626958 0.624726 0.616425 0.602911 0.664608 0.630034 0.565406 
-0.0188416 0.444576 0.362644 0.00406773 0.477176 0.396901 0.0207664 0.508557 0.432181 
0.0207274 0.555663 0.467178 0.00437258 0.615273 0.486078 -0.0170832 0.657981 0.475196 
-0.0378515 0.669646 0.444452 -0.0620465 0.670185 0.412526 -0.0917279 0.678751 0.384043 
-0.124432 -0.718984 -0.205601 -0.0662323 -0.712602 -0.189012 -0.0104824 -0.690438 -0.161604 
0.0302553 -0.653767 -0.122143 0.0558335 -0.621551 -0.0807229 0.0782824 -0.602813 -0.0522528 
0.102232 -0.581341 -0.0415042 0.11751 -0.540179 -0.0423075 0.114774 -0.480488 -0.0471055 
-0.224245 -0.7206 -0.20032 -0.272928 -0.706777 -0.178359 -0.325514 -0.661962 -0.155413 
-0.38212 -0.580637 -0.131215 -0.437677 -0.487686 -0.100037 -0.489124 -0.412245 -0.0631569 
-0.5338 -0.351834 -0.0318805 -0.566513 -0.286194 -0.0117214 -0.586166 -0.208147 0.00423123 
-0.128362 -0.724998 -0.240727 -0.0703525 -0.736917 -0.256319 -0.00796382 -0.772935 -0.268388 
0.0450912 -0.829896 -0.286 0.0835292 -0.889982 -0.308734 0.117688 -0.937607 -0.325798 
0.157911 -0.967541 -0.334336 0.200156 -0.982454 -0.345518 0.233488 -0.987308 -0.368101 
-0.193635 -0.732936 -0.244221 -0.209732 -0.752632 -0.273552 -0.223453 -0.774691 -0.303289 
-0.242037 -0.786702 -0.33384 -0.270191 -0.796035 -0.365531 -0.302507 -0.820783 -0.397687 
-0.33051 -0.850801 -0.430692 -0.350752 -0.855532 -0.464052 -0.362676 -0.825548 -0.492954 
0.17654 -0.280205 -0.201929 0.184056 -0.302935 -0.181211 0.187378 -0.321035 -0.152874 
0.189918 -0.334472 -0.120824 0.186276 -0.348682 -0.0951711 0.169923 -0.366576 -0.0811829 
0.147743 -0.384985 -0.0726989 0.130346 -0.399572 -0.0630331 0.116124 -0.408493 -0.0540833 
0.22503 -0.308054 -0.243865 0.279246 -0.34953 -0.26344 0.311964 -0.408762 -0.28411 
0.323362 -0.498359 -0.305174 0.321788 -0.609247 -0.323312 0.315742 -0.72445 -0.344578 
0.309869 -0.828437 -0.371956 0.301606 -0.908033 -0.393954 0.283577 -0.958197 -0.401067 
0.110441 -0.181315 -0.161755 0.081754 -0.0322354 -0.0734627 0.112824 0.174165 0.0405409 
0.207428 0.364975 0.149197 0.321572 0.47438 0.229703 0.414439 0.515833 0.294517 
0.489793 0.546641 0.363464 0.564232 0.588777 0.431947 0.631572 0.625628 0.48727 
0.177431 -0.502527 -0.0359985 0.253682 -0.550878 -0.0190508 0.300196 -0.587636 -0.0373092 
0.321909 -0.657292 -0.0964465 0.343432 -0.762379 -0.161984 0.364681 -0.857598 -0.210988 
0.362935 -0.912976 -0.254891 0.333743 -0.941852 -0.304147 0.293078 -0.964638 -0.353492 
0.0461212 -0.272412 -0.0353857 0.0291303 -0.0831948 0.0237372 0.0678955 0.129402 0.117146 
0.157335 0.319777 0.215914 0.269736 0.451758 0.305092 0.379079 0.52289 0.387636 
0.475019 0.558089 0.456561 0.557416 0.583741 0.498844 0.625621 0.611997 0.518345 
-0.534842 0.0478944 -0.179391 -0.563514 0.0384873 -0.163414 -0.585927 0.0291021 -0.14118 
-0.607586 0.0270981 -0.10879 -0.633665 0.0303641 -0.0679929 -0.654358 0.026399 -0.0284742 
-0.655098 0.00520853 -0.000563197 -0.638102 -0.0323436 0.0135626 -0.616815 -0.0785272 0.0195232 
-0.51548 -0.0210718 -0.229468 -0.518078 -0.116323 -0.263872 -0.517774 -0.229597 -0.304973 
-0.520172 -0.342246 -0.358002 -0.51305 -0.435197 -0.408196 -0.481564 -0.504449 -0.438164 
-0.436438 -0.563005 -0.454842 -0.401093 -0.627788 -0.47441 -0.381332 -0.703076 -0.496816 
-0.497775 0.115374 -0.13989 -0.483432 0.197115 -0.0805836 -0.466 0.301051 -0.0270789 
-0.443233 0.400578 0.0203072 -0.40402 0.470089 0.0746078 -0.349378 0.525398 0.138444 
-0.293896 0.590123 0.200719 -0.242292 0.651116 0.256667 -0.186488 0.684545 0.308337 
-0.609696 -0.193113 -0.0228216 -0.615565 -0.271653 -0.0756396 -0.611138 -0.362551 -0.133102 
-0.596266 -0.456602 -0.192172 -0.571285 -0.532449 -0.249343 -0.531772 -0.582682 -0.304275 
-0.479916 -0.627188 -0.360147 -0.43063 -0.68222 -0.417137 -0.394252 -0.737987 -0.469601 
-0.594476 -0.0254535 0.0681496 -0.585158 0.0851954 0.116381 -0.559425 0.195031 0.158376 
-0.505783 0.287255 0.187379 -0.428785 0.359914 0.208802 -0.350782 0.432984 0.234097 
-0.288142 0.519875 0.267434 -0.236299 0.604741 0.30314 -0.182618 0.663575 0.333241 
0.198587 -0.999841 -0.424424 0.131487 -1.00285 -0.459034 0.0600649 -0.987015 -0.500465 
2.43808e-05 -0.944913 -0.533508 -0.0482908 -0.885683 -0.544134 -0.107979 -0.8432 -0.541171 
-0.190315 -0.837991 -0.541884 -0.273168 -0.844959 -0.544329 -0.331863 -0.826864 -0.535386 
0.702247 0.6616 0.565184 0.693652 0.674679 0.60928 0.642993 0.696196 0.651166 
0.559976 0.730057 0.658776 0.459738 0.755663 0.611777 0.347671 0.751155 0.534791 
0.222334 0.725115 0.468892 0.0912985 0.703791 0.425038 -0.027823 0.696607 0.38994 
-0.0535285 0.350982 0.00196139 -0.0402111 0.280429 -0.0174941 -0.082123 0.184606 -0.0735834 
-0.0351063 0.194571 -0.0409514 -0.0687859 0.10222 -0.101864 -0.0983998 0.0379751 -0.154713 
-0.0256492 0.099594 -0.0732579 -0.0541239 0.0136898 -0.1354 -0.0777875 -0.0415381 -0.18983 
-0.102136 -0.0782416 -0.235465 -0.00335026 -0.00277026 -0.118325 -0.0246937 -0.0748972 -0.175393 
-0.0476453 -0.118589 -0.227778 -0.0701711 -0.149093 -0.273461 -0.0969678 -0.183712 -0.311829 
0.0288975 -0.100408 -0.168982 0.0183939 -0.154979 -0.218062 -0.00173542 -0.186802 -0.264358 
-0.025762 -0.210681 -0.308612 -0.0518826 -0.243953 -0.348686 -0.0836451 -0.282916 -0.382943 
0.0698855 -0.176706 -0.21111 0.0664157 -0.214558 -0.253273 0.0508974 -0.239916 -0.293752 
0.0284298 -0.261309 -0.335513 0.00298626 -0.290722 -0.376995 -0.0274981 -0.327943 -0.414798 
-0.0632928 -0.357356 -0.446443 0.121006 -0.230501 -0.237308 0.118686 -0.253828 -0.274172 
0.103358 -0.278228 -0.311869 0.0821826 -0.30518 -0.352692 0.0589407 -0.333579 -0.394918 
0.0304587 -0.363995 -0.435318 -0.00438952 -0.390519 -0.470864 -0.0421127 -0.40355 -0.499038 
0.0454829 0.595999 0.128508 0.127493 0.664165 0.196982 0.0661508 0.552422 0.122674 
0.224669 0.70325 0.271421 0.148937 0.627106 0.195021 0.0705177 0.491929 0.114394 
0.328092 0.728772 0.344225 0.245867 0.672756 0.266709 0.152822 0.578783 0.186712 
0.0637205 0.416707 0.0959569 0.429698 0.74424 0.40498 0.347259 0.695898 0.328081 
0.251212 0.631249 0.250271 0.141956 0.512334 0.165075 0.053048 0.314277 0.0584217 
0.521435 0.736233 0.444786 0.43976 0.694247 0.372158 0.350275 0.645729 0.297073 
[...]
POINT_DATA 1002
FIELD FieldData 4
_paraPhi 1 1002 double
6.2831853072 3.1415926536 6.2831853072 3.1415926536 4.7123889804 4.7123889804 1.5707963268 1.5707963268 3.6951670125 
5.7296109483 2.5880182947 0.5535743589 6.2831853072 6.2831853072 6.2831853072 6.2831853072 3.1415926536 3.1415926536 
3.1415926536 3.1415926536 3.1415926536 6.1053039672 5.898798347 5.6768734901 5.4599499503 5.2659633393 5.1032165617 
4.9713148346 4.8656852733 4.7809517865 0.17788134 0.38438696014 0.60631181711 0.82323535693 1.0172219679 1.1799687454 
1.3118704726 1.4175000338 1.5022335207 6.1892828907 6.1070320098 6.035312792 5.9728339911 5.9183214791 5.8706119594 
5.8286879411 5.7916808611 5.7588591896 0.093902416448 0.17615329733 0.2478725152 0.31035131605 0.36486382811 0.41257334776 
0.45449736604 0.4915044461 0.52432611754 3.3194739936 3.5259796137 3.7479044707 3.9648280105 4.1588146215 4.321561399 
4.4534631262 4.5590926874 4.6438261743 2.9637113136 2.7572056934 2.5352808365 2.3183572967 2.1243706857 1.9616239082 
1.829722181 1.7240926197 1.6393591329 3.23549507 3.3177459509 3.3894651688 3.4519439696 3.5064564817 3.5541660013 
3.5960900196 3.6330970997 3.6659187711 3.0476902371 2.9654393563 2.8937201384 2.8312413375 2.7767288255 2.7290193058 
2.6870952876 2.6500882075 2.617266536 6.2831853072 6.2831853072 6.2831853072 6.2831853072 3.1415926536 3.1415926536 
3.1415926536 3.1415926536 3.1415926536 6.1053039672 5.898798347 5.6768734901 5.4599499503 5.2659633393 5.1032165617 
4.9713148346 4.8656852733 4.7809517865 0.17788134 0.38438696014 0.60631181711 0.82323535693 1.0172219679 1.1799687454 
1.3118704726 1.4175000338 1.5022335207 6.1892828907 6.1070320098 6.035312792 5.9728339911 5.9183214791 5.8706119594 
5.8286879411 5.7916808611 5.7588591896 0.093902416448 0.17615329733 0.2478725152 0.31035131605 0.36486382811 0.41257334776 
0.45449736604 0.4915044461 0.52432611754 3.3194739936 3.5259796137 3.7479044707 3.9648280105 4.1588146215 4.321561399 
4.4534631262 4.5590926874 4.6438261743 2.9637113136 2.7572056934 2.5352808365 2.3183572967 2.1243706857 1.9616239082 
1.829722181 1.7240926197 1.6393591329 3.23549507 3.3177459509 3.3894651688 3.4519439696 3.5064564817 3.5541660013 
3.5960900196 3.6330970997 3.6659187711 3.0476902371 2.9654393563 2.8937201384 2.8312413375 2.7767288255 2.7290193058 
2.6870952876 2.6500882075 2.617266536 4.7123889804 4.7123889804 4.7123889804 4.7123889804 4.7123889804 4.7123889804 
4.7123889804 4.7123889804 4.7123889804 4.6087898617 4.4991390697 4.3857031936 4.2712800401 4.1588146215 4.0509635631 
3.94975894 3.8564636551 3.7716124825 4.8159880991 4.9256388911 5.0390747672 5.1534979207 5.2659633393 5.3738143976 
5.4750190208 5.5683143056 5.6531654782 4.6087898617 4.4991390697 4.3857031936 4.2712800401 4.1588146215 4.0509635631 
3.94975894 3.8564636551 3.7716124825 4.8159880991 4.9256388911 5.0390747672 5.1534979207 5.2659633393 5.3738143976 
5.4750190208 5.5683143056 5.6531654782 1.5707963268 1.5707963268 1.5707963268 1.5707963268 1.5707963268 1.5707963268 
1.5707963268 1.5707963268 1.5707963268 1.6743954455 1.7840462375 1.8974821136 2.0119052671 2.1243706857 2.232221744 
2.3334263672 2.426721652 2.5115728246 1.4671972081 1.3575464161 1.24411054 1.1296873865 1.0172219679 0.90937090954 
0.80816628637 0.71487100155 0.63001982895 1.6743954455 1.7840462375 1.8974821136 2.0119052671 2.1243706857 2.232221744 
2.3334263672 2.426721652 2.5115728246 1.4671972081 1.3575464161 1.24411054 1.1296873865 1.0172219679 0.90937090954 
0.80816628637 0.71487100155 0.63001982895 3.6007720849 3.4966939854 3.3839471039 3.2645756454 3.1415926536 3.0186096618 
2.8992382033 2.7864913217 2.6824132222 5.8240058758 5.9280839753 6.0408308569 6.1602023154 6.2831853072 0.12298299178 
0.2423544503 0.35510133185 0.45917943135 6.0560271438 5.7885595667 5.9702140275 5.5125918794 5.6029703303 5.7885595667 
5.2659633393 5.2659633393 5.2659633393 5.2659633393 5.0674903122 5.0120975802 4.9155579264 4.7123889804 4.1588146215 
4.9155579264 4.8353719722 4.7123889804 4.5092200343 4.1588146215 3.6362183941 4.8004512023 4.7123889804 4.5894059886 
4.4126803806 4.1588146215 3.8218076305 3.4545639333 4.7123889804 4.6243267584 4.5092200343 4.3572876485 4.1588146215 
3.9121860814 3.6362183941 3.368750817 6.0174235957 5.9434319871 5.8263323547 5.8809213739 5.7674481418 5.6279784266 
5.8278025282 5.718968232 5.5891129425 5.4372443565 5.7823484065 5.678536687 5.5575666702 5.4192596322 5.2659633393 
5.743164462 5.6444075337 5.5314983644 5.4046708639 5.2659633393 5.1195510325 5.7091357773 5.6152775188 5.5096229709 
5.3926039573 5.2659633393 5.1329233157 4.9978930058 5.6793730533 5.5901633916 5.4910209005 5.3824597928 5.2659633393 
5.1440684722 5.0201624502 4.8979782167 5.5683143056 5.4750190208 5.4750190208 5.3738143976 5.3738143976 5.3738143976 
5.2659633393 5.2659633393 5.2659633393 5.2659633393 5.1534979207 5.1534979207 5.1534979207 5.1534979207 5.1534979207 
5.0390747672 5.0390747672 5.0390747672 5.0390747672 5.0390747672 5.0390747672 4.9256388911 4.9256388911 4.9256388911 
4.9256388911 4.9256388911 4.9256388911 4.9256388911 4.8159880991 4.8159880991 4.8159880991 4.8159880991 4.8159880991 
4.8159880991 4.8159880991 4.8159880991 4.6087898617 4.6087898617 4.4991390697 4.6087898617 4.4991390697 4.3857031936 
4.6087898617 4.4991390697 4.3857031936 4.2712800401 4.6087898617 4.4991390697 4.3857031936 4.2712800401 4.1588146215 
4.6087898617 4.4991390697 4.3857031936 4.2712800401 4.1588146215 4.0509635631 4.6087898617 4.4991390697 4.3857031936 
4.2712800401 4.1588146215 4.0509635631 3.94975894 4.6087898617 4.4991390697 4.3857031936 4.2712800401 4.1588146215 
4.0509635631 3.94975894 3.8564636551 4.526799744 4.4046155105 4.426884955 4.2807094886 4.2918546451 4.3052269283 
4.1588146215 4.1588146215 4.1588146215 4.1588146215 4.042318168 4.0321740035 4.0201070968 4.0055183285 3.9875336042 
3.9337570603 3.9151549899 3.8932795963 3.8672112905 3.8356650183 3.7967995342 3.8346145692 3.809500442 3.7803704271 
3.7462412737 3.7058097288 3.657329819 3.5984456061 3.7454049075 3.7156421835 3.6816134988 3.6424295543 3.5969754326 
3.5438565869 3.4813459737 3.4073543651 3.5642842451 3.4524645613 3.5233842518 3.3320300872 3.403123212 3.4773852225 
3.20576226 3.2746326772 3.348015857 3.4255060145 3.0774230472 3.1415926536 3.2112816139 3.2864685043 3.3668817272 
2.95115522 3.00855263 3.0719036933 3.1415926536 3.2178377658 3.3005964304 2.8307207459 2.8800620952 2.9351694502 
2.9967168029 3.0653475414 3.1415926536 3.225752376 2.718901062 2.7598010554 2.8058000847 2.8576792927 2.91630358 
2.9825888767 3.0574329311 3.1415926536 3.5642842451 3.5233842518 3.4524645613 3.4773852225 3.403123212 3.3320300872 
3.4255060145 3.348015857 3.2746326772 3.20576226 3.3668817272 3.2864685043 3.2112816139 3.1415926536 3.0774230472 
3.3005964304 3.2178377658 3.1415926536 3.0719036933 3.00855263 2.95115522 3.225752376 3.1415926536 3.0653475414 
2.9967168029 2.9351694502 2.8800620952 2.8307207459 3.1415926536 3.0574329311 2.9825888767 2.91630358 2.8576792927 
2.8058000847 2.7598010554 2.718901062 4.526799744 4.426884955 4.4046155105 4.3052269283 4.2918546451 4.2807094886 
4.1588146215 4.1588146215 4.1588146215 4.1588146215 3.9875336042 4.0055183285 4.0201070968 4.0321740035 4.042318168 
3.7967995342 3.8356650183 3.8672112905 3.8932795963 3.9151549899 3.9337570603 3.5984456061 3.657329819 3.7058097288 
3.7462412737 3.7803704271 3.809500442 3.8346145692 3.4073543651 3.4813459737 3.5438565869 3.5969754326 3.6424295543 
3.6816134988 3.7156421835 3.7454049075 4.7123889804 4.8004512023 4.6243267584 4.9155579264 4.7123889804 4.5092200343 
5.0674903122 4.8353719722 4.5894059886 4.3572876485 5.2659633393 5.0120975802 4.7123889804 4.4126803806 4.1588146215 
5.5125918794 5.2659633393 4.9155579264 4.5092200343 4.1588146215 3.9121860814 5.7885595667 5.6029703303 5.2659633393 
4.7123889804 4.1588146215 3.8218076305 3.6362183941 6.0560271438 5.9702140275 5.7885595667 5.2659633393 4.1588146215 
3.6362183941 3.4545639333 3.368750817 0.22715816343 0.49462574053 0.3129712797 0.77059342779 0.68021497688 0.49462574053 
1.0172219679 1.0172219679 1.0172219679 1.0172219679 1.2156949949 1.271087727 1.3676273807 1.5707963268 2.1243706857 
1.3676273807 1.447813335 1.5707963268 1.7739652728 2.1243706857 2.6469669131 1.4827341049 1.5707963268 1.6937793186 
1.8705049266 2.1243706857 2.4613776767 2.8286213739 1.5707963268 1.6588585487 1.7739652728 1.9258976586 2.1243706857 
2.3709992258 2.6469669131 2.9144344902 1.7563855631 1.8785697967 1.8563003522 2.0024758186 1.9913306621 1.9779583789 
2.1243706857 2.1243706857 2.1243706857 2.1243706857 2.2408671392 2.2510113037 2.2630782103 2.2776669786 2.295651703 
2.3494282469 2.3680303173 2.3899057108 2.4159740166 2.4475202889 2.486385773 2.448570738 2.4736848652 2.5028148801 
2.5369440334 2.5773755784 2.6258554882 2.6847397011 2.5377803997 2.5675431237 2.6015718084 2.6407557529 2.6862098746 
2.7393287203 2.8018393335 2.8758309421 1.6743954455 1.6743954455 1.7840462375 1.6743954455 1.7840462375 1.8974821136 
1.6743954455 1.7840462375 1.8974821136 2.0119052671 1.6743954455 1.7840462375 1.8974821136 2.0119052671 2.1243706857 
1.6743954455 1.7840462375 1.8974821136 2.0119052671 2.1243706857 2.232221744 1.6743954455 1.7840462375 1.8974821136 
2.0119052671 2.1243706857 2.232221744 2.3334263672 1.6743954455 1.7840462375 1.8974821136 2.0119052671 2.1243706857 
2.232221744 2.3334263672 2.426721652 1.4671972081 1.3575464161 1.4671972081 1.24411054 1.3575464161 1.4671972081 
1.1296873865 1.24411054 1.3575464161 1.4671972081 1.0172219679 1.1296873865 1.24411054 1.3575464161 1.4671972081 
0.90937090954 1.0172219679 1.1296873865 1.24411054 1.3575464161 1.4671972081 0.80816628637 0.90937090954 1.0172219679 
1.1296873865 1.24411054 1.3575464161 1.4671972081 0.71487100155 0.80816628637 0.90937090954 1.0172219679 1.1296873865 
1.24411054 1.3575464161 1.4671972081 0.60381225391 0.57404952988 0.69302191562 0.54002084522 0.66790778838 0.79216440667 
0.50083690068 0.63877777351 0.77356233629 0.90072551443 0.45538277901 0.60464862014 0.75168694275 0.89058134991 1.0172219679 
0.40226393329 0.56421707518 0.72561863695 0.87851444325 1.0172219679 1.139116835 0.33975332011 0.51573716537 0.69407236469 
0.86392567495 1.0172219679 1.1502619915 1.2630228569 0.26576171152 0.45685295248 0.6552068806 0.84594095064 1.0172219679 
1.1636342747 1.2852923014 1.3852070904 0.22715816343 0.3129712797 0.49462574053 0.49462574053 0.68021497688 0.77059342779 
1.0172219679 1.0172219679 1.0172219679 1.0172219679 2.1243706857 1.5707963268 1.3676273807 1.271087727 1.2156949949 
2.6469669131 2.1243706857 1.7739652728 1.5707963268 1.447813335 1.3676273807 2.8286213739 2.4613776767 2.1243706857 
1.8705049266 1.6937793186 1.5707963268 1.4827341049 2.9144344902 2.6469669131 2.3709992258 2.1243706857 1.9258976586 
1.7739652728 1.6588585487 1.5707963268 1.7563855631 1.8563003522 1.8785697967 1.9779583789 1.9913306621 2.0024758186 
2.1243706857 2.1243706857 2.1243706857 2.1243706857 2.295651703 2.2776669786 2.2630782103 2.2510113037 2.2408671392 
2.486385773 2.4475202889 2.4159740166 2.3899057108 2.3680303173 2.3494282469 2.6847397011 2.6258554882 2.5773755784 
2.5369440334 2.5028148801 2.4736848652 2.448570738 2.8758309421 2.8018393335 2.7393287203 2.6862098746 2.6407557529 
2.6015718084 2.5675431237 2.5377803997 5.8604937156 5.901393709 5.9723133995 5.9473927383 6.0216547488 6.0927478736 
5.9992719463 6.0767621038 6.1501452836 6.2190157008 6.0578962336 6.1383094565 6.2134963469 0 0.064169606361 
6.1241815303 6.206940195 6.2831853072 0.069688960264 0.13304002361 0.19043743361 6.1990255847 0 0.07624511221 
0.14487585072 0.20642320337 0.26153055843 0.3108719077 0 0.084159722458 0.15900377685 0.22528907359 0.28391336087 
0.3357925689 0.38179159818 0.42269159155 5.8604937156 5.9723133995 5.901393709 6.0927478736 6.0216547488 5.9473927383 
6.2190157008 6.1501452836 6.0767621038 5.9992719463 0.064169606361 0 6.2134963469 6.1383094565 6.0578962336 
0.19043743361 0.13304002361 0.069688960264 6.2831853072 6.206940195 6.1241815303 0.3108719077 0.26153055843 0.20642320337 
0.14487585072 0.07624511221 6.2831853072 6.1990255847 0.42269159155 0.38179159818 0.3357925689 0.28391336087 0.22528907359 
0.15900377685 0.084159722458 0 5.6793730533 5.7091357773 5.5901633916 5.743164462 5.6152775188 5.4910209005 
5.7823484065 5.6444075337 5.5096229709 5.3824597928 5.8278025282 5.678536687 5.5314983644 5.3926039573 5.2659633393 
5.8809213739 5.718968232 5.5575666702 5.4046708639 5.2659633393 5.1440684722 5.9434319871 5.7674481418 5.5891129425 
5.4192596322 5.2659633393 5.1329233157 5.0201624502 6.0174235957 5.8263323547 5.6279784266 5.4372443565 5.2659633393 
5.1195510325 4.9978930058 4.8979782167 1.3852070904 1.2852923014 1.2630228569 1.1636342747 1.1502619915 1.139116835 
1.0172219679 1.0172219679 1.0172219679 1.0172219679 0.84594095064 0.86392567495 0.87851444325 0.89058134991 0.90072551443 
0.6552068806 0.69407236469 0.72561863695 0.75168694275 0.77356233629 0.79216440667 0.45685295248 0.51573716537 0.56421707518 
0.60464862014 0.63877777351 0.66790778838 0.69302191562 0.26576171152 0.33975332011 0.40226393329 0.45538277901 0.50083690068 
0.54002084522 0.57404952988 0.60381225391 
_paraPhiHalf 1 1002 double
0 3.1415926536 0 3.1415926536 1.5707963268 1.5707963268 1.5707963268 1.5707963268 2.5880182947 
0.5535743589 2.5880182947 0.5535743589 0 0 0 0 3.1415926536 3.1415926536 
3.1415926536 3.1415926536 3.1415926536 0.17788134 0.38438696014 0.60631181711 0.82323535693 1.0172219679 1.1799687454 
1.3118704726 1.4175000338 1.5022335207 0.17788134 0.38438696014 0.60631181711 0.82323535693 1.0172219679 1.1799687454 
1.3118704726 1.4175000338 1.5022335207 0.093902416448 0.17615329733 0.2478725152 0.31035131605 0.36486382811 0.41257334776 
0.45449736604 0.4915044461 0.52432611754 0.093902416448 0.17615329733 0.2478725152 0.31035131605 0.36486382811 0.41257334776 
0.45449736604 0.4915044461 0.52432611754 2.9637113136 2.7572056934 2.5352808365 2.3183572967 2.1243706857 1.9616239082 
1.829722181 1.7240926197 1.6393591329 2.9637113136 2.7572056934 2.5352808365 2.3183572967 2.1243706857 1.9616239082 
1.829722181 1.7240926197 1.6393591329 3.0476902371 2.9654393563 2.8937201384 2.8312413375 2.7767288255 2.7290193058 
2.6870952876 2.6500882075 2.617266536 3.0476902371 2.9654393563 2.8937201384 2.8312413375 2.7767288255 2.7290193058 
2.6870952876 2.6500882075 2.617266536 0 0 0 0 3.1415926536 3.1415926536 
3.1415926536 3.1415926536 3.1415926536 0.17788134 0.38438696014 0.60631181711 0.82323535693 1.0172219679 1.1799687454 
1.3118704726 1.4175000338 1.5022335207 0.17788134 0.38438696014 0.60631181711 0.82323535693 1.0172219679 1.1799687454 
1.3118704726 1.4175000338 1.5022335207 0.093902416448 0.17615329733 0.2478725152 0.31035131605 0.36486382811 0.41257334776 
0.45449736604 0.4915044461 0.52432611754 0.093902416448 0.17615329733 0.2478725152 0.31035131605 0.36486382811 0.41257334776 
0.45449736604 0.4915044461 0.52432611754 2.9637113136 2.7572056934 2.5352808365 2.3183572967 2.1243706857 1.9616239082 
1.829722181 1.7240926197 1.6393591329 2.9637113136 2.7572056934 2.5352808365 2.3183572967 2.1243706857 1.9616239082 
1.829722181 1.7240926197 1.6393591329 3.0476902371 2.9654393563 2.8937201384 2.8312413375 2.7767288255 2.7290193058 
2.6870952876 2.6500882075 2.617266536 3.0476902371 2.9654393563 2.8937201384 2.8312413375 2.7767288255 2.7290193058 
2.6870952876 2.6500882075 2.617266536 1.5707963268 1.5707963268 1.5707963268 1.5707963268 1.5707963268 1.5707963268 
1.5707963268 1.5707963268 1.5707963268 1.6743954455 1.7840462375 1.8974821136 2.0119052671 2.1243706857 2.232221744 
2.3334263672 2.426721652 2.5115728246 1.4671972081 1.3575464161 1.24411054 1.1296873865 1.0172219679 0.90937090954 
0.80816628637 0.71487100155 0.63001982895 1.6743954455 1.7840462375 1.8974821136 2.0119052671 2.1243706857 2.232221744 
2.3334263672 2.426721652 2.5115728246 1.4671972081 1.3575464161 1.24411054 1.1296873865 1.0172219679 0.90937090954 
0.80816628637 0.71487100155 0.63001982895 1.5707963268 1.5707963268 1.5707963268 1.5707963268 1.5707963268 1.5707963268 
1.5707963268 1.5707963268 1.5707963268 1.6743954455 1.7840462375 1.8974821136 2.0119052671 2.1243706857 2.232221744 
2.3334263672 2.426721652 2.5115728246 1.4671972081 1.3575464161 1.24411054 1.1296873865 1.0172219679 0.90937090954 
0.80816628637 0.71487100155 0.63001982895 1.6743954455 1.7840462375 1.8974821136 2.0119052671 2.1243706857 2.232221744 
2.3334263672 2.426721652 2.5115728246 1.4671972081 1.3575464161 1.24411054 1.1296873865 1.0172219679 0.90937090954 
0.80816628637 0.71487100155 0.63001982895 2.6824132222 2.7864913217 2.8992382033 3.0186096618 3.1415926536 3.0186096618 
2.8992382033 2.7864913217 2.6824132222 0.45917943135 0.35510133185 0.2423544503 0.12298299178 0 0.12298299178 
0.2423544503 0.35510133185 0.45917943135 0.22715816343 0.49462574053 0.3129712797 0.77059342779 0.68021497688 0.49462574053 
1.0172219679 1.0172219679 1.0172219679 1.0172219679 1.2156949949 1.271087727 1.3676273807 1.5707963268 2.1243706857 
1.3676273807 1.447813335 1.5707963268 1.7739652728 2.1243706857 2.6469669131 1.4827341049 1.5707963268 1.6937793186 
1.8705049266 2.1243706857 2.4613776767 2.8286213739 1.5707963268 1.6588585487 1.7739652728 1.9258976586 2.1243706857 
2.3709992258 2.6469669131 2.9144344902 0.26576171152 0.33975332011 0.45685295248 0.40226393329 0.51573716537 0.6552068806 
0.45538277901 0.56421707518 0.69407236469 0.84594095064 0.50083690068 0.60464862014 0.72561863695 0.86392567495 1.0172219679 
0.54002084522 0.63877777351 0.75168694275 0.87851444325 1.0172219679 1.1636342747 0.57404952988 0.66790778838 0.77356233629 
0.89058134991 1.0172219679 1.1502619915 1.2852923014 0.60381225391 0.69302191562 0.79216440667 0.90072551443 1.0172219679 
1.139116835 1.2630228569 1.3852070904 0.71487100155 0.80816628637 0.80816628637 0.90937090954 0.90937090954 0.90937090954 
1.0172219679 1.0172219679 1.0172219679 1.0172219679 1.1296873865 1.1296873865 1.1296873865 1.1296873865 1.1296873865 
1.24411054 1.24411054 1.24411054 1.24411054 1.24411054 1.24411054 1.3575464161 1.3575464161 1.3575464161 
1.3575464161 1.3575464161 1.3575464161 1.3575464161 1.4671972081 1.4671972081 1.4671972081 1.4671972081 1.4671972081 
1.4671972081 1.4671972081 1.4671972081 1.6743954455 1.6743954455 1.7840462375 1.6743954455 1.7840462375 1.8974821136 
1.6743954455 1.7840462375 1.8974821136 2.0119052671 1.6743954455 1.7840462375 1.8974821136 2.0119052671 2.1243706857 
1.6743954455 1.7840462375 1.8974821136 2.0119052671 2.1243706857 2.232221744 1.6743954455 1.7840462375 1.8974821136 
2.0119052671 2.1243706857 2.232221744 2.3334263672 1.6743954455 1.7840462375 1.8974821136 2.0119052671 2.1243706857 
2.232221744 2.3334263672 2.426721652 1.7563855631 1.8785697967 1.8563003522 2.0024758186 1.9913306621 1.9779583789 
2.1243706857 2.1243706857 2.1243706857 2.1243706857 2.2408671392 2.2510113037 2.2630782103 2.2776669786 2.295651703 
2.3494282469 2.3680303173 2.3899057108 2.4159740166 2.4475202889 2.486385773 2.448570738 2.4736848652 2.5028148801 
2.5369440334 2.5773755784 2.6258554882 2.6847397011 2.5377803997 2.5675431237 2.6015718084 2.6407557529 2.6862098746 
2.7393287203 2.8018393335 2.8758309421 2.718901062 2.8307207459 2.7598010554 2.95115522 2.8800620952 2.8058000847 
3.0774230472 3.00855263 2.9351694502 2.8576792927 3.0774230472 3.1415926536 3.0719036933 2.9967168029 2.91630358 
2.95115522 3.00855263 3.0719036933 3.1415926536 3.0653475414 2.9825888767 2.8307207459 2.8800620952 2.9351694502 
2.9967168029 3.0653475414 3.1415926536 3.0574329311 2.718901062 2.7598010554 2.8058000847 2.8576792927 2.91630358 
2.9825888767 3.0574329311 3.1415926536 2.718901062 2.7598010554 2.8307207459 2.8058000847 2.8800620952 2.95115522 
2.8576792927 2.9351694502 3.00855263 3.0774230472 2.91630358 2.9967168029 3.0719036933 3.1415926536 3.0774230472 
2.9825888767 3.0653475414 3.1415926536 3.0719036933 3.00855263 2.95115522 3.0574329311 3.1415926536 3.0653475414 