# vtk DataFile Version 5.1
vtk output
ASCII
DATASET POLYDATA
POINTS 1002 float
-0.0689926 -0.544528 -0.499762 -0.070115 0.537565 0.135995 -0.097663 -0.685556 -0.124179 
-0.0950373 0.343275 0.312384 -0.43221 -0.03358 -0.175794 -0.437679 -0.137032 -0.029743 
-0.00287791 -0.188775 -0.225328 -0.046527 -0.260978 -0.124321 -0.0949607 0.674179 0.358187 
-0.281883 -0.802982 -0.42091 0.493721 0.682706 0.407563 0.439501 -0.814039 -0.357091 
-0.101277 -0.487148 -0.462667 -0.137556 -0.428599 -0.413133 -0.164539 -0.347999 -0.358144 
-0.172917 -0.226442 -0.301581 -0.171702 -0.0700968 -0.235939 -0.175162 0.0926306 -0.154809 
-0.176586 0.236075 -0.0675829 -0.157896 0.353338 0.0116233 -0.117611 0.451385 0.0786584 
-0.118907 -0.517481 -0.477837 -0.17485 -0.463841 -0.440824 -0.230076 -0.382432 -0.402094 
-0.280287 -0.294512 -0.376142 -0.325714 -0.228403 -0.361754 -0.365384 -0.188556 -0.343639 
-0.39529 -0.156399 -0.31142 -0.414215 -0.118733 -0.267749 -0.425329 -0.0765389 -0.220596 
-0.0416952 -0.52601 -0.492681 -0.015856 -0.512261 -0.48174 0.00919858 -0.5023 -0.463614 
0.0323075 -0.486292 -0.436075 0.0487394 -0.456938 -0.402625 0.0528767 -0.420631 -0.369678 
0.0437098 -0.38431 -0.338941 0.0265793 -0.339402 -0.306599 0.00924754 -0.273618 -0.268819 
-0.0728433 -0.604098 -0.523861 -0.0853007 -0.676221 -0.549757 -0.10685 -0.735927 -0.566378 
-0.136728 -0.7643 -0.562135 -0.172674 -0.773139 -0.541235 -0.20874 -0.78503 -0.517824 
-0.238123 -0.799908 -0.496037 -0.258836 -0.806801 -0.472029 -0.272812 -0.806081 -0.446028 
-0.0254411 -0.593198 -0.515147 0.0129462 -0.643769 -0.506344 0.0504251 -0.688758 -0.483463 
0.097919 -0.719506 -0.464999 0.160522 -0.745448 -0.45666 0.231219 -0.778526 -0.448725 
0.300302 -0.805459 -0.433809 0.362005 -0.811729 -0.412606 0.410546 -0.808996 -0.38674 
-0.113897 0.500734 0.107693 -0.15814 0.465604 0.0757582 -0.203464 0.424817 0.0388692 
-0.2504 0.36938 -0.00217615 -0.295291 0.304272 -0.0407124 -0.333668 0.242033 -0.0714256 
-0.365668 0.181476 -0.0980397 -0.392994 0.112757 -0.125718 -0.415244 0.0372426 -0.152925 
-0.0556406 0.524202 0.128092 -0.0410857 0.508783 0.114076 -0.0278851 0.487583 0.091558 
-0.0203188 0.451905 0.0647747 -0.0225851 0.391483 0.0367441 -0.0326648 0.301063 -0.00160969 
-0.0414479 0.184106 -0.0591652 -0.0400691 0.0524526 -0.126567 -0.0261835 -0.0770343 -0.18517 
-0.0520456 0.596457 0.174148 -0.0397314 0.654671 0.213196 -0.0334115 0.70556 0.248536 
-0.0297489 0.738799 0.275905 -0.0287561 0.746746 0.296908 -0.034596 0.736034 0.317072 
-0.0471929 0.72244 0.336746 -0.061933 0.711115 0.350667 -0.0772431 0.695849 0.356658 
-0.0112293 0.615242 0.187179 0.0524061 0.691819 0.242016 0.122504 0.750856 0.297376 
0.206131 0.787928 0.34313 0.30054 0.812443 0.366474 0.386512 0.824365 0.367354 
0.447047 0.809442 0.363107 0.481243 0.76689 0.369823 0.495391 0.717848 0.387658 
-0.125266 -0.613179 -0.100257 -0.14763 -0.541273 -0.0832469 -0.168493 -0.467944 -0.0798643 
-0.197079 -0.348973 -0.0769669 -0.226095 -0.157948 -0.0409607 -0.229253 0.0431704 0.0420301 
-0.198247 0.171667 0.141951 -0.155968 0.230737 0.222128 -0.122391 0.278391 0.2752 
-0.138334 -0.663176 -0.125683 -0.178808 -0.638788 -0.131519 -0.22215 -0.603322 -0.139665 
-0.271798 -0.545875 -0.136432 -0.323877 -0.469065 -0.110062 -0.368303 -0.391482 -0.073151 
-0.399119 -0.327721 -0.0508536 -0.41811 -0.27281 -0.0473094 -0.42976 -0.211757 -0.044974 
-0.0738034 -0.660157 -0.106274 -0.0477881 -0.619769 -0.0825032 -0.0195596 -0.56766 -0.055575 
0.00996694 -0.515268 -0.035615 0.0354585 -0.476227 -0.0348051 0.0459275 -0.453587 -0.0565368 
0.0341904 -0.434023 -0.0904554 0.00646867 -0.398687 -0.119352 -0.0235611 -0.339143 -0.13114 
-0.0951336 -0.72803 -0.149381 -0.0989577 -0.744783 -0.177572 -0.112378 -0.744593 -0.211207 
-0.131841 -0.7548 -0.248021 -0.152802 -0.788216 -0.282988 -0.17721 -0.82507 -0.315538 
-0.207241 -0.841792 -0.347442 -0.238103 -0.837295 -0.376964 -0.263542 -0.822255 -0.401432 
-0.049552 -0.74024 -0.140082 0.00456248 -0.781008 -0.155261 0.0567036 -0.790738 -0.169978 
0.105628 -0.784143 -0.19173 0.162532 -0.802056 -0.223117 0.238234 -0.851875 -0.254257 
0.324636 -0.889639 -0.278251 0.397276 -0.883271 -0.301336 0.436255 -0.848239 -0.329164 
-0.124125 0.312572 0.306559 -0.162481 0.294071 0.291719 -0.208217 0.287748 0.268737 
-0.255604 0.28261 0.241448 -0.300919 0.260418 0.210985 -0.342688 0.206899 0.173281 
-0.377555 0.123404 0.124646 -0.402944 0.0270146 0.0684983 -0.4214 -0.0630289 0.0143089 
-0.0898407 0.334964 0.29362 -0.0890671 0.328746 0.271789 -0.0893233 0.320268 0.24273 
-0.0881427 0.295016 0.203168 -0.0874488 0.233692 0.151182 -0.0905747 0.132396 0.0854655 
-0.095259 0.0116866 0.0117576 -0.0930729 -0.10142 -0.0544487 -0.0768527 -0.192675 -0.100031 
-0.0812965 0.397396 0.347312 -0.0640925 0.453893 0.386553 -0.0449835 0.509488 0.41771 
-0.0283042 0.566154 0.427728 -0.017394 0.612285 0.419048 -0.0139981 0.630987 0.405668 
-0.0206891 0.633183 0.395374 -0.0389108 0.643037 0.386185 -0.0656118 0.661495 0.374295 
-0.0550706 0.418227 0.33166 0.00852557 0.497978 0.351822 0.101338 0.560048 0.385807 
0.207775 0.597065 0.436102 0.303221 0.620468 0.481033 0.37893 0.641661 0.497751 
0.438635 0.660164 0.488939 0.47996 0.671429 0.468125 0.49751 0.676808 0.44022 
-0.444796 -0.0472245 -0.160912 -0.457746 -0.0564413 -0.146204 -0.470962 -0.0579027 -0.132906 
-0.483706 -0.0569221 -0.116096 -0.493857 -0.0622219 -0.0901054 -0.496811 -0.0749081 -0.060875 
-0.488784 -0.0904772 -0.0421878 -0.47216 -0.107185 -0.0372286 -0.45363 -0.124037 -0.0360092 
-0.427327 0.0605068 -0.118099 -0.419418 0.166941 -0.0578169 -0.405342 0.267014 0.00203288 
-0.379813 0.355638 0.063019 -0.342873 0.445965 0.128418 -0.302769 0.53844 0.194012 
-0.263505 0.610059 0.250178 -0.218014 0.64757 0.293572 -0.160364 0.66303 0.328178 
-0.443133 -0.120239 -0.223073 -0.45369 -0.196886 -0.269717 -0.464958 -0.281326 -0.316334 
-0.473173 -0.390594 -0.364145 -0.466211 -0.502989 -0.404114 -0.435706 -0.583838 -0.423032 
-0.390892 -0.639562 -0.423774 -0.348221 -0.696623 -0.42137 -0.313363 -0.756091 -0.422048 
-0.434322 0.00405864 0.0306448 -0.429988 0.169073 0.112415 -0.418978 0.315321 0.189161 
-0.393738 0.412635 0.239392 -0.356839 0.480657 0.272405 -0.31789 0.549376 0.304853 
-0.275902 0.607558 0.330513 -0.222305 0.636472 0.34094 -0.158468 0.650698 0.346055 
-0.450415 -0.245133 -0.0746296 -0.46152 -0.335617 -0.110415 -0.464161 -0.416358 -0.151696 
-0.454746 -0.495243 -0.20454 -0.435188 -0.564349 -0.254945 -0.407305 -0.618262 -0.29218 
-0.373094 -0.66815 -0.324703 -0.338582 -0.720853 -0.360384 -0.308617 -0.768545 -0.394568 
0.00727279 -0.193539 -0.213751 0.0139028 -0.197614 -0.198937 0.0140863 -0.202662 -0.185434 
0.00722714 -0.209418 -0.176016 -0.00273431 -0.21747 -0.167524 -0.0107234 -0.225124 -0.155406 
-0.0166056 -0.230816 -0.141219 -0.0242165 -0.23655 -0.13054 -0.0350109 -0.246417 -0.125697 
-0.0162856 -0.0158553 -0.148016 0.00148968 0.167042 -0.0546746 0.0508414 0.307485 0.0347856 
0.115746 0.39883 0.111884 0.181421 0.48426 0.185812 0.250106 0.578655 0.25722 
0.32605 0.646328 0.311496 0.399302 0.67026 0.345974 0.456571 0.674529 0.374618 
0.0416122 -0.326423 -0.273953 0.106612 -0.406809 -0.298921 0.179158 -0.431679 -0.308834 
0.242648 -0.453322 -0.317228 0.285167 -0.51668 -0.32494 0.311275 -0.605973 -0.329275 
0.340833 -0.681541 -0.337432 0.383368 -0.734108 -0.351543 0.423396 -0.776098 -0.360758 
-0.0741633 -0.114755 -0.0792204 -0.0649409 0.0665472 0.00603284 -0.0143218 0.2352 0.109561 
0.0630557 0.359723 0.199298 0.149576 0.460058 0.266175 0.239009 0.55761 0.322717 
0.327087 0.628386 0.369967 0.403177 0.653888 0.396994 0.458834 0.660927 0.405092 
0.014683 -0.353413 -0.134509 0.0933252 -0.407972 -0.12503 0.167134 -0.44334 -0.122166 
0.224186 -0.492105 -0.14211 0.273702 -0.564861 -0.17342 0.32798 -0.645287 -0.203015 
0.383402 -0.715385 -0.237433 0.426135 -0.766583 -0.281659 0.445568 -0.797681 -0.325225 
-0.0117744 0.715876 0.392778 0.0766198 0.777927 0.436574 0.17002 0.819901 0.475255 
0.276854 0.810392 0.500783 0.391161 0.782869 0.521738 0.482213 0.78466 0.537226 
0.527473 0.794804 0.526646 0.534719 0.770824 0.486208 0.520919 0.721987 0.439869 
-0.239805 -0.833756 -0.42605 -0.178706 -0.843169 -0.418423 -0.0960478 -0.841088 -0.404804 
-0.00557493 -0.843002 -0.393038 0.0775476 -0.847646 -0.378434 0.159539 -0.847291 -0.358069 
0.252752 -0.846302 -0.346063 0.345405 -0.846207 -0.350868 0.411511 -0.837221 -0.359515 
-0.153797 -0.441473 -0.426636 -0.205032 -0.365393 -0.385435 -0.185235 -0.359246 -0.373276 
-0.24887 -0.274036 -0.35431 -0.224011 -0.267217 -0.338889 -0.199039 -0.256021 -0.324533 
-0.287521 -0.200246 -0.335918 -0.254176 -0.182899 -0.314921 -0.223997 -0.16139 -0.29704 
-0.194235 -0.12213 -0.272207 -0.326235 -0.1562 -0.31618 -0.285333 -0.126463 -0.289751 
-0.248122 -0.0882876 -0.267083 -0.21455 -0.0319975 -0.240057 -0.189101 0.0331727 -0.201605 
-0.362367 -0.119562 -0.283763 -0.321617 -0.079399 -0.252533 -0.280523 -0.0278112 -0.22485 
-0.242961 0.0420183 -0.197034 -0.212478 0.119584 -0.160767 -0.192425 0.185051 -0.115481 
-0.389147 -0.0707267 -0.241274 -0.355109 -0.0177221 -0.20804 -0.316905 0.042462 -0.176596 
-0.278712 0.115157 -0.147906 -0.242766 0.195235 -0.114911 -0.212581 0.263738 -0.0745461 
-0.186903 0.312466 -0.0306103 -0.40552 -0.0146666 -0.196142 -0.37859 0.0523439 -0.165025 
-0.34644 0.118511 -0.133894 -0.311215 0.186248 -0.105216 -0.272737 0.259266 -0.0734594 
-0.232998 0.327121 -0.0354152 -0.19531 0.377053 0.00503444 -0.158038 0.41407 0.0437171 
-0.128083 -0.576155 -0.505027 -0.146551 -0.644048 -0.530511 -0.191482 -0.517535 -0.467324 
-0.172242 -0.696006 -0.541646 -0.216054 -0.578633 -0.489872 -0.255621 -0.430396 -0.427578 
-0.202203 -0.71958 -0.533754 -0.242865 -0.624879 -0.498536 -0.285569 -0.487306 -0.449169 
-0.314276 -0.339319 -0.402154 -0.234568 -0.73 -0.516994 -0.268866 -0.649466 -0.494954 
-0.311961 -0.536007 -0.460601 -0.346849 -0.395812 -0.423743 -0.363244 -0.270551 -0.386562 
-0.265128 -0.742146 -0.499055 -0.295317 -0.665329 -0.486613 -0.334994 -0.572718 -0.464114 
[...]
POINT_DATA 1002
FIELD FieldData 4
_paraPhi 1 1002 double
6.2831853072 3.1415926536 6.2831853072 3.1415926536 4.7123889804 4.7123889804 1.5707963268 1.5707963268 3.6951670125 
5.7296109483 2.5880182947 0.5535743589 6.2831853072 6.2831853072 6.2831853072 6.2831853072 3.1415926536 3.1415926536 
3.1415926536 3.1415926536 3.1415926536 6.1053039672 5.898798347 5.6768734901 5.4599499503 5.2659633393 5.1032165617 
4.9713148346 4.8656852733 4.7809517865 0.17788134 0.38438696014 0.60631181711 0.82323535693 1.0172219679 1.1799687454 
1.3118704726 1.4175000338 1.5022335207 6.1892828907 6.1070320098 6.035312792 5.9728339911 5.9183214791 5.8706119594 
5.8286879411 5.7916808611 5.7588591896 0.093902416448 0.17615329733 0.2478725152 0.31035131605 0.36486382811 0.41257334776 
0.45449736604 0.4915044461 0.52432611754 3.3194739936 3.5259796137 3.7479044707 3.9648280105 4.1588146215 4.321561399 
4.4534631262 4.5590926874 4.6438261743 2.9637113136 2.7572056934 2.5352808365 2.3183572967 2.1243706857 1.9616239082 
1.829722181 1.7240926197 1.6393591329 3.23549507 3.3177459509 3.3894651688 3.4519439696 3.5064564817 3.5541660013 
3.5960900196 3.6330970997 3.6659187711 3.0476902371 2.9654393563 2.8937201384 2.8312413375 2.7767288255 2.7290193058 
2.6870952876 2.6500882075 2.617266536 6.2831853072 6.2831853072 6.2831853072 6.2831853072 3.1415926536 3.1415926536 
3.1415926536 3.1415926536 3.1415926536 6.1053039672 5.898798347 5.6768734901 5.4599499503 5.2659633393 5.1032165617 
4.9713148346 4.8656852733 4.7809517865 0.17788134 0.38438696014 0.60631181711 0.82323535693 1.0172219679 1.1799687454 
1.3118704726 1.4175000338 1.5022335207 6.1892828907 6.1070320098 6.035312792 5.9728339911 5.9183214791 5.8706119594 
5.8286879411 5.7916808611 5.7588591896 0.093902416448 0.17615329733 0.2478725152 0.31035131605 0.36486382811 0.41257334776 
0.45449736604 0.4915044461 0.52432611754 3.3194739936 3.5259796137 3.7479044707 3.9648280105 4.1588146215 4.321561399 
4.4534631262 4.5590926874 4.6438261743 2.9637113136 2.7572056934 2.5352808365 2.3183572967 2.1243706857 1.9616239082 
1.829722181 1.7240926197 1.6393591329 3.23549507 3.3177459509 3.3894651688 3.4519439696 3.5064564817 3.5541660013 
3.5960900196 3.6330970997 3.6659187711 3.0476902371 2.9654393563 2.8937201384 2.8312413375 2.7767288255 2.7290193058 
2.6870952876 2.6500882075 2.617266536 4.7123889804 4.7123889804 4.7123889804 4.7123889804 4.7123889804 4.7123889804 
4.7123889804 4.7123889804 4.7123889804 4.6087898617 4.4991390697 4.3857031936 4.2712800401 4.1588146215 4.0509635631 
3.94975894 3.8564636551 3.7716124825 4.8159880991 4.9256388911 5.0390747672 5.1534979207 5.2659633393 5.3738143976 
5.4750190208 5.5683143056 5.6531654782 4.6087898617 4.4991390697 4.3857031936 4.2712800401 4.1588146215 4.0509635631 
3.94975894 3.8564636551 3.7716124825 4.8159880991 4.9256388911 5.0390747672 5.1534979207 5.2659633393 5.3738143976 
5.4750190208 5.5683143056 5.6531654782 1.5707963268 1.5707963268 1.5707963268 1.5707963268 1.5707963268 1.5707963268 
1.5707963268 1.5707963268 1.5707963268 1.6743954455 1.7840462375 1.8974821136 2.0119052671 2.1243706857 2.232221744 
2.3334263672 2.426721652 2.5115728246 1.4671972081 1.3575464161 1.24411054 1.1296873865 1.0172219679 0.90937090954 
0.80816628637 0.71487100155 0.63001982895 1.6743954455 1.7840462375 1.8974821136 2.0119052671 2.1243706857 2.232221744 
2.3334263672 2.426721652 2.5115728246 1.4671972081 1.3575464161 1.24411054 1.1296873865 1.0172219679 0.90937090954 
0.80816628637 0.71487100155 0.63001982895 3.6007720849 3.4966939854 3.3839471039 3.2645756454 3.1415926536 3.0186096618 
2.8992382033 2.7864913217 2.6824132222 5.8240058758 5.9280839753 6.0408308569 6.1602023154 6.2831853072 0.12298299178 
0.2423544503 0.35510133185 0.45917943135 6.0560271438 5.7885595667 5.9702140275 5.5125918794 5.6029703303 5.7885595667 
5.2659633393 5.2659633393 5.2659633393 5.2659633393 5.0674903122 5.0120975802 4.9155579264 4.7123889804 4.1588146215 
4.9155579264 4.8353719722 4.7123889804 4.5092200343 4.1588146215 3.6362183941 4.8004512023 4.7123889804 4.5894059886 
4.4126803806 4.1588146215 3.8218076305 3.4545639333 4.7123889804 4.6243267584 4.5092200343 4.3572876485 4.1588146215 
3.9121860814 3.6362183941 3.368750817 6.0174235957 5.9434319871 5.8263323547 5.8809213739 5.7674481418 5.6279784266 
5.8278025282 5.718968232 5.5891129425 5.4372443565 5.7823484065 5.678536687 5.5575666702 5.4192596322 5.2659633393 
5.743164462 5.6444075337 5.5314983644 5.4046708639 5.2659633393 5.1195510325 5.7091357773 5.6152775188 5.5096229709 
5.3926039573 5.2659633393 5.1329233157 4.9978930058 5.6793730533 5.5901633916 5.4910209005 5.3824597928 5.2659633393 
5.1440684722 5.0201624502 4.8979782167 5.5683143056 5.4750190208 5.4750190208 5.3738143976 5.3738143976 5.3738143976 
5.2659633393 5.2659633393 5.2659633393 5.2659633393 5.1534979207 5.1534979207 5.1534979207 5.1534979207 5.1534979207 
5.0390747672 5.0390747672 5.0390747672 5.0390747672 5.0390747672 5.0390747672 4.9256388911 4.9256388911 4.9256388911 
4.9256388911 4.9256388911 4.9256388911 4.9256388911 4.8159880991 4.8159880991 4.8159880991 4.8159880991 4.8159880991 
4.8159880991 4.8159880991 4.8159880991 4.6087898617 4.6087898617 4.4991390697 4.6087898617 4.4991390697 4.3857031936 
4.6087898617 4.4991390697 4.3857031936 4.2712800401 4.6087898617 4.4991390697 4.3857031936 4.2712800401 4.1588146215 
4.6087898617 4.4991390697 4.3857031936 4.2712800401 4.1588146215 4.0509635631 4.6087898617 4.4991390697 4.3857031936 
4.2712800401 4.1588146215 4.0509635631 3.94975894 4.6087898617 4.4991390697 4.3857031936 4.2712800401 4.1588146215 
4.0509635631 3.94975894 3.8564636551 4.526799744 4.4046155105 4.426884955 4.2807094886 4.2918546451 4.3052269283 
4.1588146215 4.1588146215 4.1588146215 4.1588146215 4.042318168 4.0321740035 4.0201070968 4.0055183285 3.9875336042 
3.9337570603 3.9151549899 3.8932795963 3.8672112905 3.8356650183 3.7967995342 3.8346145692 3.809500442 3.7803704271 
3.7462412737 3.7058097288 3.657329819 3.5984456061 3.7454049075 3.7156421835 3.6816134988 3.6424295543 3.5969754326 
3.5438565869 3.4813459737 3.4073543651 3.5642842451 3.4524645613 3.5233842518 3.3320300872 3.403123212 3.4773852225 
3.20576226 3.2746326772 3.348015857 3.4255060145 3.0774230472 3.1415926536 3.2112816139 3.2864685043 3.3668817272 
2.95115522 3.00855263 3.0719036933 3.1415926536 3.2178377658 3.3005964304 2.8307207459 2.8800620952 2.9351694502 
2.9967168029 3.0653475414 3.1415926536 3.225752376 2.718901062 2.7598010554 2.8058000847 2.8576792927 2.91630358 
2.9825888767 3.0574329311 3.1415926536 3.5642842451 3.5233842518 3.4524645613 3.4773852225 3.403123212 3.3320300872 
3.4255060145 3.348015857 3.2746326772 3.20576226 3.3668817272 3.2864685043 3.2112816139 3.1415926536 3.0774230472 
3.3005964304 3.2178377658 3.1415926536 3.0719036933 3.00855263 2.95115522 3.225752376 3.1415926536 3.0653475414 
2.9967168029 2.9351694502 2.8800620952 2.8307207459 3.1415926536 3.0574329311 2.9825888767 2.91630358 2.8576792927 
2.8058000847 2.7598010554 2.718901062 4.526799744 4.426884955 4.4046155105 4.3052269283 4.2918546451 4.2807094886 
4.1588146215 4.1588146215 4.1588146215 4.1588146215 3.9875336042 4.0055183285 4.0201070968 4.0321740035 4.042318168 
3.7967995342 3.8356650183 3.8672112905 3.8932795963 3.9151549899 3.9337570603 3.5984456061 3.657329819 3.7058097288 
3.7462412737 3.7803704271 3.809500442 3.8346145692 3.4073543651 3.4813459737 3.5438565869 3.5969754326 3.6424295543 
3.6816134988 3.7156421835 3.7454049075 4.7123889804 4.8004512023 4.6243267584 4.9155579264 4.7123889804 4.5092200343 
5.0674903122 4.8353719722 4.5894059886 4.3572876485 5.2659633393 5.0120975802 4.7123889804 4.4126803806 4.1588146215 
5.5125918794 5.2659633393 4.9155579264 4.5092200343 4.1588146215 3.9121860814 5.7885595667 5.6029703303 5.2659633393 
4.7123889804 4.1588146215 3.8218076305 3.6362183941 6.0560271438 5.9702140275 5.7885595667 5.2659633393 4.1588146215 
3.6362183941 3.4545639333 3.368750817 0.22715816343 0.49462574053 0.3129712797 0.77059342779 0.68021497688 0.49462574053 
1.0172219679 1.0172219679 1.0172219679 1.0172219679 1.2156949949 1.271087727 1.3676273807 1.5707963268 2.1243706857 
1.3676273807 1.447813335 1.5707963268 1.7739652728 2.1243706857 2.6469669131 1.4827341049 1.5707963268 1.6937793186 
1.8705049266 2.1243706857 2.4613776767 2.8286213739 1.5707963268 1.6588585487 1.7739652728 1.9258976586 2.1243706857 
2.3709992258 2.6469669131 2.9144344902 1.7563855631 1.8785697967 1.8563003522 2.0024758186 1.9913306621 1.9779583789 
2.1243706857 2.1243706857 2.1243706857 2.1243706857 2.2408671392 2.2510113037 2.2630782103 2.2776669786 2.295651703 
2.3494282469 2.3680303173 2.3899057108 2.4159740166 2.4475202889 2.486385773 2.448570738 2.4736848652 2.5028148801 
2.5369440334 2.5773755784 2.6258554882 2.6847397011 2.5377803997 2.5675431237 2.6015718084 2.6407557529 2.6862098746 
2.7393287203 2.8018393335 2.8758309421 1.6743954455 1.6743954455 1.7840462375 1.6743954455 1.7840462375 1.8974821136 
1.6743954455 1.7840462375 1.8974821136 2.0119052671 1.6743954455 1.7840462375 1.8974821136 2.0119052671 2.1243706857 
1.6743954455 1.7840462375 1.8974821136 2.0119052671 2.1243706857 2.232221744 1.6743954455 1.7840462375 1.8974821136 
2.0119052671 2.1243706857 2.232221744 2.3334263672 1.6743954455 1.7840462375 1.8974821136 2.0119052671 2.1243706857 
2.232221744 2.3334263672 2.426721652 1.4671972081 1.3575464161 1.4671972081 1.24411054 1.3575464161 1.4671972081 
1.1296873865 1.24411054 1.3575464161 1.4671972081 1.0172219679 1.1296873865 1.24411054 1.3575464161 1.4671972081 
0.90937090954 1.0172219679 1.1296873865 1.24411054 1.3575464161 1.4671972081 0.80816628637 0.90937090954 1.0172219679 
1.1296873865 1.24411054 1.3575464161 1.4671972081 0.71487100155 0.80816628637 0.90937090954 1.0172219679 1.1296873865 
1.24411054 1.3575464161 1.4671972081 0.60381225391 0.57404952988 0.69302191562 0.54002084522 0.66790778838 0.79216440667 
0.50083690068 0.63877777351 0.77356233629 0.90072551443 0.45538277901 0.60464862014 0.75168694275 0.89058134991 1.0172219679 
0.40226393329 0.56421707518 0.72561863695 0.87851444325 1.0172219679 1.139116835 0.33975332011 0.51573716537 0.69407236469 
0.86392567495 1.0172219679 1.1502619915 1.2630228569 0.26576171152 0.45685295248 0.6552068806 0.84594095064 1.0172219679 
1.1636342747 1.2852923014 1.3852070904 0.22715816343 0.3129712797 0.49462574053 0.49462574053 0.68021497688 0.77059342779 
1.0172219679 1.0172219679 1.0172219679 1.0172219679 2.1243706857 1.5707963268 1.3676273807 1.271087727 1.2156949949 
2.6469669131 2.1243706857 1.7739652728 1.5707963268 1.447813335 1.3676273807 2.8286213739 2.4613776767 2.1243706857 
1.8705049266 1.6937793186 1.5707963268 1.4827341049 2.9144344902 2.6469669131 2.3709992258 2.1243706857 1.9258976586 
1.7739652728 1.6588585487 1.5707963268 1.7563855631 1.8563003522 1.8785697967 1.9779583789 1.9913306621 2.0024758186 
2.1243706857 2.1243706857 2.1243706857 2.1243706857 2.295651703 2.2776669786 2.2630782103 2.2510113037 2.2408671392 
2.486385773 2.4475202889 2.4159740166 2.3899057108 2.3680303173 2.3494282469 2.6847397011 2.6258554882 2.5773755784 
2.5369440334 2.5028148801 2.4736848652 2.448570738 2.8758309421 2.8018393335 2.7393287203 2.6862098746 2.6407557529 
2.6015718084 2.5675431237 2.5377803997 5.8604937156 5.901393709 5.9723133995 5.9473927383 6.0216547488 6.0927478736 
5.9992719463 6.0767621038 6.1501452836 6.2190157008 6.0578962336 6.1383094565 6.2134963469 0 0.064169606361 
6.1241815303 6.206940195 6.2831853072 0.069688960264 0.13304002361 0.19043743361 6.1990255847 0 0.07624511221 
0.14487585072 0.20642320337 0.26153055843 0.3108719077 0 0.084159722458 0.15900377685 0.22528907359 0.28391336087 
0.3357925689 0.38179159818 0.42269159155 5.8604937156 5.9723133995 5.901393709 6.0927478736 6.0216547488 5.9473927383 
6.2190157008 6.1501452836 6.0767621038 5.9992719463 0.064169606361 0 6.2134963469 6.1383094565 6.0578962336 
0.19043743361 0.13304002361 0.069688960264 6.2831853072 6.206940195 6.1241815303 0.3108719077 0.26153055843 0.20642320337 
0.14487585072 0.07624511221 6.2831853072 6.1990255847 0.42269159155 0.38179159818 0.3357925689 0.28391336087 0.22528907359 
0.15900377685 0.084159722458 0 5.6793730533 5.7091357773 5.5901633916 5.743164462 5.6152775188 5.4910209005 
5.7823484065 5.6444075337 5.5096229709 5.3824597928 5.8278025282 5.678536687 5.5314983644 5.3926039573 5.2659633393 
5.8809213739 5.718968232 5.5575666702 5.4046708639 5.2659633393 5.1440684722 5.9434319871 5.7674481418 5.5891129425 
5.4192596322 5.2659633393 5.1329233157 5.0201624502 6.0174235957 5.8263323547 5.6279784266 5.4372443565 5.2659633393 
5.1195510325 4.9978930058 4.8979782167 1.3852070904 1.2852923014 1.2630228569 1.1636342747 1.1502619915 1.139116835 
1.0172219679 1.0172219679 1.0172219679 1.0172219679 0.84594095064 0.86392567495 0.87851444325 0.89058134991 0.90072551443 
0.6552068806 0.69407236469 0.72561863695 0.75168694275 0.77356233629 0.79216440667 0.45685295248 0.51573716537 0.56421707518 
0.60464862014 0.63877777351 0.66790778838 0.69302191562 0.26576171152 0.33975332011 0.40226393329 0.45538277901 0.50083690068 
0.54002084522 0.57404952988 0.60381225391 
_paraPhiHalf 1 1002 double
0 3.1415926536 0 3.1415926536 1.5707963268 1.5707963268 1.5707963268 1.5707963268 2.5880182947 
0.5535743589 2.5880182947 0.5535743589 0 0 0 0 3.1415926536 3.1415926536 
3.1415926536 3.1415926536 3.1415926536 0.17788134 0.38438696014 0.60631181711 0.82323535693 1.0172219679 1.1799687454 
1.3118704726 1.4175000338 1.5022335207 0.17788134 0.38438696014 0.60631181711 0.82323535693 1.0172219679 1.1799687454 
1.3118704726 1.4175000338 1.5022335207 0.093902416448 0.17615329733 0.2478725152 0.31035131605 0.36486382811 0.41257334776 
0.45449736604 0.4915044461 0.52432611754 0.093902416448 0.17615329733 0.2478725152 0.31035131605 0.36486382811 0.41257334776 
0.45449736604 0.4915044461 0.52432611754 2.9637113136 2.7572056934 2.5352808365 2.3183572967 2.1243706857 1.9616239082 
1.829722181 1.7240926197 1.6393591329 2.9637113136 2.7572056934 2.5352808365 2.3183572967 2.1243706857 1.9616239082 
1.829722181 1.7240926197 1.6393591329 3.0476902371 2.9654393563 2.8937201384 2.8312413375 2.7767288255 2.7290193058 
2.6870952876 2.6500882075 2.617266536 3.0476902371 2.9654393563 2.8937201384 2.8312413375 2.7767288255 2.7290193058 
2.6870952876 2.6500882075 2.617266536 0 0 0 0 3.1415926536 3.1415926536 
3.1415926536 3.1415926536 3.1415926536 0.17788134 0.38438696014 0.60631181711 0.82323535693 1.0172219679 1.1799687454 
1.3118704726 1.4175000338 1.5022335207 0.17788134 0.38438696014 0.60631181711 0.82323535693 1.0172219679 1.1799687454 
1.3118704726 1.4175000338 1.5022335207 0.093902416448 0.17615329733 0.2478725152 0.31035131605 0.36486382811 0.41257334776 
0.45449736604 0.4915044461 0.52432611754 0.093902416448 0.17615329733 0.2478725152 0.31035131605 0.36486382811 0.41257334776 
0.45449736604 0.4915044461 0.52432611754 2.9637113136 2.7572056934 2.5352808365 2.3183572967 2.1243706857 1.9616239082 
1.829722181 1.7240926197 1.6393591329 2.9637113136 2.7572056934 2.5352808365 2.3183572967 2.1243706857 1.9616239082 
1.829722181 1.7240926197 1.6393591329 3.0476902371 2.9654393563 2.8937201384 2.8312413375 2.7767288255 2.7290193058 
2.6870952876 2.6500882075 2.617266536 3.0476902371 2.9654393563 2.8937201384 2.8312413375 2.7767288255 2.7290193058 
2.6870952876 2.6500882075 2.617266536 1.5707963268 1.5707963268 1.5707963268 1.5707963268 1.5707963268 1.5707963268 
1.5707963268 1.5707963268 1.5707963268 1.6743954455 1.7840462375 1.8974821136 2.0119052671 2.1243706857 2.232221744 
2.3334263672 2.426721652 2.5115728246 1.4671972081 1.3575464161 1.24411054 1.1296873865 1.0172219679 0.90937090954 
0.80816628637 0.71487100155 0.63001982895 1.6743954455 1.7840462375 1.8974821136 2.0119052671 2.1243706857 2.232221744 
2.3334263672 2.426721652 2.5115728246 1.4671972081 1.3575464161 1.24411054 1.1296873865 1.0172219679 0.90937090954 
0.80816628637 0.71487100155 0.63001982895 1.5707963268 1.5707963268 1.5707963268 1.5707963268 1.5707963268 1.5707963268 
1.5707963268 1.5707963268 1.5707963268 1.6743954455 1.7840462375 1.8974821136 2.0119052671 2.1243706857 2.232221744 
2.3334263672 2.426721652 2.5115728246 1.4671972081 1.3575464161 1.24411054 1.1296873865 1.0172219679 0.90937090954 
0.80816628637 0.71487100155 0.63001982895 1.6743954455 1.7840462375 1.8974821136 2.0119052671 2.1243706857 2.232221744 
2.3334263672 2.426721652 2.5115728246 1.4671972081 1.3575464161 1.24411054 1.1296873865 1.0172219679 0.90937090954 
0.80816628637 0.71487100155 0.63001982895 2.6824132222 2.7864913217 2.8992382033 3.0186096618 3.1415926536 3.0186096618 
2.8992382033 2.7864913217 2.6824132222 0.45917943135 0.35510133185 0.2423544503 0.12298299178 0 0.12298299178 
0.2423544503 0.35510133185 0.45917943135 0.22715816343 0.49462574053 0.3129712797 0.77059342779 0.68021497688 0.49462574053 
1.0172219679 1.0172219679 1.0172219679 1.0172219679 1.2156949949 1.271087727 1.3676273807 1.5707963268 2.1243706857 
1.3676273807 1.447813335 1.5707963268 1.7739652728 2.1243706857 2.6469669131 1.4827341049 1.5707963268 1.6937793186 
1.8705049266 2.1243706857 2.4613776767 2.8286213739 1.5707963268 1.6588585487 1.7739652728 1.9258976586 2.1243706857 
2.3709992258 2.6469669131 2.9144344902 0.26576171152 0.33975332011 0.45685295248 0.40226393329 0.51573716537 0.6552068806 
0.45538277901 0.56421707518 0.69407236469 0.84594095064 0.50083690068 0.60464862014 0.72561863695 0.86392567495 1.0172219679 
0.54002084522 0.63877777351 0.75168694275 0.87851444325 1.0172219679 1.1636342747 0.57404952988 0.66790778838 0.77356233629 
0.89058134991 1.0172219679 1.1502619915 1.2852923014 0.60381225391 0.69302191562 0.79216440667 0.90072551443 1.0172219679 
1.139116835 1.2630228569 1.3852070904 0.71487100155 0.80816628637 0.80816628637 0.90937090954 0.90937090954 0.90937090954 
1.0172219679 1.0172219679 1.0172219679 1.0172219679 1.1296873865 1.1296873865 1.1296873865 1.1296873865 1.1296873865 
1.24411054 1.24411054 1.24411054 1.24411054 1.24411054 1.24411054 1.3575464161 1.3575464161 1.3575464161 
1.3575464161 1.3575464161 1.3575464161 1.3575464161 1.4671972081 1.4671972081 1.4671972081 1.4671972081 1.4671972081 
1.4671972081 1.4671972081 1.4671972081 1.6743954455 1.6743954455 1.7840462375 1.6743954455 1.7840462375 1.8974821136 
1.6743954455 1.7840462375 1.8974821136 2.0119052671 1.6743954455 1.7840462375 1.8974821136 2.0119052671 2.1243706857 
1.6743954455 1.7840462375 1.8974821136 2.0119052671 2.1243706857 2.232221744 1.6743954455 1.7840462375 1.8974821136 
2.0119052671 2.1243706857 2.232221744 2.3334263672 1.6743954455 1.7840462375 1.8974821136 2.0119052671 2.1243706857 
2.232221744 2.3334263672 2.426721652 1.7563855631 1.8785697967 1.8563003522 2.0024758186 1.9913306621 1.9779583789 
2.1243706857 2.1243706857 2.1243706857 2.1243706857 2.2408671392 2.2510113037 2.2630782103 2.2776669786 2.295651703 
2.3494282469 2.3680303173 2.3899057108 2.4159740166 2.4475202889 2.486385773 2.448570738 2.4736848652 2.5028148801 
2.5369440334 2.5773755784 2.6258554882 2.6847397011 2.5377803997 2.5675431237 2.6015718084 2.6407557529 2.6862098746 
2.7393287203 2.8018393335 2.8758309421 2.718901062 2.8307207459 2.7598010554 2.95115522 2.8800620952 2.8058000847 
3.0774230472 3.00855263 2.9351694502 2.8576792927 3.0774230472 3.1415926536 3.0719036933 2.9967168029 2.91630358 
2.95115522 3.00855263 3.0719036933 3.1415926536 3.0653475414 2.9825888767 2.8307207459 2.8800620952 2.9351694502 
2.9967168029 3.0653475414 3.1415926536 3.0574329311 2.718901062 2.7598010554 2.8058000847 2.8576792927 2.91630358 
2.9825888767 3.0574329311 3.1415926536 2.718901062 2.7598010554 2.8307207459 2.8058000847 2.8800620952 2.95115522 
2.8576792927 2.9351694502 3.00855263 3.0774230472 2.91630358 2.9967168029 3.0719036933 3.1415926536 3.0774230472 
2.9825888767 3.0653475414 3.1415926536 3.0719036933 3.00855263 2.95115522 3.0574329311 3.1415926536 3.0653475414 