# vtk DataFile Version 5.1
vtk output
ASCII
DATASET POLYDATA
POINTS 1002 float
-0.601615 -0.10276 -0.184823 0.536136 0.0243568 -0.269579 -0.624578 -0.0516116 0.0857983 
0.625598 0.00431573 0.180884 0.183523 0.235531 -0.100642 0.240014 0.218378 0.127284 
-0.000299905 -0.473892 -0.111033 0.0536025 -0.512495 0.175915 0.881615 0.459493 0.0750011 
-1.03207 0.611076 0.0203022 0.847909 -0.196105 -0.0132138 -0.874646 -0.190364 -0.0140963 
-0.461181 -0.112698 -0.171252 -0.298574 -0.11417 -0.154794 -0.139804 -0.10951 -0.148731 
-0.000374482 -0.100316 -0.156391 0.128966 -0.0867371 -0.167139 0.256331 -0.0678248 -0.176191 
0.366068 -0.0438171 -0.192592 0.442236 -0.0181252 -0.219968 0.49248 0.00510635 -0.248853 
-0.581765 -0.0728104 -0.18605 -0.53816 -0.044867 -0.176464 -0.474314 -0.025283 -0.156373 
-0.395137 -0.0112056 -0.133674 -0.295519 0.00723761 -0.116129 -0.173729 0.0347093 -0.105695 
-0.0487324 0.071111 -0.101645 0.0555654 0.118487 -0.102049 0.131405 0.175943 -0.102882 
-0.527482 -0.13917 -0.172842 -0.445989 -0.173996 -0.160985 -0.369419 -0.210533 -0.151905 
-0.300954 -0.250549 -0.141649 -0.23381 -0.290862 -0.127308 -0.169182 -0.329019 -0.115799 
-0.117829 -0.367649 -0.11424 -0.0796819 -0.407847 -0.118048 -0.0427292 -0.444949 -0.117975 
-0.716437 -0.0607028 -0.191576 -0.816399 0.00629609 -0.182761 -0.898141 0.0986519 -0.156389 
-0.971364 0.204175 -0.121511 -1.03975 0.31007 -0.0893955 -1.08817 0.413198 -0.0643234 
-1.10117 0.508065 -0.0450168 -1.08388 0.578356 -0.0272623 -1.05567 0.611653 -0.00582016 
-0.674977 -0.108448 -0.18204 -0.731839 -0.107359 -0.170657 -0.781337 -0.102589 -0.156584 
-0.828521 -0.102047 -0.144074 -0.86156 -0.10913 -0.129451 -0.871016 -0.120047 -0.10782 
-0.870278 -0.133135 -0.0818047 -0.874722 -0.150668 -0.0568375 -0.879989 -0.171403 -0.0344517 
0.527281 0.0632963 -0.259817 0.5089 0.101083 -0.246106 0.477915 0.137049 -0.230071 
0.437696 0.169034 -0.212086 0.390711 0.194029 -0.193416 0.335851 0.21391 -0.177155 
0.280289 0.233106 -0.163203 0.237652 0.248136 -0.146789 0.209549 0.249842 -0.125029 
0.513107 -0.0289555 -0.263703 0.488301 -0.0862805 -0.249321 0.463504 -0.142219 -0.223484 
0.434898 -0.193113 -0.186665 0.387757 -0.240845 -0.149527 0.310596 -0.290857 -0.12763 
0.214689 -0.344857 -0.124429 0.124683 -0.397671 -0.12756 0.0539736 -0.441969 -0.123977 
0.58525 0.0681241 -0.275857 0.652932 0.116811 -0.268906 0.73492 0.170371 -0.243871 
0.813445 0.224671 -0.202966 0.871183 0.273994 -0.156362 0.906594 0.318373 -0.109819 
0.92531 0.361513 -0.0603164 0.926598 0.402263 -0.00867598 0.909625 0.4357 0.0377214 
0.573636 0.00793299 -0.280331 0.627901 -0.0162086 -0.28205 0.70048 -0.0471845 -0.272419 
0.777694 -0.0767673 -0.250191 0.833984 -0.0972303 -0.215334 0.853325 -0.113459 -0.172635 
0.847529 -0.135204 -0.129752 0.841626 -0.161008 -0.0896486 0.844942 -0.182311 -0.0508053 
-0.522688 -0.0821141 0.0862246 -0.397957 -0.105607 0.0908093 -0.259428 -0.126353 0.0998958 
-0.11574 -0.142185 0.111456 0.039633 -0.14027 0.130705 0.214763 -0.112135 0.164634 
0.387778 -0.0689998 0.201486 0.518684 -0.0313636 0.217789 0.59215 -0.0085429 0.206578 
-0.60924 -0.0355992 0.0734586 -0.584056 -0.0228978 0.0587282 -0.544107 -0.0102658 0.0485234 
-0.47851 0.00475757 0.0486559 -0.37724 0.0175034 0.0542072 -0.24153 0.0248459 0.0565822 
-0.0875877 0.0396558 0.0596168 0.0579005 0.0797066 0.0740798 0.170255 0.144902 0.100175 
-0.57499 -0.0955264 0.0930492 -0.51357 -0.147868 0.0956808 -0.435351 -0.202049 0.10096 
-0.337972 -0.251594 0.11862 -0.231849 -0.300867 0.148395 -0.136975 -0.357112 0.177938 
-0.0651824 -0.414326 0.195536 -0.0142221 -0.460024 0.198476 0.0231608 -0.491044 0.190225 
-0.707708 0.00125709 0.0773521 -0.790014 0.0723572 0.0649552 -0.869214 0.163653 0.0583211 
-0.939154 0.266276 0.0732641 -0.991184 0.364079 0.110405 -1.02179 0.447629 0.142332 
-1.03544 0.517983 0.139966 -1.03907 0.573916 0.104445 -1.03734 0.606823 0.0586583 
-0.682521 -0.0377892 0.0931628 -0.730737 -0.0193578 0.102997 -0.777566 -0.00664071 0.115388 
-0.835352 -0.0135238 0.122949 -0.89345 -0.0402509 0.113546 -0.92144 -0.0709354 0.0875118 
-0.913051 -0.0961708 0.0591329 -0.894102 -0.122536 0.0356653 -0.882973 -0.155627 0.0122813 
0.610585 0.0531679 0.179925 0.58874 0.109957 0.180909 0.548327 0.161988 0.184075 
0.491553 0.197387 0.193303 0.439693 0.219099 0.209015 0.406278 0.239474 0.220589 
0.379239 0.25926 0.215346 0.342413 0.265543 0.192265 0.294282 0.250089 0.160044 
0.623122 -0.0433368 0.202787 0.607022 -0.0918164 0.223618 0.564526 -0.150447 0.231146 
0.49081 -0.220467 0.222981 0.40352 -0.291293 0.215071 0.327729 -0.354002 0.219724 
0.266643 -0.407464 0.225562 0.205033 -0.45128 0.217231 0.133146 -0.485294 0.197047 
0.633929 0.0476459 0.15328 0.643911 0.105353 0.135376 0.672074 0.172623 0.131268 
0.722183 0.234678 0.13406 0.779559 0.282706 0.136511 0.824044 0.324453 0.138627 
0.848308 0.369153 0.138542 0.860807 0.412485 0.128635 0.871695 0.444089 0.105674 
0.651494 -0.0146177 0.165547 0.68528 -0.0286746 0.152575 0.720957 -0.0399603 0.139967 
0.749144 -0.0581374 0.122704 0.776945 -0.0862937 0.10486 0.818707 -0.115348 0.0947274 
0.864795 -0.139174 0.0856287 0.888413 -0.160714 0.0627559 0.879023 -0.180976 0.025637 
0.192753 0.255773 -0.079869 0.200682 0.269549 -0.0524878 0.201408 0.278914 -0.020032 
0.196398 0.28686 0.0135233 0.19612 0.288406 0.0430328 0.206612 0.277351 0.066506 
0.221119 0.260264 0.0865151 0.231109 0.247144 0.104871 0.236186 0.235882 0.11934 
0.230895 0.305302 -0.111135 0.26862 0.365111 -0.117649 0.325021 0.40756 -0.112825 
0.410475 0.435497 -0.090057 0.514416 0.455453 -0.0523004 0.624231 0.471685 -0.0143825 
0.727528 0.485246 0.012879 0.807642 0.491867 0.0335118 0.856511 0.484109 0.0545765 
0.0973298 0.174193 -0.0810314 -0.0702951 0.12269 -0.0714057 -0.308026 0.119687 -0.0776069 
-0.53856 0.181395 -0.0921135 -0.688192 0.276683 -0.0952997 -0.769015 0.36402 -0.0757155 
-0.84041 0.436841 -0.0444011 -0.921111 0.506382 -0.0187483 -0.989699 0.568999 -0.000637906 
0.298824 0.316661 0.169134 0.320992 0.40243 0.193455 0.355097 0.453863 0.187169 
0.441264 0.484529 0.165827 0.560903 0.521827 0.155974 0.663845 0.558192 0.155668 
0.733414 0.564307 0.144719 0.786867 0.537724 0.121304 0.836758 0.498688 0.0969136 
0.120378 0.140983 0.0825857 -0.0684329 0.0901099 0.0458505 -0.302155 0.0915979 0.0176152 
-0.526629 0.147535 -0.00428099 -0.699642 0.237165 -0.010509 -0.816983 0.335886 0.0072224 
-0.894964 0.427859 0.0327979 -0.949523 0.506384 0.0424053 -0.992879 0.568629 0.0336642 
-1.93568e-05 -0.503767 -0.0924954 0.00393776 -0.528423 -0.0692091 0.00386209 -0.546459 -0.0416509 
-0.00772407 -0.564443 -0.00902186 -0.0274231 -0.587123 0.0290922 -0.0410558 -0.603161 0.0686217 
-0.0369159 -0.59715 0.102905 -0.0143385 -0.57161 0.130045 0.0191159 -0.540781 0.153538 
0.0813271 -0.474777 -0.105961 0.180252 -0.460425 -0.0895007 0.29752 -0.440065 -0.0706842 
0.42063 -0.423466 -0.0619527 0.524191 -0.40144 -0.0618843 0.593987 -0.35889 -0.0600467 
0.646085 -0.304155 -0.0542936 0.706302 -0.257902 -0.0463279 0.779067 -0.224894 -0.0330337 
-0.0825875 -0.478335 -0.0973359 -0.18414 -0.476352 -0.0879717 -0.302137 -0.476451 -0.0947662 
-0.414033 -0.470946 -0.105651 -0.506076 -0.442605 -0.0991103 -0.592936 -0.395482 -0.0802808 
-0.68716 -0.349624 -0.0674492 -0.774481 -0.307301 -0.0575919 -0.836716 -0.255524 -0.0389573 
0.137185 -0.513611 0.170715 0.231571 -0.507455 0.163911 0.337409 -0.489089 0.157217 
0.445301 -0.460023 0.148813 0.535308 -0.424723 0.131552 0.600326 -0.380386 0.101401 
0.659222 -0.325287 0.06553 0.728016 -0.270601 0.034188 0.796948 -0.227965 0.0093598 
-0.0537148 -0.525951 0.166033 -0.173662 -0.535792 0.152915 -0.292051 -0.529986 0.131937 
-0.392742 -0.494412 0.103307 -0.476162 -0.432649 0.0734178 -0.562021 -0.369668 0.0464859 
-0.661589 -0.323856 0.022556 -0.759126 -0.287948 0.00353066 -0.831889 -0.245316 -0.00817626 
0.915551 0.407959 0.0693603 0.94482 0.340288 0.0528264 0.962035 0.263923 0.02216 
0.951051 0.193903 -0.0158637 0.912554 0.133633 -0.0448647 0.883083 0.0668907 -0.0521609 
0.890395 -0.0144978 -0.0407941 0.909037 -0.0940091 -0.0249984 0.897226 -0.154222 -0.0156491 
-1.06936 0.63694 0.0367398 -1.10151 0.62954 0.069921 -1.13393 0.579206 0.104556 
-1.15515 0.491905 0.109486 -1.13948 0.384961 0.0744201 -1.08139 0.270227 0.0300541 
-1.00868 0.147955 0.00786575 -0.950291 0.0209952 0.00338487 -0.910018 -0.0965536 -0.00242802 
-0.416436 -0.0823657 -0.166194 -0.348303 -0.0563748 -0.151496 -0.232539 -0.0820361 -0.146506 
-0.263964 -0.0355478 -0.131471 -0.149875 -0.0543096 -0.133739 -0.064383 -0.0742655 -0.143239 
-0.167996 -0.00932718 -0.115457 -0.0595092 -0.0244565 -0.122783 0.0182626 -0.0406166 -0.139007 
0.0759011 -0.0605518 -0.156411 -0.0610845 0.0298745 -0.109141 0.0321096 0.0192615 -0.119952 
0.0989117 0.00157296 -0.140063 0.151033 -0.017876 -0.160797 0.203578 -0.0400215 -0.172519 
0.0432301 0.0773242 -0.111645 0.115928 0.074302 -0.125894 0.169152 0.0574112 -0.146945 
0.21511 0.0352444 -0.169358 0.267269 0.0133354 -0.18331 0.322138 -0.0124043 -0.188543 
0.123839 0.129578 -0.118564 0.177821 0.130522 -0.136102 0.221964 0.11727 -0.156056 
0.264333 0.0963159 -0.177788 0.313813 0.0741482 -0.194918 0.368804 0.0489958 -0.20426 
0.414769 0.0175628 -0.211108 0.175835 0.188372 -0.124334 0.2146 0.187865 -0.14447 
0.256501 0.174835 -0.162522 0.30296 0.156371 -0.181012 0.351646 0.136077 -0.199656 
0.40186 0.111246 -0.21484 0.447192 0.07981 -0.226594 0.477703 0.0433889 -0.23796 
-0.702825 -0.0261123 -0.192035 -0.806774 0.0454058 -0.180181 -0.665575 0.00258552 -0.179825 
-0.891015 0.138239 -0.151941 -0.777141 0.0738316 -0.167897 -0.610407 0.0187006 -0.158758 
-0.963727 0.239838 -0.119713 -0.865564 0.164833 -0.145123 -0.732274 0.0869493 -0.152595 
-0.53602 0.0261406 -0.137413 -1.02155 0.340744 -0.0927177 -0.930214 0.263989 -0.121232 
-0.822625 0.177278 -0.140333 -0.663198 0.0883359 -0.137488 -0.428276 0.0338509 -0.118791 
-1.04744 0.435148 -0.0707691 -0.963782 0.358177 -0.0987883 -0.872234 0.274743 -0.12442 
[...]
POINT_DATA 1002
FIELD FieldData 4
_paraPhi 1 1002 double
6.2831853072 3.1415926536 6.2831853072 3.1415926536 4.7123889804 4.7123889804 1.5707963268 1.5707963268 3.6951670125 
5.7296109483 2.5880182947 0.5535743589 6.2831853072 6.2831853072 6.2831853072 6.2831853072 3.1415926536 3.1415926536 
3.1415926536 3.1415926536 3.1415926536 6.1053039672 5.898798347 5.6768734901 5.4599499503 5.2659633393 5.1032165617 
4.9713148346 4.8656852733 4.7809517865 0.17788134 0.38438696014 0.60631181711 0.82323535693 1.0172219679 1.1799687454 
1.3118704726 1.4175000338 1.5022335207 6.1892828907 6.1070320098 6.035312792 5.9728339911 5.9183214791 5.8706119594 
5.8286879411 5.7916808611 5.7588591896 0.093902416448 0.17615329733 0.2478725152 0.31035131605 0.36486382811 0.41257334776 
0.45449736604 0.4915044461 0.52432611754 3.3194739936 3.5259796137 3.7479044707 3.9648280105 4.1588146215 4.321561399 
4.4534631262 4.5590926874 4.6438261743 2.9637113136 2.7572056934 2.5352808365 2.3183572967 2.1243706857 1.9616239082 
1.829722181 1.7240926197 1.6393591329 3.23549507 3.3177459509 3.3894651688 3.4519439696 3.5064564817 3.5541660013 
3.5960900196 3.6330970997 3.6659187711 3.0476902371 2.9654393563 2.8937201384 2.8312413375 2.7767288255 2.7290193058 
2.6870952876 2.6500882075 2.617266536 6.2831853072 6.2831853072 6.2831853072 6.2831853072 3.1415926536 3.1415926536 
3.1415926536 3.1415926536 3.1415926536 6.1053039672 5.898798347 5.6768734901 5.4599499503 5.2659633393 5.1032165617 
4.9713148346 4.8656852733 4.7809517865 0.17788134 0.38438696014 0.60631181711 0.82323535693 1.0172219679 1.1799687454 
1.3118704726 1.4175000338 1.5022335207 6.1892828907 6.1070320098 6.035312792 5.9728339911 5.9183214791 5.8706119594 
5.8286879411 5.7916808611 5.7588591896 0.093902416448 0.17615329733 0.2478725152 0.31035131605 0.36486382811 0.41257334776 
0.45449736604 0.4915044461 0.52432611754 3.3194739936 3.5259796137 3.7479044707 3.9648280105 4.1588146215 4.321561399 
4.4534631262 4.5590926874 4.6438261743 2.9637113136 2.7572056934 2.5352808365 2.3183572967 2.1243706857 1.9616239082 
1.829722181 1.7240926197 1.6393591329 3.23549507 3.3177459509 3.3894651688 3.4519439696 3.5064564817 3.5541660013 
3.5960900196 3.6330970997 3.6659187711 3.0476902371 2.9654393563 2.8937201384 2.8312413375 2.7767288255 2.7290193058 
2.6870952876 2.6500882075 2.617266536 4.7123889804 4.7123889804 4.7123889804 4.7123889804 4.7123889804 4.7123889804 
4.7123889804 4.7123889804 4.7123889804 4.6087898617 4.4991390697 4.3857031936 4.2712800401 4.1588146215 4.0509635631 
3.94975894 3.8564636551 3.7716124825 4.8159880991 4.9256388911 5.0390747672 5.1534979207 5.2659633393 5.3738143976 
5.4750190208 5.5683143056 5.6531654782 4.6087898617 4.4991390697 4.3857031936 4.2712800401 4.1588146215 4.0509635631 
3.94975894 3.8564636551 3.7716124825 4.8159880991 4.9256388911 5.0390747672 5.1534979207 5.2659633393 5.3738143976 
5.4750190208 5.5683143056 5.6531654782 1.5707963268 1.5707963268 1.5707963268 1.5707963268 1.5707963268 1.5707963268 
1.5707963268 1.5707963268 1.5707963268 1.6743954455 1.7840462375 1.8974821136 2.0119052671 2.1243706857 2.232221744 
2.3334263672 2.426721652 2.5115728246 1.4671972081 1.3575464161 1.24411054 1.1296873865 1.0172219679 0.90937090954 
0.80816628637 0.71487100155 0.63001982895 1.6743954455 1.7840462375 1.8974821136 2.0119052671 2.1243706857 2.232221744 
2.3334263672 2.426721652 2.5115728246 1.4671972081 1.3575464161 1.24411054 1.1296873865 1.0172219679 0.90937090954 
0.80816628637 0.71487100155 0.63001982895 3.6007720849 3.4966939854 3.3839471039 3.2645756454 3.1415926536 3.0186096618 
2.8992382033 2.7864913217 2.6824132222 5.8240058758 5.9280839753 6.0408308569 6.1602023154 6.2831853072 0.12298299178 
0.2423544503 0.35510133185 0.45917943135 6.0560271438 5.7885595667 5.9702140275 5.5125918794 5.6029703303 5.7885595667 
5.2659633393 5.2659633393 5.2659633393 5.2659633393 5.0674903122 5.0120975802 4.9155579264 4.7123889804 4.1588146215 
4.9155579264 4.8353719722 4.7123889804 4.5092200343 4.1588146215 3.6362183941 4.8004512023 4.7123889804 4.5894059886 
4.4126803806 4.1588146215 3.8218076305 3.4545639333 4.7123889804 4.6243267584 4.5092200343 4.3572876485 4.1588146215 
3.9121860814 3.6362183941 3.368750817 6.0174235957 5.9434319871 5.8263323547 5.8809213739 5.7674481418 5.6279784266 
5.8278025282 5.718968232 5.5891129425 5.4372443565 5.7823484065 5.678536687 5.5575666702 5.4192596322 5.2659633393 
5.743164462 5.6444075337 5.5314983644 5.4046708639 5.2659633393 5.1195510325 5.7091357773 5.6152775188 5.5096229709 
5.3926039573 5.2659633393 5.1329233157 4.9978930058 5.6793730533 5.5901633916 5.4910209005 5.3824597928 5.2659633393 
5.1440684722 5.0201624502 4.8979782167 5.5683143056 5.4750190208 5.4750190208 5.3738143976 5.3738143976 5.3738143976 
5.2659633393 5.2659633393 5.2659633393 5.2659633393 5.1534979207 5.1534979207 5.1534979207 5.1534979207 5.1534979207 
5.0390747672 5.0390747672 5.0390747672 5.0390747672 5.0390747672 5.0390747672 4.9256388911 4.9256388911 4.9256388911 
4.9256388911 4.9256388911 4.9256388911 4.9256388911 4.8159880991 4.8159880991 4.8159880991 4.8159880991 4.8159880991 
4.8159880991 4.8159880991 4.8159880991 4.6087898617 4.6087898617 4.4991390697 4.6087898617 4.4991390697 4.3857031936 
4.6087898617 4.4991390697 4.3857031936 4.2712800401 4.6087898617 4.4991390697 4.3857031936 4.2712800401 4.1588146215 
4.6087898617 4.4991390697 4.3857031936 4.2712800401 4.1588146215 4.0509635631 4.6087898617 4.4991390697 4.3857031936 
4.2712800401 4.1588146215 4.0509635631 3.94975894 4.6087898617 4.4991390697 4.3857031936 4.2712800401 4.1588146215 
4.0509635631 3.94975894 3.8564636551 4.526799744 4.4046155105 4.426884955 4.2807094886 4.2918546451 4.3052269283 
4.1588146215 4.1588146215 4.1588146215 4.1588146215 4.042318168 4.0321740035 4.0201070968 4.0055183285 3.9875336042 
3.9337570603 3.9151549899 3.8932795963 3.8672112905 3.8356650183 3.7967995342 3.8346145692 3.809500442 3.7803704271 
3.7462412737 3.7058097288 3.657329819 3.5984456061 3.7454049075 3.7156421835 3.6816134988 3.6424295543 3.5969754326 
3.5438565869 3.4813459737 3.4073543651 3.5642842451 3.4524645613 3.5233842518 3.3320300872 3.403123212 3.4773852225 
3.20576226 3.2746326772 3.348015857 3.4255060145 3.0774230472 3.1415926536 3.2112816139 3.2864685043 3.3668817272 
2.95115522 3.00855263 3.0719036933 3.1415926536 3.2178377658 3.3005964304 2.8307207459 2.8800620952 2.9351694502 
2.9967168029 3.0653475414 3.1415926536 3.225752376 2.718901062 2.7598010554 2.8058000847 2.8576792927 2.91630358 
2.9825888767 3.0574329311 3.1415926536 3.5642842451 3.5233842518 3.4524645613 3.4773852225 3.403123212 3.3320300872 
3.4255060145 3.348015857 3.2746326772 3.20576226 3.3668817272 3.2864685043 3.2112816139 3.1415926536 3.0774230472 
3.3005964304 3.2178377658 3.1415926536 3.0719036933 3.00855263 2.95115522 3.225752376 3.1415926536 3.0653475414 
2.9967168029 2.9351694502 2.8800620952 2.8307207459 3.1415926536 3.0574329311 2.9825888767 2.91630358 2.8576792927 
2.8058000847 2.7598010554 2.718901062 4.526799744 4.426884955 4.4046155105 4.3052269283 4.2918546451 4.2807094886 
4.1588146215 4.1588146215 4.1588146215 4.1588146215 3.9875336042 4.0055183285 4.0201070968 4.0321740035 4.042318168 
3.7967995342 3.8356650183 3.8672112905 3.8932795963 3.9151549899 3.9337570603 3.5984456061 3.657329819 3.7058097288 
3.7462412737 3.7803704271 3.809500442 3.8346145692 3.4073543651 3.4813459737 3.5438565869 3.5969754326 3.6424295543 
3.6816134988 3.7156421835 3.7454049075 4.7123889804 4.8004512023 4.6243267584 4.9155579264 4.7123889804 4.5092200343 
5.0674903122 4.8353719722 4.5894059886 4.3572876485 5.2659633393 5.0120975802 4.7123889804 4.4126803806 4.1588146215 
5.5125918794 5.2659633393 4.9155579264 4.5092200343 4.1588146215 3.9121860814 5.7885595667 5.6029703303 5.2659633393 
4.7123889804 4.1588146215 3.8218076305 3.6362183941 6.0560271438 5.9702140275 5.7885595667 5.2659633393 4.1588146215 
3.6362183941 3.4545639333 3.368750817 0.22715816343 0.49462574053 0.3129712797 0.77059342779 0.68021497688 0.49462574053 
1.0172219679 1.0172219679 1.0172219679 1.0172219679 1.2156949949 1.271087727 1.3676273807 1.5707963268 2.1243706857 
1.3676273807 1.447813335 1.5707963268 1.7739652728 2.1243706857 2.6469669131 1.4827341049 1.5707963268 1.6937793186 
1.8705049266 2.1243706857 2.4613776767 2.8286213739 1.5707963268 1.6588585487 1.7739652728 1.9258976586 2.1243706857 
2.3709992258 2.6469669131 2.9144344902 1.7563855631 1.8785697967 1.8563003522 2.0024758186 1.9913306621 1.9779583789 
2.1243706857 2.1243706857 2.1243706857 2.1243706857 2.2408671392 2.2510113037 2.2630782103 2.2776669786 2.295651703 
2.3494282469 2.3680303173 2.3899057108 2.4159740166 2.4475202889 2.486385773 2.448570738 2.4736848652 2.5028148801 
2.5369440334 2.5773755784 2.6258554882 2.6847397011 2.5377803997 2.5675431237 2.6015718084 2.6407557529 2.6862098746 
2.7393287203 2.8018393335 2.8758309421 1.6743954455 1.6743954455 1.7840462375 1.6743954455 1.7840462375 1.8974821136 
1.6743954455 1.7840462375 1.8974821136 2.0119052671 1.6743954455 1.7840462375 1.8974821136 2.0119052671 2.1243706857 
1.6743954455 1.7840462375 1.8974821136 2.0119052671 2.1243706857 2.232221744 1.6743954455 1.7840462375 1.8974821136 
2.0119052671 2.1243706857 2.232221744 2.3334263672 1.6743954455 1.7840462375 1.8974821136 2.0119052671 2.1243706857 
2.232221744 2.3334263672 2.426721652 1.4671972081 1.3575464161 1.4671972081 1.24411054 1.3575464161 1.4671972081 
1.1296873865 1.24411054 1.3575464161 1.4671972081 1.0172219679 1.1296873865 1.24411054 1.3575464161 1.4671972081 
0.90937090954 1.0172219679 1.1296873865 1.24411054 1.3575464161 1.4671972081 0.80816628637 0.90937090954 1.0172219679 
1.1296873865 1.24411054 1.3575464161 1.4671972081 0.71487100155 0.80816628637 0.90937090954 1.0172219679 1.1296873865 
1.24411054 1.3575464161 1.4671972081 0.60381225391 0.57404952988 0.69302191562 0.54002084522 0.66790778838 0.79216440667 
0.50083690068 0.63877777351 0.77356233629 0.90072551443 0.45538277901 0.60464862014 0.75168694275 0.89058134991 1.0172219679 
0.40226393329 0.56421707518 0.72561863695 0.87851444325 1.0172219679 1.139116835 0.33975332011 0.51573716537 0.69407236469 
0.86392567495 1.0172219679 1.1502619915 1.2630228569 0.26576171152 0.45685295248 0.6552068806 0.84594095064 1.0172219679 
1.1636342747 1.2852923014 1.3852070904 0.22715816343 0.3129712797 0.49462574053 0.49462574053 0.68021497688 0.77059342779 
1.0172219679 1.0172219679 1.0172219679 1.0172219679 2.1243706857 1.5707963268 1.3676273807 1.271087727 1.2156949949 
2.6469669131 2.1243706857 1.7739652728 1.5707963268 1.447813335 1.3676273807 2.8286213739 2.4613776767 2.1243706857 
1.8705049266 1.6937793186 1.5707963268 1.4827341049 2.9144344902 2.6469669131 2.3709992258 2.1243706857 1.9258976586 
1.7739652728 1.6588585487 1.5707963268 1.7563855631 1.8563003522 1.8785697967 1.9779583789 1.9913306621 2.0024758186 
2.1243706857 2.1243706857 2.1243706857 2.1243706857 2.295651703 2.2776669786 2.2630782103 2.2510113037 2.2408671392 
2.486385773 2.4475202889 2.4159740166 2.3899057108 2.3680303173 2.3494282469 2.6847397011 2.6258554882 2.5773755784 
2.5369440334 2.5028148801 2.4736848652 2.448570738 2.8758309421 2.8018393335 2.7393287203 2.6862098746 2.6407557529 
2.6015718084 2.5675431237 2.5377803997 5.8604937156 5.901393709 5.9723133995 5.9473927383 6.0216547488 6.0927478736 
5.9992719463 6.0767621038 6.1501452836 6.2190157008 6.0578962336 6.1383094565 6.2134963469 0 0.064169606361 
6.1241815303 6.206940195 6.2831853072 0.069688960264 0.13304002361 0.19043743361 6.1990255847 0 0.07624511221 
0.14487585072 0.20642320337 0.26153055843 0.3108719077 0 0.084159722458 0.15900377685 0.22528907359 0.28391336087 
0.3357925689 0.38179159818 0.42269159155 5.8604937156 5.9723133995 5.901393709 6.0927478736 6.0216547488 5.9473927383 
6.2190157008 6.1501452836 6.0767621038 5.9992719463 0.064169606361 0 6.2134963469 6.1383094565 6.0578962336 
0.19043743361 0.13304002361 0.069688960264 6.2831853072 6.206940195 6.1241815303 0.3108719077 0.26153055843 0.20642320337 
0.14487585072 0.07624511221 6.2831853072 6.1990255847 0.42269159155 0.38179159818 0.3357925689 0.28391336087 0.22528907359 
0.15900377685 0.084159722458 0 5.6793730533 5.7091357773 5.5901633916 5.743164462 5.6152775188 5.4910209005 
5.7823484065 5.6444075337 5.5096229709 5.3824597928 5.8278025282 5.678536687 5.5314983644 5.3926039573 5.2659633393 
5.8809213739 5.718968232 5.5575666702 5.4046708639 5.2659633393 5.1440684722 5.9434319871 5.7674481418 5.5891129425 
5.4192596322 5.2659633393 5.1329233157 5.0201624502 6.0174235957 5.8263323547 5.6279784266 5.4372443565 5.2659633393 
5.1195510325 4.9978930058 4.8979782167 1.3852070904 1.2852923014 1.2630228569 1.1636342747 1.1502619915 1.139116835 
1.0172219679 1.0172219679 1.0172219679 1.0172219679 0.84594095064 0.86392567495 0.87851444325 0.89058134991 0.90072551443 
0.6552068806 0.69407236469 0.72561863695 0.75168694275 0.77356233629 0.79216440667 0.45685295248 0.51573716537 0.56421707518 
0.60464862014 0.63877777351 0.66790778838 0.69302191562 0.26576171152 0.33975332011 0.40226393329 0.45538277901 0.50083690068 
0.54002084522 0.57404952988 0.60381225391 
_paraPhiHalf 1 1002 double
0 3.1415926536 0 3.1415926536 1.5707963268 1.5707963268 1.5707963268 1.5707963268 2.5880182947 
0.5535743589 2.5880182947 0.5535743589 0 0 0 0 3.1415926536 3.1415926536 
3.1415926536 3.1415926536 3.1415926536 0.17788134 0.38438696014 0.60631181711 0.82323535693 1.0172219679 1.1799687454 
1.3118704726 1.4175000338 1.5022335207 0.17788134 0.38438696014 0.60631181711 0.82323535693 1.0172219679 1.1799687454 
1.3118704726 1.4175000338 1.5022335207 0.093902416448 0.17615329733 0.2478725152 0.31035131605 0.36486382811 0.41257334776 
0.45449736604 0.4915044461 0.52432611754 0.093902416448 0.17615329733 0.2478725152 0.31035131605 0.36486382811 0.41257334776 
0.45449736604 0.4915044461 0.52432611754 2.9637113136 2.7572056934 2.5352808365 2.3183572967 2.1243706857 1.9616239082 
1.829722181 1.7240926197 1.6393591329 2.9637113136 2.7572056934 2.5352808365 2.3183572967 2.1243706857 1.9616239082 
1.829722181 1.7240926197 1.6393591329 3.0476902371 2.9654393563 2.8937201384 2.8312413375 2.7767288255 2.7290193058 
2.6870952876 2.6500882075 2.617266536 3.0476902371 2.9654393563 2.8937201384 2.8312413375 2.7767288255 2.7290193058 
2.6870952876 2.6500882075 2.617266536 0 0 0 0 3.1415926536 3.1415926536 
3.1415926536 3.1415926536 3.1415926536 0.17788134 0.38438696014 0.60631181711 0.82323535693 1.0172219679 1.1799687454 
1.3118704726 1.4175000338 1.5022335207 0.17788134 0.38438696014 0.60631181711 0.82323535693 1.0172219679 1.1799687454 
1.3118704726 1.4175000338 1.5022335207 0.093902416448 0.17615329733 0.2478725152 0.31035131605 0.36486382811 0.41257334776 
0.45449736604 0.4915044461 0.52432611754 0.093902416448 0.17615329733 0.2478725152 0.31035131605 0.36486382811 0.41257334776 
0.45449736604 0.4915044461 0.52432611754 2.9637113136 2.7572056934 2.5352808365 2.3183572967 2.1243706857 1.9616239082 
1.829722181 1.7240926197 1.6393591329 2.9637113136 2.7572056934 2.5352808365 2.3183572967 2.1243706857 1.9616239082 
1.829722181 1.7240926197 1.6393591329 3.0476902371 2.9654393563 2.8937201384 2.8312413375 2.7767288255 2.7290193058 
2.6870952876 2.6500882075 2.617266536 3.0476902371 2.9654393563 2.8937201384 2.8312413375 2.7767288255 2.7290193058 
2.6870952876 2.6500882075 2.617266536 1.5707963268 1.5707963268 1.5707963268 1.5707963268 1.5707963268 1.5707963268 
1.5707963268 1.5707963268 1.5707963268 1.6743954455 1.7840462375 1.8974821136 2.0119052671 2.1243706857 2.232221744 
2.3334263672 2.426721652 2.5115728246 1.4671972081 1.3575464161 1.24411054 1.1296873865 1.0172219679 0.90937090954 
0.80816628637 0.71487100155 0.63001982895 1.6743954455 1.7840462375 1.8974821136 2.0119052671 2.1243706857 2.232221744 
2.3334263672 2.426721652 2.5115728246 1.4671972081 1.3575464161 1.24411054 1.1296873865 1.0172219679 0.90937090954 
0.80816628637 0.71487100155 0.63001982895 1.5707963268 1.5707963268 1.5707963268 1.5707963268 1.5707963268 1.5707963268 
1.5707963268 1.5707963268 1.5707963268 1.6743954455 1.7840462375 1.8974821136 2.0119052671 2.1243706857 2.232221744 
2.3334263672 2.426721652 2.5115728246 1.4671972081 1.3575464161 1.24411054 1.1296873865 1.0172219679 0.90937090954 
0.80816628637 0.71487100155 0.63001982895 1.6743954455 1.7840462375 1.8974821136 2.0119052671 2.1243706857 2.232221744 
2.3334263672 2.426721652 2.5115728246 1.4671972081 1.3575464161 1.24411054 1.1296873865 1.0172219679 0.90937090954 
0.80816628637 0.71487100155 0.63001982895 2.6824132222 2.7864913217 2.8992382033 3.0186096618 3.1415926536 3.0186096618 
2.8992382033 2.7864913217 2.6824132222 0.45917943135 0.35510133185 0.2423544503 0.12298299178 0 0.12298299178 
0.2423544503 0.35510133185 0.45917943135 0.22715816343 0.49462574053 0.3129712797 0.77059342779 0.68021497688 0.49462574053 
1.0172219679 1.0172219679 1.0172219679 1.0172219679 1.2156949949 1.271087727 1.3676273807 1.5707963268 2.1243706857 
1.3676273807 1.447813335 1.5707963268 1.7739652728 2.1243706857 2.6469669131 1.4827341049 1.5707963268 1.6937793186 
1.8705049266 2.1243706857 2.4613776767 2.8286213739 1.5707963268 1.6588585487 1.7739652728 1.9258976586 2.1243706857 
2.3709992258 2.6469669131 2.9144344902 0.26576171152 0.33975332011 0.45685295248 0.40226393329 0.51573716537 0.6552068806 
0.45538277901 0.56421707518 0.69407236469 0.84594095064 0.50083690068 0.60464862014 0.72561863695 0.86392567495 1.0172219679 
0.54002084522 0.63877777351 0.75168694275 0.87851444325 1.0172219679 1.1636342747 0.57404952988 0.66790778838 0.77356233629 
0.89058134991 1.0172219679 1.1502619915 1.2852923014 0.60381225391 0.69302191562 0.79216440667 0.90072551443 1.0172219679 
1.139116835 1.2630228569 1.3852070904 0.71487100155 0.80816628637 0.80816628637 0.90937090954 0.90937090954 0.90937090954 
1.0172219679 1.0172219679 1.0172219679 1.0172219679 1.1296873865 1.1296873865 1.1296873865 1.1296873865 1.1296873865 
1.24411054 1.24411054 1.24411054 1.24411054 1.24411054 1.24411054 1.3575464161 1.3575464161 1.3575464161 
1.3575464161 1.3575464161 1.3575464161 1.3575464161 1.4671972081 1.4671972081 1.4671972081 1.4671972081 1.4671972081 
1.4671972081 1.4671972081 1.4671972081 1.6743954455 1.6743954455 1.7840462375 1.6743954455 1.7840462375 1.8974821136 
1.6743954455 1.7840462375 1.8974821136 2.0119052671 1.6743954455 1.7840462375 1.8974821136 2.0119052671 2.1243706857 
1.6743954455 1.7840462375 1.8974821136 2.0119052671 2.1243706857 2.232221744 1.6743954455 1.7840462375 1.8974821136 
2.0119052671 2.1243706857 2.232221744 2.3334263672 1.6743954455 1.7840462375 1.8974821136 2.0119052671 2.1243706857 
2.232221744 2.3334263672 2.426721652 1.7563855631 1.8785697967 1.8563003522 2.0024758186 1.9913306621 1.9779583789 
2.1243706857 2.1243706857 2.1243706857 2.1243706857 2.2408671392 2.2510113037 2.2630782103 2.2776669786 2.295651703 
2.3494282469 2.3680303173 2.3899057108 2.4159740166 2.4475202889 2.486385773 2.448570738 2.4736848652 2.5028148801 
2.5369440334 2.5773755784 2.6258554882 2.6847397011 2.5377803997 2.5675431237 2.6015718084 2.6407557529 2.6862098746 
2.7393287203 2.8018393335 2.8758309421 2.718901062 2.8307207459 2.7598010554 2.95115522 2.8800620952 2.8058000847 
3.0774230472 3.00855263 2.9351694502 2.8576792927 3.0774230472 3.1415926536 3.0719036933 2.9967168029 2.91630358 
2.95115522 3.00855263 3.0719036933 3.1415926536 3.0653475414 2.9825888767 2.8307207459 2.8800620952 2.9351694502 
2.9967168029 3.0653475414 3.1415926536 3.0574329311 2.718901062 2.7598010554 2.8058000847 2.8576792927 2.91630358 
2.9825888767 3.0574329311 3.1415926536 2.718901062 2.7598010554 2.8307207459 2.8058000847 2.8800620952 2.95115522 
2.8576792927 2.9351694502 3.00855263 3.0774230472 2.91630358 2.9967168029 3.0719036933 3.1415926536 3.0774230472 
2.9825888767 3.0653475414 3.1415926536 3.0719036933 3.00855263 2.95115522 3.0574329311 3.1415926536 3.0653475414 