# vtk DataFile Version 5.1
vtk output
ASCII
DATASET POLYDATA
POINTS 1002 float
0.0714084 0.38696 0.451833 -0.165159 -0.59861 -0.118625 0.0578384 0.559914 0.179692 
-0.0437933 -0.380308 -0.464939 -0.446055 -0.00581204 0.0711986 -0.365018 0.139218 -0.15733 
-0.0127456 -0.085482 0.00137236 0.065182 0.00321318 -0.152966 -0.269123 -0.80742 -0.454248 
0.0889046 0.796245 0.511072 0.200327 -0.936334 -0.344699 0.491427 0.705229 0.617633 
0.00492643 0.35195 0.367196 -0.0627641 0.28367 0.282793 -0.120832 0.179428 0.205991 
-0.163378 0.0545846 0.140767 -0.190713 -0.0809247 0.0926684 -0.203403 -0.22309 0.0593566 
-0.202153 -0.354283 0.0242912 -0.191929 -0.456967 -0.0228871 -0.178803 -0.534386 -0.0741623 
0.0239174 0.37454 0.416421 -0.0312385 0.354469 0.373375 -0.0936168 0.321035 0.323588 
-0.160692 0.27311 0.272109 -0.227191 0.219045 0.225944 -0.286401 0.168553 0.187199 
-0.334954 0.122623 0.152598 -0.375476 0.077815 0.120609 -0.412235 0.0341293 0.0932308 
0.0738255 0.379984 0.431525 0.0706536 0.365622 0.406318 0.0625375 0.340499 0.373143 
0.0491473 0.308806 0.327422 0.0290301 0.276141 0.267966 0.00487262 0.235692 0.201312 
-0.0148836 0.174453 0.138101 -0.0237552 0.0926435 0.084433 -0.022003 0.00268083 0.0396493 
0.104524 0.40552 0.514258 0.129056 0.434427 0.570489 0.142535 0.484622 0.605379 
0.147563 0.54955 0.612883 0.147436 0.611406 0.60416 0.142508 0.663813 0.593372 
0.132744 0.711846 0.581895 0.119707 0.754404 0.564366 0.104863 0.783819 0.539746 
0.140102 0.408247 0.521744 0.211413 0.4409 0.583437 0.278928 0.497813 0.627423 
0.339342 0.567669 0.65772 0.398015 0.621838 0.685122 0.459013 0.651454 0.706181 
0.509829 0.672709 0.70638 0.531372 0.694106 0.683743 0.520593 0.707309 0.650654 
-0.197541 -0.55665 -0.107412 -0.23161 -0.512102 -0.0884872 -0.267854 -0.467128 -0.0598641 
-0.306799 -0.418349 -0.0282463 -0.345731 -0.362686 -0.000566611 -0.379568 -0.300055 0.0237738 
-0.406076 -0.229752 0.0449293 -0.426057 -0.15309 0.0588631 -0.439589 -0.076464 0.0658091 
-0.140941 -0.596379 -0.103965 -0.115891 -0.579469 -0.093804 -0.0936677 -0.54548 -0.0874425 
-0.0751853 -0.504206 -0.0761543 -0.0585401 -0.460678 -0.0570918 -0.0440725 -0.404031 -0.0402154 
-0.0340108 -0.328085 -0.0313994 -0.0272767 -0.243844 -0.0242254 -0.0206301 -0.162521 -0.0130052 
-0.170009 -0.636391 -0.152866 -0.174813 -0.680845 -0.186376 -0.182637 -0.727668 -0.221078 
-0.193633 -0.763229 -0.261455 -0.203828 -0.78606 -0.305299 -0.213964 -0.813103 -0.344142 
-0.230176 -0.847351 -0.376375 -0.25096 -0.865333 -0.40685 -0.266043 -0.849498 -0.434762 
-0.134162 -0.660461 -0.150005 -0.0955127 -0.716948 -0.186849 -0.0500553 -0.763601 -0.229577 
-0.00488675 -0.81212 -0.264555 0.0340481 -0.873928 -0.276122 0.0708774 -0.933624 -0.272013 
0.111687 -0.96609 -0.275926 0.152223 -0.969616 -0.296092 0.183023 -0.957541 -0.322255 
0.00458198 0.468963 0.116817 -0.0484467 0.37159 0.0350812 -0.0905704 0.279518 -0.0610864 
-0.112795 0.185295 -0.150212 -0.114681 0.0673331 -0.213861 -0.103586 -0.0671777 -0.263112 
-0.086971 -0.179594 -0.320083 -0.0692178 -0.25511 -0.382356 -0.0538898 -0.315788 -0.432361 
0.0140303 0.50963 0.158906 -0.0338331 0.457244 0.127866 -0.0834452 0.411568 0.0824849 
-0.134334 0.372486 0.0286742 -0.186533 0.335799 -0.0241974 -0.237642 0.301834 -0.072879 
-0.282981 0.270176 -0.114778 -0.319046 0.234574 -0.143296 -0.345704 0.190329 -0.155865 
0.0650172 0.54621 0.164589 0.0660982 0.512327 0.15076 0.0614307 0.461285 0.130892 
0.0545878 0.4083 0.0950593 0.0481658 0.36109 0.0478621 0.0410107 0.308381 0.00550124 
0.0337641 0.239534 -0.0295226 0.0329325 0.159912 -0.0684958 0.0440802 0.0797713 -0.113205 
0.0821543 0.612538 0.2252 0.10289 0.663029 0.272054 0.118896 0.71639 0.314965 
0.129313 0.767478 0.350911 0.132972 0.80528 0.3839 0.129683 0.83167 0.418041 
0.121395 0.853134 0.450812 0.111039 0.860297 0.477938 0.100322 0.840252 0.497989 
0.116733 0.637998 0.225774 0.176438 0.69924 0.277759 0.231995 0.728167 0.339007 
0.28226 0.728501 0.403685 0.328282 0.720982 0.463818 0.369109 0.72157 0.517791 
0.404514 0.729385 0.563515 0.437539 0.734237 0.594802 0.468367 0.727059 0.610713 
-0.0755795 -0.350308 -0.455188 -0.112442 -0.318754 -0.434202 -0.15111 -0.290562 -0.398602 
-0.187569 -0.263156 -0.350691 -0.221907 -0.221813 -0.300782 -0.25692 -0.155591 -0.260102 
-0.29173 -0.0730181 -0.230725 -0.322227 0.00859691 -0.206603 -0.346387 0.0797836 -0.182436 
-0.0185244 -0.362355 -0.45387 0.00791134 -0.338493 -0.439326 0.034135 -0.316303 -0.415987 
0.0569872 -0.29742 -0.38267 0.0732489 -0.272935 -0.345807 0.0815999 -0.235599 -0.310839 
0.0821808 -0.187104 -0.275493 0.076702 -0.129777 -0.236433 0.0693998 -0.0645667 -0.194813 
-0.0569789 -0.430054 -0.49042 -0.0759729 -0.474835 -0.523849 -0.100583 -0.516168 -0.558674 
-0.12642 -0.571589 -0.574849 -0.147841 -0.649371 -0.561496 -0.166335 -0.725379 -0.535417 
-0.189757 -0.772412 -0.517498 -0.219854 -0.793314 -0.505294 -0.2488 -0.80363 -0.485373 
-0.0225186 -0.445482 -0.48099 -0.00235476 -0.516952 -0.493527 0.0200445 -0.580836 -0.507116 
0.0458833 -0.634713 -0.515613 0.0712903 -0.694555 -0.50508 0.0945643 -0.771398 -0.47406 
0.120685 -0.850685 -0.437228 0.151752 -0.907852 -0.405092 0.180996 -0.933611 -0.375648 
-0.468967 0.014963 0.0620073 -0.490754 0.044143 0.0479992 -0.502212 0.0807626 0.0239399 
-0.497004 0.113076 -0.0100666 -0.478963 0.129639 -0.0462581 -0.456685 0.13311 -0.0764663 
-0.433765 0.133929 -0.0997265 -0.410011 0.136438 -0.119924 -0.386512 0.138768 -0.13937 
-0.4703 -0.0877009 0.0466733 -0.478829 -0.173787 0.0157478 -0.47095 -0.265155 -0.0297715 
-0.453718 -0.365456 -0.0927026 -0.431549 -0.469388 -0.165372 -0.401386 -0.561656 -0.235642 
-0.363276 -0.634676 -0.298165 -0.325125 -0.695842 -0.355026 -0.293689 -0.75357 -0.407701 
-0.421642 0.0876799 0.0945199 -0.384252 0.181855 0.131912 -0.340643 0.27163 0.184024 
-0.291849 0.359498 0.243373 -0.229561 0.442511 0.304051 -0.151274 0.508329 0.365792 
-0.070344 0.560961 0.42385 -0.002245 0.624909 0.467967 0.0491783 0.709636 0.494846 
-0.367674 0.0417448 -0.169002 -0.364086 -0.0707682 -0.182464 -0.357119 -0.181549 -0.208368 
-0.349364 -0.27768 -0.252102 -0.340341 -0.361084 -0.306607 -0.327299 -0.442975 -0.356928 
-0.310356 -0.531073 -0.393888 -0.293704 -0.625507 -0.4195 -0.28035 -0.720539 -0.439134 
-0.366656 0.222261 -0.12732 -0.354573 0.292365 -0.0810048 -0.321217 0.346108 -0.0134484 
-0.263231 0.392016 0.0750111 -0.188285 0.446244 0.176026 -0.112754 0.516797 0.274914 
-0.0486449 0.596707 0.358436 0.00348617 0.674637 0.422241 0.048376 0.742937 0.470734 
-9.5801e-05 -0.0910112 -0.0138728 0.0119647 -0.0945663 -0.0344209 0.0250395 -0.0979326 -0.0549542 
0.0423852 -0.100972 -0.0674954 0.0632548 -0.0961283 -0.0729167 0.0808418 -0.0762241 -0.0828351 
0.0889508 -0.0467887 -0.103592 0.0870473 -0.0207365 -0.1276 0.0780339 -0.00466894 -0.144743 
0.00200407 -0.226284 -0.040056 0.0330582 -0.377525 -0.0757676 0.0827693 -0.526715 -0.106416 
0.149555 -0.654273 -0.131514 0.217946 -0.739996 -0.154585 0.263614 -0.785004 -0.184303 
0.274817 -0.815644 -0.224509 0.259675 -0.853755 -0.269062 0.232044 -0.89792 -0.309973 
-0.0039372 0.0487909 0.0488197 0.0309924 0.181926 0.123819 0.105345 0.287746 0.226622 
0.213582 0.346708 0.336492 0.323198 0.372607 0.423204 0.400715 0.407706 0.47666 
0.442476 0.476498 0.513452 0.465776 0.563457 0.550535 0.482047 0.642709 0.587943 
0.0996946 -0.118941 -0.206633 0.145072 -0.252273 -0.243647 0.186489 -0.390483 -0.263945 
0.220187 -0.51691 -0.27866 0.253094 -0.612595 -0.298542 0.280443 -0.680205 -0.321209 
0.285369 -0.742733 -0.337207 0.264824 -0.812645 -0.343609 0.232635 -0.881363 -0.344644 
0.0599435 0.120985 -0.0812716 0.0839918 0.237985 0.00918963 0.13847 0.334259 0.111526 
0.211512 0.39984 0.207932 0.286467 0.445483 0.284277 0.349125 0.490638 0.348549 
0.39292 0.543708 0.418514 0.424355 0.601091 0.49483 0.455882 0.656674 0.563849 
-0.249304 -0.889451 -0.488858 -0.227311 -0.963193 -0.521119 -0.195233 -1.01104 -0.544696 
-0.147812 -1.02895 -0.55293 -0.0864687 -1.03064 -0.53908 -0.0170356 -1.02942 -0.501307 
0.0517984 -1.0251 -0.450098 0.111271 -1.01034 -0.402601 0.159263 -0.980207 -0.368144 
0.138251 0.865503 0.548237 0.195237 0.905786 0.601364 0.260901 0.911147 0.670818 
0.334438 0.906875 0.73748 0.410354 0.916849 0.771363 0.47656 0.923672 0.76132 
0.518791 0.89634 0.726723 0.530015 0.837005 0.690738 0.51612 0.768952 0.656887 
-0.0457973 0.326083 0.327516 -0.103661 0.288118 0.283109 -0.113407 0.2399 0.244426 
-0.165791 0.23554 0.237069 -0.168441 0.185886 0.203645 -0.166914 0.122971 0.172723 
-0.22716 0.170812 0.197089 -0.222899 0.119329 0.166974 -0.214008 0.0597871 0.140197 
-0.202755 -0.0104966 0.116571 -0.283777 0.104021 0.167726 -0.273611 0.0414441 0.143393 
-0.25858 -0.0164055 0.1179 -0.242173 -0.0823397 0.0970192 -0.224332 -0.155833 0.078937 
-0.333498 0.0455537 0.143337 -0.321395 -0.0343281 0.129659 -0.301679 -0.100871 0.108762 
-0.280491 -0.162099 0.0867727 -0.258605 -0.230076 0.0669983 -0.232539 -0.297405 0.0466042 
-0.375404 -0.0019328 0.116826 -0.364989 -0.0915295 0.112021 -0.344281 -0.170961 0.0987327 
-0.318484 -0.234785 0.0779897 -0.2913 -0.294596 0.0538532 -0.261381 -0.354575 0.0273194 
-0.227359 -0.409357 0.000764817 -0.410243 -0.0415548 0.0894777 -0.400179 -0.127745 0.0859527 
-0.380807 -0.211017 0.0755306 -0.353443 -0.280717 0.0567899 -0.320947 -0.339335 0.0320623 
-0.286015 -0.392713 0.00180256 -0.249974 -0.442466 -0.0300305 -0.213664 -0.489785 -0.0559178 
0.0525839 0.395806 0.479321 0.0723401 0.421809 0.536916 -0.00774808 0.379503 0.431892 
0.0805486 0.460737 0.572768 0.0070758 0.401804 0.485603 -0.0766289 0.348954 0.373212 
0.080559 0.509729 0.580936 0.010024 0.428028 0.519734 -0.0678628 0.369177 0.418807 
-0.152047 0.305914 0.310802 0.0773654 0.561128 0.571874 0.00538653 0.464073 0.529667 
-0.070073 0.389977 0.450065 -0.149494 0.330562 0.347386 -0.225667 0.26151 0.253308 
0.0730167 0.611197 0.55752 0.000611117 0.511429 0.522885 -0.0771286 0.425711 0.462541 
-0.153867 0.356752 0.37582 -0.225463 0.294881 0.281441 -0.287223 0.220298 0.203392 
[...]
POINT_DATA 1002
FIELD FieldData 4
_paraPhi 1 1002 double
6.2831853072 3.1415926536 6.2831853072 3.1415926536 4.7123889804 4.7123889804 1.5707963268 1.5707963268 3.6951670125 
5.7296109483 2.5880182947 0.5535743589 6.2831853072 6.2831853072 6.2831853072 6.2831853072 3.1415926536 3.1415926536 
3.1415926536 3.1415926536 3.1415926536 6.1053039672 5.898798347 5.6768734901 5.4599499503 5.2659633393 5.1032165617 
4.9713148346 4.8656852733 4.7809517865 0.17788134 0.38438696014 0.60631181711 0.82323535693 1.0172219679 1.1799687454 
1.3118704726 1.4175000338 1.5022335207 6.1892828907 6.1070320098 6.035312792 5.9728339911 5.9183214791 5.8706119594 
5.8286879411 5.7916808611 5.7588591896 0.093902416448 0.17615329733 0.2478725152 0.31035131605 0.36486382811 0.41257334776 
0.45449736604 0.4915044461 0.52432611754 3.3194739936 3.5259796137 3.7479044707 3.9648280105 4.1588146215 4.321561399 
4.4534631262 4.5590926874 4.6438261743 2.9637113136 2.7572056934 2.5352808365 2.3183572967 2.1243706857 1.9616239082 
1.829722181 1.7240926197 1.6393591329 3.23549507 3.3177459509 3.3894651688 3.4519439696 3.5064564817 3.5541660013 
3.5960900196 3.6330970997 3.6659187711 3.0476902371 2.9654393563 2.8937201384 2.8312413375 2.7767288255 2.7290193058 
2.6870952876 2.6500882075 2.617266536 6.2831853072 6.2831853072 6.2831853072 6.2831853072 3.1415926536 3.1415926536 
3.1415926536 3.1415926536 3.1415926536 6.1053039672 5.898798347 5.6768734901 5.4599499503 5.2659633393 5.1032165617 
4.9713148346 4.8656852733 4.7809517865 0.17788134 0.38438696014 0.60631181711 0.82323535693 1.0172219679 1.1799687454 
1.3118704726 1.4175000338 1.5022335207 6.1892828907 6.1070320098 6.035312792 5.9728339911 5.9183214791 5.8706119594 
5.8286879411 5.7916808611 5.7588591896 0.093902416448 0.17615329733 0.2478725152 0.31035131605 0.36486382811 0.41257334776 
0.45449736604 0.4915044461 0.52432611754 3.3194739936 3.5259796137 3.7479044707 3.9648280105 4.1588146215 4.321561399 
4.4534631262 4.5590926874 4.6438261743 2.9637113136 2.7572056934 2.5352808365 2.3183572967 2.1243706857 1.9616239082 
1.829722181 1.7240926197 1.6393591329 3.23549507 3.3177459509 3.3894651688 3.4519439696 3.5064564817 3.5541660013 
3.5960900196 3.6330970997 3.6659187711 3.0476902371 2.9654393563 2.8937201384 2.8312413375 2.7767288255 2.7290193058 
2.6870952876 2.6500882075 2.617266536 4.7123889804 4.7123889804 4.7123889804 4.7123889804 4.7123889804 4.7123889804 
4.7123889804 4.7123889804 4.7123889804 4.6087898617 4.4991390697 4.3857031936 4.2712800401 4.1588146215 4.0509635631 
3.94975894 3.8564636551 3.7716124825 4.8159880991 4.9256388911 5.0390747672 5.1534979207 5.2659633393 5.3738143976 
5.4750190208 5.5683143056 5.6531654782 4.6087898617 4.4991390697 4.3857031936 4.2712800401 4.1588146215 4.0509635631 
3.94975894 3.8564636551 3.7716124825 4.8159880991 4.9256388911 5.0390747672 5.1534979207 5.2659633393 5.3738143976 
5.4750190208 5.5683143056 5.6531654782 1.5707963268 1.5707963268 1.5707963268 1.5707963268 1.5707963268 1.5707963268 
1.5707963268 1.5707963268 1.5707963268 1.6743954455 1.7840462375 1.8974821136 2.0119052671 2.1243706857 2.232221744 
2.3334263672 2.426721652 2.5115728246 1.4671972081 1.3575464161 1.24411054 1.1296873865 1.0172219679 0.90937090954 
0.80816628637 0.71487100155 0.63001982895 1.6743954455 1.7840462375 1.8974821136 2.0119052671 2.1243706857 2.232221744 
2.3334263672 2.426721652 2.5115728246 1.4671972081 1.3575464161 1.24411054 1.1296873865 1.0172219679 0.90937090954 
0.80816628637 0.71487100155 0.63001982895 3.6007720849 3.4966939854 3.3839471039 3.2645756454 3.1415926536 3.0186096618 
2.8992382033 2.7864913217 2.6824132222 5.8240058758 5.9280839753 6.0408308569 6.1602023154 6.2831853072 0.12298299178 
0.2423544503 0.35510133185 0.45917943135 6.0560271438 5.7885595667 5.9702140275 5.5125918794 5.6029703303 5.7885595667 
5.2659633393 5.2659633393 5.2659633393 5.2659633393 5.0674903122 5.0120975802 4.9155579264 4.7123889804 4.1588146215 
4.9155579264 4.8353719722 4.7123889804 4.5092200343 4.1588146215 3.6362183941 4.8004512023 4.7123889804 4.5894059886 
4.4126803806 4.1588146215 3.8218076305 3.4545639333 4.7123889804 4.6243267584 4.5092200343 4.3572876485 4.1588146215 
3.9121860814 3.6362183941 3.368750817 6.0174235957 5.9434319871 5.8263323547 5.8809213739 5.7674481418 5.6279784266 
5.8278025282 5.718968232 5.5891129425 5.4372443565 5.7823484065 5.678536687 5.5575666702 5.4192596322 5.2659633393 
5.743164462 5.6444075337 5.5314983644 5.4046708639 5.2659633393 5.1195510325 5.7091357773 5.6152775188 5.5096229709 
5.3926039573 5.2659633393 5.1329233157 4.9978930058 5.6793730533 5.5901633916 5.4910209005 5.3824597928 5.2659633393 
5.1440684722 5.0201624502 4.8979782167 5.5683143056 5.4750190208 5.4750190208 5.3738143976 5.3738143976 5.3738143976 
5.2659633393 5.2659633393 5.2659633393 5.2659633393 5.1534979207 5.1534979207 5.1534979207 5.1534979207 5.1534979207 
5.0390747672 5.0390747672 5.0390747672 5.0390747672 5.0390747672 5.0390747672 4.9256388911 4.9256388911 4.9256388911 
4.9256388911 4.9256388911 4.9256388911 4.9256388911 4.8159880991 4.8159880991 4.8159880991 4.8159880991 4.8159880991 
4.8159880991 4.8159880991 4.8159880991 4.6087898617 4.6087898617 4.4991390697 4.6087898617 4.4991390697 4.3857031936 
4.6087898617 4.4991390697 4.3857031936 4.2712800401 4.6087898617 4.4991390697 4.3857031936 4.2712800401 4.1588146215 
4.6087898617 4.4991390697 4.3857031936 4.2712800401 4.1588146215 4.0509635631 4.6087898617 4.4991390697 4.3857031936 
4.2712800401 4.1588146215 4.0509635631 3.94975894 4.6087898617 4.4991390697 4.3857031936 4.2712800401 4.1588146215 
4.0509635631 3.94975894 3.8564636551 4.526799744 4.4046155105 4.426884955 4.2807094886 4.2918546451 4.3052269283 
4.1588146215 4.1588146215 4.1588146215 4.1588146215 4.042318168 4.0321740035 4.0201070968 4.0055183285 3.9875336042 
3.9337570603 3.9151549899 3.8932795963 3.8672112905 3.8356650183 3.7967995342 3.8346145692 3.809500442 3.7803704271 
3.7462412737 3.7058097288 3.657329819 3.5984456061 3.7454049075 3.7156421835 3.6816134988 3.6424295543 3.5969754326 
3.5438565869 3.4813459737 3.4073543651 3.5642842451 3.4524645613 3.5233842518 3.3320300872 3.403123212 3.4773852225 
3.20576226 3.2746326772 3.348015857 3.4255060145 3.0774230472 3.1415926536 3.2112816139 3.2864685043 3.3668817272 
2.95115522 3.00855263 3.0719036933 3.1415926536 3.2178377658 3.3005964304 2.8307207459 2.8800620952 2.9351694502 
2.9967168029 3.0653475414 3.1415926536 3.225752376 2.718901062 2.7598010554 2.8058000847 2.8576792927 2.91630358 
2.9825888767 3.0574329311 3.1415926536 3.5642842451 3.5233842518 3.4524645613 3.4773852225 3.403123212 3.3320300872 
3.4255060145 3.348015857 3.2746326772 3.20576226 3.3668817272 3.2864685043 3.2112816139 3.1415926536 3.0774230472 
3.3005964304 3.2178377658 3.1415926536 3.0719036933 3.00855263 2.95115522 3.225752376 3.1415926536 3.0653475414 
2.9967168029 2.9351694502 2.8800620952 2.8307207459 3.1415926536 3.0574329311 2.9825888767 2.91630358 2.8576792927 
2.8058000847 2.7598010554 2.718901062 4.526799744 4.426884955 4.4046155105 4.3052269283 4.2918546451 4.2807094886 
4.1588146215 4.1588146215 4.1588146215 4.1588146215 3.9875336042 4.0055183285 4.0201070968 4.0321740035 4.042318168 
3.7967995342 3.8356650183 3.8672112905 3.8932795963 3.9151549899 3.9337570603 3.5984456061 3.657329819 3.7058097288 
3.7462412737 3.7803704271 3.809500442 3.8346145692 3.4073543651 3.4813459737 3.5438565869 3.5969754326 3.6424295543 
3.6816134988 3.7156421835 3.7454049075 4.7123889804 4.8004512023 4.6243267584 4.9155579264 4.7123889804 4.5092200343 
5.0674903122 4.8353719722 4.5894059886 4.3572876485 5.2659633393 5.0120975802 4.7123889804 4.4126803806 4.1588146215 
5.5125918794 5.2659633393 4.9155579264 4.5092200343 4.1588146215 3.9121860814 5.7885595667 5.6029703303 5.2659633393 
4.7123889804 4.1588146215 3.8218076305 3.6362183941 6.0560271438 5.9702140275 5.7885595667 5.2659633393 4.1588146215 
3.6362183941 3.4545639333 3.368750817 0.22715816343 0.49462574053 0.3129712797 0.77059342779 0.68021497688 0.49462574053 
1.0172219679 1.0172219679 1.0172219679 1.0172219679 1.2156949949 1.271087727 1.3676273807 1.5707963268 2.1243706857 
1.3676273807 1.447813335 1.5707963268 1.7739652728 2.1243706857 2.6469669131 1.4827341049 1.5707963268 1.6937793186 
1.8705049266 2.1243706857 2.4613776767 2.8286213739 1.5707963268 1.6588585487 1.7739652728 1.9258976586 2.1243706857 
2.3709992258 2.6469669131 2.9144344902 1.7563855631 1.8785697967 1.8563003522 2.0024758186 1.9913306621 1.9779583789 
2.1243706857 2.1243706857 2.1243706857 2.1243706857 2.2408671392 2.2510113037 2.2630782103 2.2776669786 2.295651703 
2.3494282469 2.3680303173 2.3899057108 2.4159740166 2.4475202889 2.486385773 2.448570738 2.4736848652 2.5028148801 
2.5369440334 2.5773755784 2.6258554882 2.6847397011 2.5377803997 2.5675431237 2.6015718084 2.6407557529 2.6862098746 
2.7393287203 2.8018393335 2.8758309421 1.6743954455 1.6743954455 1.7840462375 1.6743954455 1.7840462375 1.8974821136 
1.6743954455 1.7840462375 1.8974821136 2.0119052671 1.6743954455 1.7840462375 1.8974821136 2.0119052671 2.1243706857 
1.6743954455 1.7840462375 1.8974821136 2.0119052671 2.1243706857 2.232221744 1.6743954455 1.7840462375 1.8974821136 
2.0119052671 2.1243706857 2.232221744 2.3334263672 1.6743954455 1.7840462375 1.8974821136 2.0119052671 2.1243706857 
2.232221744 2.3334263672 2.426721652 1.4671972081 1.3575464161 1.4671972081 1.24411054 1.3575464161 1.4671972081 
1.1296873865 1.24411054 1.3575464161 1.4671972081 1.0172219679 1.1296873865 1.24411054 1.3575464161 1.4671972081 
0.90937090954 1.0172219679 1.1296873865 1.24411054 1.3575464161 1.4671972081 0.80816628637 0.90937090954 1.0172219679 
1.1296873865 1.24411054 1.3575464161 1.4671972081 0.71487100155 0.80816628637 0.90937090954 1.0172219679 1.1296873865 
1.24411054 1.3575464161 1.4671972081 0.60381225391 0.57404952988 0.69302191562 0.54002084522 0.66790778838 0.79216440667 
0.50083690068 0.63877777351 0.77356233629 0.90072551443 0.45538277901 0.60464862014 0.75168694275 0.89058134991 1.0172219679 
0.40226393329 0.56421707518 0.72561863695 0.87851444325 1.0172219679 1.139116835 0.33975332011 0.51573716537 0.69407236469 
0.86392567495 1.0172219679 1.1502619915 1.2630228569 0.26576171152 0.45685295248 0.6552068806 0.84594095064 1.0172219679 
1.1636342747 1.2852923014 1.3852070904 0.22715816343 0.3129712797 0.49462574053 0.49462574053 0.68021497688 0.77059342779 
1.0172219679 1.0172219679 1.0172219679 1.0172219679 2.1243706857 1.5707963268 1.3676273807 1.271087727 1.2156949949 
2.6469669131 2.1243706857 1.7739652728 1.5707963268 1.447813335 1.3676273807 2.8286213739 2.4613776767 2.1243706857 
1.8705049266 1.6937793186 1.5707963268 1.4827341049 2.9144344902 2.6469669131 2.3709992258 2.1243706857 1.9258976586 
1.7739652728 1.6588585487 1.5707963268 1.7563855631 1.8563003522 1.8785697967 1.9779583789 1.9913306621 2.0024758186 
2.1243706857 2.1243706857 2.1243706857 2.1243706857 2.295651703 2.2776669786 2.2630782103 2.2510113037 2.2408671392 
2.486385773 2.4475202889 2.4159740166 2.3899057108 2.3680303173 2.3494282469 2.6847397011 2.6258554882 2.5773755784 
2.5369440334 2.5028148801 2.4736848652 2.448570738 2.8758309421 2.8018393335 2.7393287203 2.6862098746 2.6407557529 
2.6015718084 2.5675431237 2.5377803997 5.8604937156 5.901393709 5.9723133995 5.9473927383 6.0216547488 6.0927478736 
5.9992719463 6.0767621038 6.1501452836 6.2190157008 6.0578962336 6.1383094565 6.2134963469 0 0.064169606361 
6.1241815303 6.206940195 6.2831853072 0.069688960264 0.13304002361 0.19043743361 6.1990255847 0 0.07624511221 
0.14487585072 0.20642320337 0.26153055843 0.3108719077 0 0.084159722458 0.15900377685 0.22528907359 0.28391336087 
0.3357925689 0.38179159818 0.42269159155 5.8604937156 5.9723133995 5.901393709 6.0927478736 6.0216547488 5.9473927383 
6.2190157008 6.1501452836 6.0767621038 5.9992719463 0.064169606361 0 6.2134963469 6.1383094565 6.0578962336 
0.19043743361 0.13304002361 0.069688960264 6.2831853072 6.206940195 6.1241815303 0.3108719077 0.26153055843 0.20642320337 
0.14487585072 0.07624511221 6.2831853072 6.1990255847 0.42269159155 0.38179159818 0.3357925689 0.28391336087 0.22528907359 
0.15900377685 0.084159722458 0 5.6793730533 5.7091357773 5.5901633916 5.743164462 5.6152775188 5.4910209005 
5.7823484065 5.6444075337 5.5096229709 5.3824597928 5.8278025282 5.678536687 5.5314983644 5.3926039573 5.2659633393 
5.8809213739 5.718968232 5.5575666702 5.4046708639 5.2659633393 5.1440684722 5.9434319871 5.7674481418 5.5891129425 
5.4192596322 5.2659633393 5.1329233157 5.0201624502 6.0174235957 5.8263323547 5.6279784266 5.4372443565 5.2659633393 
5.1195510325 4.9978930058 4.8979782167 1.3852070904 1.2852923014 1.2630228569 1.1636342747 1.1502619915 1.139116835 
1.0172219679 1.0172219679 1.0172219679 1.0172219679 0.84594095064 0.86392567495 0.87851444325 0.89058134991 0.90072551443 
0.6552068806 0.69407236469 0.72561863695 0.75168694275 0.77356233629 0.79216440667 0.45685295248 0.51573716537 0.56421707518 
0.60464862014 0.63877777351 0.66790778838 0.69302191562 0.26576171152 0.33975332011 0.40226393329 0.45538277901 0.50083690068 
0.54002084522 0.57404952988 0.60381225391 
_paraPhiHalf 1 1002 double
0 3.1415926536 0 3.1415926536 1.5707963268 1.5707963268 1.5707963268 1.5707963268 2.5880182947 
0.5535743589 2.5880182947 0.5535743589 0 0 0 0 3.1415926536 3.1415926536 
3.1415926536 3.1415926536 3.1415926536 0.17788134 0.38438696014 0.60631181711 0.82323535693 1.0172219679 1.1799687454 
1.3118704726 1.4175000338 1.5022335207 0.17788134 0.38438696014 0.60631181711 0.82323535693 1.0172219679 1.1799687454 
1.3118704726 1.4175000338 1.5022335207 0.093902416448 0.17615329733 0.2478725152 0.31035131605 0.36486382811 0.41257334776 
0.45449736604 0.4915044461 0.52432611754 0.093902416448 0.17615329733 0.2478725152 0.31035131605 0.36486382811 0.41257334776 
0.45449736604 0.4915044461 0.52432611754 2.9637113136 2.7572056934 2.5352808365 2.3183572967 2.1243706857 1.9616239082 
1.829722181 1.7240926197 1.6393591329 2.9637113136 2.7572056934 2.5352808365 2.3183572967 2.1243706857 1.9616239082 
1.829722181 1.7240926197 1.6393591329 3.0476902371 2.9654393563 2.8937201384 2.8312413375 2.7767288255 2.7290193058 
2.6870952876 2.6500882075 2.617266536 3.0476902371 2.9654393563 2.8937201384 2.8312413375 2.7767288255 2.7290193058 
2.6870952876 2.6500882075 2.617266536 0 0 0 0 3.1415926536 3.1415926536 
3.1415926536 3.1415926536 3.1415926536 0.17788134 0.38438696014 0.60631181711 0.82323535693 1.0172219679 1.1799687454 
1.3118704726 1.4175000338 1.5022335207 0.17788134 0.38438696014 0.60631181711 0.82323535693 1.0172219679 1.1799687454 
1.3118704726 1.4175000338 1.5022335207 0.093902416448 0.17615329733 0.2478725152 0.31035131605 0.36486382811 0.41257334776 
0.45449736604 0.4915044461 0.52432611754 0.093902416448 0.17615329733 0.2478725152 0.31035131605 0.36486382811 0.41257334776 
0.45449736604 0.4915044461 0.52432611754 2.9637113136 2.7572056934 2.5352808365 2.3183572967 2.1243706857 1.9616239082 
1.829722181 1.7240926197 1.6393591329 2.9637113136 2.7572056934 2.5352808365 2.3183572967 2.1243706857 1.9616239082 
1.829722181 1.7240926197 1.6393591329 3.0476902371 2.9654393563 2.8937201384 2.8312413375 2.7767288255 2.7290193058 
2.6870952876 2.6500882075 2.617266536 3.0476902371 2.9654393563 2.8937201384 2.8312413375 2.7767288255 2.7290193058 
2.6870952876 2.6500882075 2.617266536 1.5707963268 1.5707963268 1.5707963268 1.5707963268 1.5707963268 1.5707963268 
1.5707963268 1.5707963268 1.5707963268 1.6743954455 1.7840462375 1.8974821136 2.0119052671 2.1243706857 2.232221744 
2.3334263672 2.426721652 2.5115728246 1.4671972081 1.3575464161 1.24411054 1.1296873865 1.0172219679 0.90937090954 
0.80816628637 0.71487100155 0.63001982895 1.6743954455 1.7840462375 1.8974821136 2.0119052671 2.1243706857 2.232221744 
2.3334263672 2.426721652 2.5115728246 1.4671972081 1.3575464161 1.24411054 1.1296873865 1.0172219679 0.90937090954 
0.80816628637 0.71487100155 0.63001982895 1.5707963268 1.5707963268 1.5707963268 1.5707963268 1.5707963268 1.5707963268 
1.5707963268 1.5707963268 1.5707963268 1.6743954455 1.7840462375 1.8974821136 2.0119052671 2.1243706857 2.232221744 
2.3334263672 2.426721652 2.5115728246 1.4671972081 1.3575464161 1.24411054 1.1296873865 1.0172219679 0.90937090954 
0.80816628637 0.71487100155 0.63001982895 1.6743954455 1.7840462375 1.8974821136 2.0119052671 2.1243706857 2.232221744 
2.3334263672 2.426721652 2.5115728246 1.4671972081 1.3575464161 1.24411054 1.1296873865 1.0172219679 0.90937090954 
0.80816628637 0.71487100155 0.63001982895 2.6824132222 2.7864913217 2.8992382033 3.0186096618 3.1415926536 3.0186096618 
2.8992382033 2.7864913217 2.6824132222 0.45917943135 0.35510133185 0.2423544503 0.12298299178 0 0.12298299178 
0.2423544503 0.35510133185 0.45917943135 0.22715816343 0.49462574053 0.3129712797 0.77059342779 0.68021497688 0.49462574053 
1.0172219679 1.0172219679 1.0172219679 1.0172219679 1.2156949949 1.271087727 1.3676273807 1.5707963268 2.1243706857 
1.3676273807 1.447813335 1.5707963268 1.7739652728 2.1243706857 2.6469669131 1.4827341049 1.5707963268 1.6937793186 
1.8705049266 2.1243706857 2.4613776767 2.8286213739 1.5707963268 1.6588585487 1.7739652728 1.9258976586 2.1243706857 
2.3709992258 2.6469669131 2.9144344902 0.26576171152 0.33975332011 0.45685295248 0.40226393329 0.51573716537 0.6552068806 
0.45538277901 0.56421707518 0.69407236469 0.84594095064 0.50083690068 0.60464862014 0.72561863695 0.86392567495 1.0172219679 
0.54002084522 0.63877777351 0.75168694275 0.87851444325 1.0172219679 1.1636342747 0.57404952988 0.66790778838 0.77356233629 
0.89058134991 1.0172219679 1.1502619915 1.2852923014 0.60381225391 0.69302191562 0.79216440667 0.90072551443 1.0172219679 
1.139116835 1.2630228569 1.3852070904 0.71487100155 0.80816628637 0.80816628637 0.90937090954 0.90937090954 0.90937090954 
1.0172219679 1.0172219679 1.0172219679 1.0172219679 1.1296873865 1.1296873865 1.1296873865 1.1296873865 1.1296873865 
1.24411054 1.24411054 1.24411054 1.24411054 1.24411054 1.24411054 1.3575464161 1.3575464161 1.3575464161 
1.3575464161 1.3575464161 1.3575464161 1.3575464161 1.4671972081 1.4671972081 1.4671972081 1.4671972081 1.4671972081 
1.4671972081 1.4671972081 1.4671972081 1.6743954455 1.6743954455 1.7840462375 1.6743954455 1.7840462375 1.8974821136 
1.6743954455 1.7840462375 1.8974821136 2.0119052671 1.6743954455 1.7840462375 1.8974821136 2.0119052671 2.1243706857 
1.6743954455 1.7840462375 1.8974821136 2.0119052671 2.1243706857 2.232221744 1.6743954455 1.7840462375 1.8974821136 
2.0119052671 2.1243706857 2.232221744 2.3334263672 1.6743954455 1.7840462375 1.8974821136 2.0119052671 2.1243706857 
2.232221744 2.3334263672 2.426721652 1.7563855631 1.8785697967 1.8563003522 2.0024758186 1.9913306621 1.9779583789 
2.1243706857 2.1243706857 2.1243706857 2.1243706857 2.2408671392 2.2510113037 2.2630782103 2.2776669786 2.295651703 
2.3494282469 2.3680303173 2.3899057108 2.4159740166 2.4475202889 2.486385773 2.448570738 2.4736848652 2.5028148801 
2.5369440334 2.5773755784 2.6258554882 2.6847397011 2.5377803997 2.5675431237 2.6015718084 2.6407557529 2.6862098746 
2.7393287203 2.8018393335 2.8758309421 2.718901062 2.8307207459 2.7598010554 2.95115522 2.8800620952 2.8058000847 
3.0774230472 3.00855263 2.9351694502 2.8576792927 3.0774230472 3.1415926536 3.0719036933 2.9967168029 2.91630358 
2.95115522 3.00855263 3.0719036933 3.1415926536 3.0653475414 2.9825888767 2.8307207459 2.8800620952 2.9351694502 
2.9967168029 3.0653475414 3.1415926536 3.0574329311 2.718901062 2.7598010554 2.8058000847 2.8576792927 2.91630358 
2.9825888767 3.0574329311 3.1415926536 2.718901062 2.7598010554 2.8307207459 2.8058000847 2.8800620952 2.95115522 
2.8576792927 2.9351694502 3.00855263 3.0774230472 2.91630358 2.9967168029 3.0719036933 3.1415926536 3.0774230472 
2.9825888767 3.0653475414 3.1415926536 3.0719036933 3.00855263 2.95115522 3.0574329311 3.1415926536 3.0653475414 