# vtk DataFile Version 5.1
vtk output
ASCII
DATASET POLYDATA
POINTS 1002 float
-0.628866 -0.0869408 -0.217317 0.569124 0.0217183 -0.199599 -0.671503 -0.0170403 0.122755 
0.667533 -0.0037351 0.253017 0.0560617 0.167866 -0.110974 -0.044057 0.119937 0.0495808 
0.0610939 -0.319111 -0.0974912 0.0546349 -0.349339 0.14777 1.01583 0.398509 0.0665332 
-1.03053 0.490066 -0.00121447 0.890473 -0.206673 -0.0423998 -1.00738 -0.183984 0.0224879 
-0.521468 -0.0983724 -0.225156 -0.390658 -0.0983567 -0.221058 -0.250648 -0.091022 -0.216012 
-0.112097 -0.0804497 -0.217597 0.0296011 -0.0635758 -0.215657 0.175545 -0.039244 -0.202071 
0.307979 -0.015844 -0.189692 0.41276 -6.41899e-05 -0.190383 0.495999 0.0107879 -0.197305 
-0.601145 -0.0656281 -0.215031 -0.564645 -0.0415415 -0.213492 -0.522771 -0.0182011 -0.213573 
-0.471611 0.00394399 -0.210484 -0.400298 0.0293104 -0.196969 -0.309227 0.0586059 -0.173952 
-0.214678 0.0864135 -0.151103 -0.126413 0.111181 -0.134836 -0.0383037 0.137427 -0.123088 
-0.586515 -0.116442 -0.224497 -0.527325 -0.144243 -0.219929 -0.45256 -0.169709 -0.20382 
-0.372248 -0.196107 -0.187075 -0.294067 -0.227439 -0.177839 -0.215965 -0.26063 -0.169848 
-0.137128 -0.28655 -0.154821 -0.063489 -0.301265 -0.134986 0.00179509 -0.309916 -0.115615 
-0.706171 -0.0524211 -0.195022 -0.776782 -0.00629643 -0.165741 -0.842221 0.049398 -0.141243 
-0.909391 0.109313 -0.124075 -0.98022 0.167035 -0.104287 -1.03887 0.224069 -0.0770683 
-1.06527 0.29062 -0.0513148 -1.06118 0.368299 -0.0339661 -1.04546 0.441146 -0.0200004 
-0.697014 -0.0856096 -0.205886 -0.758737 -0.082208 -0.188433 -0.819266 -0.0844026 -0.169284 
-0.879346 -0.094617 -0.151443 -0.926414 -0.106833 -0.129698 -0.950896 -0.117711 -0.0970283 
-0.964075 -0.131778 -0.0583309 -0.981123 -0.150841 -0.0251217 -0.999632 -0.16978 -6.82747e-05 
0.564281 0.0556783 -0.18233 0.548125 0.0898007 -0.169013 0.521229 0.122334 -0.158979 
0.484895 0.151497 -0.150242 0.438349 0.173471 -0.14276 0.380678 0.184027 -0.136805 
0.313026 0.184092 -0.130113 0.235874 0.179022 -0.121676 0.149032 0.172964 -0.114435 
0.522696 -0.0193791 -0.217944 0.476542 -0.0606423 -0.226714 0.43922 -0.101981 -0.217143 
0.408636 -0.145157 -0.19175 0.369544 -0.189933 -0.165491 0.311241 -0.230981 -0.150249 
0.242181 -0.262742 -0.141982 0.176717 -0.285537 -0.130376 0.117898 -0.303429 -0.113679 
0.642354 0.0584868 -0.183934 0.710965 0.10282 -0.172824 0.760074 0.151372 -0.17823 
0.800797 0.203203 -0.187239 0.865468 0.258763 -0.168607 0.953607 0.312147 -0.117386 
1.02052 0.353181 -0.0616921 1.03951 0.378636 -0.0179955 1.02909 0.392607 0.0223351 
0.610851 0.00687959 -0.210988 0.648108 -0.0119089 -0.222184 0.680627 -0.0376676 -0.230107 
0.716132 -0.072539 -0.228725 0.764267 -0.111561 -0.211012 0.819362 -0.144225 -0.178079 
0.86228 -0.165795 -0.140618 0.883745 -0.180826 -0.106404 0.890464 -0.194368 -0.0745269 
-0.567504 -0.0397509 0.121012 -0.439685 -0.0571496 0.126721 -0.296624 -0.0660718 0.139564 
-0.14822 -0.0691001 0.153305 0.00364372 -0.0689995 0.165316 0.162473 -0.0623827 0.18295 
0.322878 -0.0469508 0.210373 0.468254 -0.0282375 0.238391 0.58416 -0.0131573 0.254295 
-0.651553 0.00554098 0.116735 -0.621284 0.0244266 0.105434 -0.582634 0.0372803 0.0875241 
-0.535193 0.047006 0.0701879 -0.471044 0.0603347 0.0654535 -0.384528 0.0794345 0.0740982 
-0.286205 0.098042 0.0822808 -0.1947 0.109435 0.0785462 -0.116633 0.114556 0.0646612 
-0.623579 -0.0561063 0.125575 -0.565872 -0.0971178 0.126654 -0.503628 -0.138405 0.122004 
-0.436545 -0.178483 0.115663 -0.359633 -0.217667 0.117093 -0.272519 -0.256508 0.128037 
-0.182144 -0.292047 0.140062 -0.0957967 -0.319597 0.146465 -0.0167238 -0.337882 0.147988 
-0.748413 0.0251542 0.128447 -0.809954 0.0759904 0.143648 -0.855706 0.135219 0.16423 
-0.896279 0.20496 0.179379 -0.940727 0.29123 0.178088 -0.985141 0.39312 0.154568 
-1.01899 0.487451 0.111943 -1.03663 0.539714 0.0635341 -1.03911 0.535459 0.0240766 
-0.734172 -0.0177081 0.12852 -0.788984 -0.0214801 0.137741 -0.834235 -0.0311101 0.156617 
-0.869857 -0.0487874 0.184392 -0.898978 -0.0726994 0.20429 -0.930427 -0.0980043 0.195871 
-0.969201 -0.122195 0.157993 -1.00445 -0.145557 0.107878 -1.01906 -0.167055 0.0610552 
0.634623 0.0229554 0.244668 0.59262 0.0513303 0.233278 0.543911 0.0796629 0.221464 
0.48694 0.103667 0.208201 0.415518 0.118949 0.187009 0.327407 0.123928 0.154176 
0.228824 0.120911 0.116174 0.129367 0.115668 0.0838249 0.0369515 0.114439 0.0623077 
0.648518 -0.0356607 0.263161 0.617255 -0.0718548 0.265685 0.57056 -0.111876 0.258388 
0.50901 -0.152947 0.2468 0.435119 -0.192898 0.235911 0.353361 -0.231514 0.22131 
0.272354 -0.267126 0.199345 0.198597 -0.297264 0.176789 0.128618 -0.323383 0.160397 
0.714927 0.0202206 0.233756 0.752538 0.0474392 0.20188 0.780894 0.0811192 0.159385 
0.810712 0.124213 0.116979 0.858795 0.174174 0.0944308 0.923996 0.222964 0.100862 
0.980667 0.267219 0.117444 1.00965 0.31153 0.117603 1.01678 0.357539 0.0962557 
0.722613 -0.0180395 0.24497 0.771333 -0.036979 0.227439 0.823397 -0.058119 0.209733 
0.886077 -0.080124 0.199598 0.950395 -0.105342 0.190142 0.994394 -0.134234 0.164332 
1.00233 -0.160616 0.116218 0.976741 -0.179283 0.0574057 0.933853 -0.19282 0.00246092 
0.0612242 0.185419 -0.100448 0.0709568 0.199452 -0.0858068 0.0772551 0.203403 -0.066033 
0.068393 0.195702 -0.0449 0.0410102 0.182498 -0.027886 0.00642483 0.170089 -0.0144273 
-0.0209446 0.158323 0.00041698 -0.0364166 0.145068 0.0176944 -0.0429529 0.131456 0.0346095 
0.219296 0.211215 -0.0955714 0.384198 0.274179 -0.074573 0.519941 0.350662 -0.0545244 
0.611772 0.420518 -0.0419362 0.686601 0.466348 -0.0297864 0.779676 0.490566 -0.00552987 
0.88187 0.500542 0.0268732 0.957858 0.490436 0.0516653 0.997091 0.45383 0.0628813 
-0.109261 0.148104 -0.118724 -0.289687 0.140977 -0.131378 -0.468678 0.156751 -0.153387 
-0.62297 0.203073 -0.177003 -0.729832 0.265178 -0.175476 -0.792868 0.311196 -0.132049 
-0.846364 0.33558 -0.0697527 -0.913578 0.367759 -0.0255445 -0.982318 0.425159 -0.00832061 
0.0959267 0.133352 0.0519953 0.28364 0.180707 0.0849074 0.497118 0.262442 0.142717 
0.678048 0.34802 0.187646 0.793253 0.404883 0.194737 0.867825 0.434207 0.18235 
0.92962 0.451463 0.170318 0.974148 0.454102 0.149601 0.998135 0.434281 0.111582 
-0.165163 0.130051 0.049611 -0.295956 0.146542 0.0402602 -0.445605 0.164275 0.0117149 
-0.59817 0.190153 -0.0133204 -0.71752 0.233633 -0.00079894 -0.794658 0.29308 0.0402237 
-0.857936 0.360206 0.0644273 -0.925266 0.42467 0.052035 -0.986523 0.471839 0.0224804 
0.058991 -0.337187 -0.0780224 0.051582 -0.360047 -0.0604727 0.037542 -0.386441 -0.0453529 
0.0155479 -0.413449 -0.0298751 -0.0100845 -0.435047 -0.00800619 -0.0244681 -0.442136 0.0253382 
-0.0144075 -0.429678 0.0674433 0.0139644 -0.403309 0.107142 0.0411961 -0.374172 0.134293 
0.160206 -0.321677 -0.0865437 0.267166 -0.325976 -0.0752981 0.368656 -0.328967 -0.072638 
0.462122 -0.330618 -0.0823157 0.560936 -0.336874 -0.0948131 0.661978 -0.34472 -0.0998228 
0.738631 -0.335083 -0.0975171 0.785807 -0.298182 -0.0890804 0.830185 -0.248848 -0.0709182 
-0.0373581 -0.327349 -0.0948278 -0.150146 -0.335013 -0.0951995 -0.280584 -0.342168 -0.102632 
-0.423152 -0.346437 -0.115478 -0.558475 -0.339135 -0.121284 -0.673325 -0.313685 -0.108055 
-0.775947 -0.277758 -0.0788309 -0.873519 -0.244322 -0.044662 -0.954804 -0.21524 -0.0107987 
0.178922 -0.340522 0.159408 0.314927 -0.335961 0.178062 0.444237 -0.345051 0.19245 
0.547219 -0.362366 0.184945 0.622669 -0.367527 0.149273 0.6854 -0.349025 0.0972998 
0.743963 -0.315234 0.0453716 0.797084 -0.277849 0.00326179 0.845147 -0.241204 -0.0255233 
-0.0721978 -0.36984 0.135687 -0.211519 -0.38307 0.119451 -0.35565 -0.38154 0.092313 
-0.493678 -0.366219 0.0594814 -0.61757 -0.342927 0.0373558 -0.727944 -0.313427 0.032839 
-0.827736 -0.278955 0.0350007 -0.912121 -0.245119 0.0328422 -0.972544 -0.214711 0.0269723 
1.04283 0.332904 0.0419718 1.08198 0.267616 0.0241681 1.11331 0.212946 0.0090695 
1.11076 0.15944 -0.0162691 1.08825 0.0878937 -0.0440612 1.08092 0.00215693 -0.0481952 
1.07802 -0.0726489 -0.0299288 1.04066 -0.125174 -0.0187675 0.967364 -0.165872 -0.0274348 
-1.06199 0.514471 0.000541748 -1.07529 0.493039 0.0207569 -1.09438 0.414954 0.0505428 
-1.13199 0.308106 0.0721258 -1.15693 0.212136 0.0820802 -1.1374 0.129482 0.0866352 
-1.09381 0.0392545 0.0825169 -1.0607 -0.0552517 0.0657422 -1.03791 -0.132341 0.0430558 
-0.47868 -0.0721359 -0.221039 -0.426007 -0.0434759 -0.214164 -0.334471 -0.0673029 -0.214648 
-0.367986 -0.0173116 -0.205398 -0.267266 -0.0357888 -0.200915 -0.184723 -0.0574822 -0.206904 
-0.29941 0.00877581 -0.192562 -0.193122 -0.00712777 -0.18338 -0.104802 -0.0242025 -0.18705 
-0.0349544 -0.0439751 -0.202969 -0.212591 0.040982 -0.174149 -0.108951 0.0250639 -0.166232 
-0.0163395 0.00988882 -0.165354 0.0560762 -0.00613588 -0.179809 0.118053 -0.0222855 -0.196029 
-0.116131 0.0763124 -0.154668 -0.0157358 0.0644618 -0.152317 0.076753 0.0511945 -0.149992 
0.150847 0.036335 -0.15943 0.210564 0.0207128 -0.17585 0.263557 0.00415207 -0.186214 
-0.0250878 0.108017 -0.139379 0.074492 0.103876 -0.14228 0.166134 0.097156 -0.142059 
0.241141 0.0855357 -0.146726 0.298475 0.0686532 -0.159787 0.345542 0.0487853 -0.173118 
0.384641 0.0261383 -0.182015 0.060614 0.138289 -0.127378 0.156184 0.140128 -0.13336 
0.243817 0.140832 -0.137218 0.318519 0.135844 -0.140472 0.376597 0.121123 -0.148306 
0.420892 0.0983802 -0.160004 0.455993 0.0715315 -0.171372 0.481541 0.0419685 -0.18295 
-0.684079 -0.0299584 -0.19446 -0.758472 0.0201863 -0.167418 -0.655455 -0.00699566 -0.198549 
-0.822744 0.0816702 -0.141413 -0.732896 0.0443071 -0.174054 -0.61903 0.0141715 -0.204621 
-0.884913 0.14298 -0.117389 -0.793358 0.107512 -0.14384 -0.695805 0.0645342 -0.181159 
-0.565139 0.0351465 -0.203164 -0.946813 0.195554 -0.0914665 -0.848175 0.168358 -0.11434 
-0.754713 0.126778 -0.15148 -0.64084 0.0819595 -0.182626 -0.48682 0.0579947 -0.18808 
-0.991006 0.247241 -0.0655168 -0.897558 0.221024 -0.0896641 -0.807908 0.189349 -0.129658 
[...]
POINT_DATA 1002
FIELD FieldData 4
_paraPhi 1 1002 double
6.2831853072 3.1415926536 6.2831853072 3.1415926536 4.7123889804 4.7123889804 1.5707963268 1.5707963268 3.6951670125 
5.7296109483 2.5880182947 0.5535743589 6.2831853072 6.2831853072 6.2831853072 6.2831853072 3.1415926536 3.1415926536 
3.1415926536 3.1415926536 3.1415926536 6.1053039672 5.898798347 5.6768734901 5.4599499503 5.2659633393 5.1032165617 
4.9713148346 4.8656852733 4.7809517865 0.17788134 0.38438696014 0.60631181711 0.82323535693 1.0172219679 1.1799687454 
1.3118704726 1.4175000338 1.5022335207 6.1892828907 6.1070320098 6.035312792 5.9728339911 5.9183214791 5.8706119594 
5.8286879411 5.7916808611 5.7588591896 0.093902416448 0.17615329733 0.2478725152 0.31035131605 0.36486382811 0.41257334776 
0.45449736604 0.4915044461 0.52432611754 3.3194739936 3.5259796137 3.7479044707 3.9648280105 4.1588146215 4.321561399 
4.4534631262 4.5590926874 4.6438261743 2.9637113136 2.7572056934 2.5352808365 2.3183572967 2.1243706857 1.9616239082 
1.829722181 1.7240926197 1.6393591329 3.23549507 3.3177459509 3.3894651688 3.4519439696 3.5064564817 3.5541660013 
3.5960900196 3.6330970997 3.6659187711 3.0476902371 2.9654393563 2.8937201384 2.8312413375 2.7767288255 2.7290193058 
2.6870952876 2.6500882075 2.617266536 6.2831853072 6.2831853072 6.2831853072 6.2831853072 3.1415926536 3.1415926536 
3.1415926536 3.1415926536 3.1415926536 6.1053039672 5.898798347 5.6768734901 5.4599499503 5.2659633393 5.1032165617 
4.9713148346 4.8656852733 4.7809517865 0.17788134 0.38438696014 0.60631181711 0.82323535693 1.0172219679 1.1799687454 
1.3118704726 1.4175000338 1.5022335207 6.1892828907 6.1070320098 6.035312792 5.9728339911 5.9183214791 5.8706119594 
5.8286879411 5.7916808611 5.7588591896 0.093902416448 0.17615329733 0.2478725152 0.31035131605 0.36486382811 0.41257334776 
0.45449736604 0.4915044461 0.52432611754 3.3194739936 3.5259796137 3.7479044707 3.9648280105 4.1588146215 4.321561399 
4.4534631262 4.5590926874 4.6438261743 2.9637113136 2.7572056934 2.5352808365 2.3183572967 2.1243706857 1.9616239082 
1.829722181 1.7240926197 1.6393591329 3.23549507 3.3177459509 3.3894651688 3.4519439696 3.5064564817 3.5541660013 
3.5960900196 3.6330970997 3.6659187711 3.0476902371 2.9654393563 2.8937201384 2.8312413375 2.7767288255 2.7290193058 
2.6870952876 2.6500882075 2.617266536 4.7123889804 4.7123889804 4.7123889804 4.7123889804 4.7123889804 4.7123889804 
4.7123889804 4.7123889804 4.7123889804 4.6087898617 4.4991390697 4.3857031936 4.2712800401 4.1588146215 4.0509635631 
3.94975894 3.8564636551 3.7716124825 4.8159880991 4.9256388911 5.0390747672 5.1534979207 5.2659633393 5.3738143976 
5.4750190208 5.5683143056 5.6531654782 4.6087898617 4.4991390697 4.3857031936 4.2712800401 4.1588146215 4.0509635631 
3.94975894 3.8564636551 3.7716124825 4.8159880991 4.9256388911 5.0390747672 5.1534979207 5.2659633393 5.3738143976 
5.4750190208 5.5683143056 5.6531654782 1.5707963268 1.5707963268 1.5707963268 1.5707963268 1.5707963268 1.5707963268 
1.5707963268 1.5707963268 1.5707963268 1.6743954455 1.7840462375 1.8974821136 2.0119052671 2.1243706857 2.232221744 
2.3334263672 2.426721652 2.5115728246 1.4671972081 1.3575464161 1.24411054 1.1296873865 1.0172219679 0.90937090954 
0.80816628637 0.71487100155 0.63001982895 1.6743954455 1.7840462375 1.8974821136 2.0119052671 2.1243706857 2.232221744 
2.3334263672 2.426721652 2.5115728246 1.4671972081 1.3575464161 1.24411054 1.1296873865 1.0172219679 0.90937090954 
0.80816628637 0.71487100155 0.63001982895 3.6007720849 3.4966939854 3.3839471039 3.2645756454 3.1415926536 3.0186096618 
2.8992382033 2.7864913217 2.6824132222 5.8240058758 5.9280839753 6.0408308569 6.1602023154 6.2831853072 0.12298299178 
0.2423544503 0.35510133185 0.45917943135 6.0560271438 5.7885595667 5.9702140275 5.5125918794 5.6029703303 5.7885595667 
5.2659633393 5.2659633393 5.2659633393 5.2659633393 5.0674903122 5.0120975802 4.9155579264 4.7123889804 4.1588146215 
4.9155579264 4.8353719722 4.7123889804 4.5092200343 4.1588146215 3.6362183941 4.8004512023 4.7123889804 4.5894059886 
4.4126803806 4.1588146215 3.8218076305 3.4545639333 4.7123889804 4.6243267584 4.5092200343 4.3572876485 4.1588146215 
3.9121860814 3.6362183941 3.368750817 6.0174235957 5.9434319871 5.8263323547 5.8809213739 5.7674481418 5.6279784266 
5.8278025282 5.718968232 5.5891129425 5.4372443565 5.7823484065 5.678536687 5.5575666702 5.4192596322 5.2659633393 
5.743164462 5.6444075337 5.5314983644 5.4046708639 5.2659633393 5.1195510325 5.7091357773 5.6152775188 5.5096229709 
5.3926039573 5.2659633393 5.1329233157 4.9978930058 5.6793730533 5.5901633916 5.4910209005 5.3824597928 5.2659633393 
5.1440684722 5.0201624502 4.8979782167 5.5683143056 5.4750190208 5.4750190208 5.3738143976 5.3738143976 5.3738143976 
5.2659633393 5.2659633393 5.2659633393 5.2659633393 5.1534979207 5.1534979207 5.1534979207 5.1534979207 5.1534979207 
5.0390747672 5.0390747672 5.0390747672 5.0390747672 5.0390747672 5.0390747672 4.9256388911 4.9256388911 4.9256388911 
4.9256388911 4.9256388911 4.9256388911 4.9256388911 4.8159880991 4.8159880991 4.8159880991 4.8159880991 4.8159880991 
4.8159880991 4.8159880991 4.8159880991 4.6087898617 4.6087898617 4.4991390697 4.6087898617 4.4991390697 4.3857031936 
4.6087898617 4.4991390697 4.3857031936 4.2712800401 4.6087898617 4.4991390697 4.3857031936 4.2712800401 4.1588146215 
4.6087898617 4.4991390697 4.3857031936 4.2712800401 4.1588146215 4.0509635631 4.6087898617 4.4991390697 4.3857031936 
4.2712800401 4.1588146215 4.0509635631 3.94975894 4.6087898617 4.4991390697 4.3857031936 4.2712800401 4.1588146215 
4.0509635631 3.94975894 3.8564636551 4.526799744 4.4046155105 4.426884955 4.2807094886 4.2918546451 4.3052269283 
4.1588146215 4.1588146215 4.1588146215 4.1588146215 4.042318168 4.0321740035 4.0201070968 4.0055183285 3.9875336042 
3.9337570603 3.9151549899 3.8932795963 3.8672112905 3.8356650183 3.7967995342 3.8346145692 3.809500442 3.7803704271 
3.7462412737 3.7058097288 3.657329819 3.5984456061 3.7454049075 3.7156421835 3.6816134988 3.6424295543 3.5969754326 
3.5438565869 3.4813459737 3.4073543651 3.5642842451 3.4524645613 3.5233842518 3.3320300872 3.403123212 3.4773852225 
3.20576226 3.2746326772 3.348015857 3.4255060145 3.0774230472 3.1415926536 3.2112816139 3.2864685043 3.3668817272 
2.95115522 3.00855263 3.0719036933 3.1415926536 3.2178377658 3.3005964304 2.8307207459 2.8800620952 2.9351694502 
2.9967168029 3.0653475414 3.1415926536 3.225752376 2.718901062 2.7598010554 2.8058000847 2.8576792927 2.91630358 
2.9825888767 3.0574329311 3.1415926536 3.5642842451 3.5233842518 3.4524645613 3.4773852225 3.403123212 3.3320300872 
3.4255060145 3.348015857 3.2746326772 3.20576226 3.3668817272 3.2864685043 3.2112816139 3.1415926536 3.0774230472 
3.3005964304 3.2178377658 3.1415926536 3.0719036933 3.00855263 2.95115522 3.225752376 3.1415926536 3.0653475414 
2.9967168029 2.9351694502 2.8800620952 2.8307207459 3.1415926536 3.0574329311 2.9825888767 2.91630358 2.8576792927 
2.8058000847 2.7598010554 2.718901062 4.526799744 4.426884955 4.4046155105 4.3052269283 4.2918546451 4.2807094886 
4.1588146215 4.1588146215 4.1588146215 4.1588146215 3.9875336042 4.0055183285 4.0201070968 4.0321740035 4.042318168 
3.7967995342 3.8356650183 3.8672112905 3.8932795963 3.9151549899 3.9337570603 3.5984456061 3.657329819 3.7058097288 
3.7462412737 3.7803704271 3.809500442 3.8346145692 3.4073543651 3.4813459737 3.5438565869 3.5969754326 3.6424295543 
3.6816134988 3.7156421835 3.7454049075 4.7123889804 4.8004512023 4.6243267584 4.9155579264 4.7123889804 4.5092200343 
5.0674903122 4.8353719722 4.5894059886 4.3572876485 5.2659633393 5.0120975802 4.7123889804 4.4126803806 4.1588146215 
5.5125918794 5.2659633393 4.9155579264 4.5092200343 4.1588146215 3.9121860814 5.7885595667 5.6029703303 5.2659633393 
4.7123889804 4.1588146215 3.8218076305 3.6362183941 6.0560271438 5.9702140275 5.7885595667 5.2659633393 4.1588146215 
3.6362183941 3.4545639333 3.368750817 0.22715816343 0.49462574053 0.3129712797 0.77059342779 0.68021497688 0.49462574053 
1.0172219679 1.0172219679 1.0172219679 1.0172219679 1.2156949949 1.271087727 1.3676273807 1.5707963268 2.1243706857 
1.3676273807 1.447813335 1.5707963268 1.7739652728 2.1243706857 2.6469669131 1.4827341049 1.5707963268 1.6937793186 
1.8705049266 2.1243706857 2.4613776767 2.8286213739 1.5707963268 1.6588585487 1.7739652728 1.9258976586 2.1243706857 
2.3709992258 2.6469669131 2.9144344902 1.7563855631 1.8785697967 1.8563003522 2.0024758186 1.9913306621 1.9779583789 
2.1243706857 2.1243706857 2.1243706857 2.1243706857 2.2408671392 2.2510113037 2.2630782103 2.2776669786 2.295651703 
2.3494282469 2.3680303173 2.3899057108 2.4159740166 2.4475202889 2.486385773 2.448570738 2.4736848652 2.5028148801 
2.5369440334 2.5773755784 2.6258554882 2.6847397011 2.5377803997 2.5675431237 2.6015718084 2.6407557529 2.6862098746 
2.7393287203 2.8018393335 2.8758309421 1.6743954455 1.6743954455 1.7840462375 1.6743954455 1.7840462375 1.8974821136 
1.6743954455 1.7840462375 1.8974821136 2.0119052671 1.6743954455 1.7840462375 1.8974821136 2.0119052671 2.1243706857 
1.6743954455 1.7840462375 1.8974821136 2.0119052671 2.1243706857 2.232221744 1.6743954455 1.7840462375 1.8974821136 
2.0119052671 2.1243706857 2.232221744 2.3334263672 1.6743954455 1.7840462375 1.8974821136 2.0119052671 2.1243706857 
2.232221744 2.3334263672 2.426721652 1.4671972081 1.3575464161 1.4671972081 1.24411054 1.3575464161 1.4671972081 
1.1296873865 1.24411054 1.3575464161 1.4671972081 1.0172219679 1.1296873865 1.24411054 1.3575464161 1.4671972081 
0.90937090954 1.0172219679 1.1296873865 1.24411054 1.3575464161 1.4671972081 0.80816628637 0.90937090954 1.0172219679 
1.1296873865 1.24411054 1.3575464161 1.4671972081 0.71487100155 0.80816628637 0.90937090954 1.0172219679 1.1296873865 
1.24411054 1.3575464161 1.4671972081 0.60381225391 0.57404952988 0.69302191562 0.54002084522 0.66790778838 0.79216440667 
0.50083690068 0.63877777351 0.77356233629 0.90072551443 0.45538277901 0.60464862014 0.75168694275 0.89058134991 1.0172219679 
0.40226393329 0.56421707518 0.72561863695 0.87851444325 1.0172219679 1.139116835 0.33975332011 0.51573716537 0.69407236469 
0.86392567495 1.0172219679 1.1502619915 1.2630228569 0.26576171152 0.45685295248 0.6552068806 0.84594095064 1.0172219679 
1.1636342747 1.2852923014 1.3852070904 0.22715816343 0.3129712797 0.49462574053 0.49462574053 0.68021497688 0.77059342779 
1.0172219679 1.0172219679 1.0172219679 1.0172219679 2.1243706857 1.5707963268 1.3676273807 1.271087727 1.2156949949 
2.6469669131 2.1243706857 1.7739652728 1.5707963268 1.447813335 1.3676273807 2.8286213739 2.4613776767 2.1243706857 
1.8705049266 1.6937793186 1.5707963268 1.4827341049 2.9144344902 2.6469669131 2.3709992258 2.1243706857 1.9258976586 
1.7739652728 1.6588585487 1.5707963268 1.7563855631 1.8563003522 1.8785697967 1.9779583789 1.9913306621 2.0024758186 
2.1243706857 2.1243706857 2.1243706857 2.1243706857 2.295651703 2.2776669786 2.2630782103 2.2510113037 2.2408671392 
2.486385773 2.4475202889 2.4159740166 2.3899057108 2.3680303173 2.3494282469 2.6847397011 2.6258554882 2.5773755784 
2.5369440334 2.5028148801 2.4736848652 2.448570738 2.8758309421 2.8018393335 2.7393287203 2.6862098746 2.6407557529 
2.6015718084 2.5675431237 2.5377803997 5.8604937156 5.901393709 5.9723133995 5.9473927383 6.0216547488 6.0927478736 
5.9992719463 6.0767621038 6.1501452836 6.2190157008 6.0578962336 6.1383094565 6.2134963469 0 0.064169606361 
6.1241815303 6.206940195 6.2831853072 0.069688960264 0.13304002361 0.19043743361 6.1990255847 0 0.07624511221 
0.14487585072 0.20642320337 0.26153055843 0.3108719077 0 0.084159722458 0.15900377685 0.22528907359 0.28391336087 
0.3357925689 0.38179159818 0.42269159155 5.8604937156 5.9723133995 5.901393709 6.0927478736 6.0216547488 5.9473927383 
6.2190157008 6.1501452836 6.0767621038 5.9992719463 0.064169606361 0 6.2134963469 6.1383094565 6.0578962336 
0.19043743361 0.13304002361 0.069688960264 6.2831853072 6.206940195 6.1241815303 0.3108719077 0.26153055843 0.20642320337 
0.14487585072 0.07624511221 6.2831853072 6.1990255847 0.42269159155 0.38179159818 0.3357925689 0.28391336087 0.22528907359 
0.15900377685 0.084159722458 0 5.6793730533 5.7091357773 5.5901633916 5.743164462 5.6152775188 5.4910209005 
5.7823484065 5.6444075337 5.5096229709 5.3824597928 5.8278025282 5.678536687 5.5314983644 5.3926039573 5.2659633393 
5.8809213739 5.718968232 5.5575666702 5.4046708639 5.2659633393 5.1440684722 5.9434319871 5.7674481418 5.5891129425 
5.4192596322 5.2659633393 5.1329233157 5.0201624502 6.0174235957 5.8263323547 5.6279784266 5.4372443565 5.2659633393 
5.1195510325 4.9978930058 4.8979782167 1.3852070904 1.2852923014 1.2630228569 1.1636342747 1.1502619915 1.139116835 
1.0172219679 1.0172219679 1.0172219679 1.0172219679 0.84594095064 0.86392567495 0.87851444325 0.89058134991 0.90072551443 
0.6552068806 0.69407236469 0.72561863695 0.75168694275 0.77356233629 0.79216440667 0.45685295248 0.51573716537 0.56421707518 
0.60464862014 0.63877777351 0.66790778838 0.69302191562 0.26576171152 0.33975332011 0.40226393329 0.45538277901 0.50083690068 
0.54002084522 0.57404952988 0.60381225391 
_paraPhiHalf 1 1002 double
0 3.1415926536 0 3.1415926536 1.5707963268 1.5707963268 1.5707963268 1.5707963268 2.5880182947 
0.5535743589 2.5880182947 0.5535743589 0 0 0 0 3.1415926536 3.1415926536 
3.1415926536 3.1415926536 3.1415926536 0.17788134 0.38438696014 0.60631181711 0.82323535693 1.0172219679 1.1799687454 
1.3118704726 1.4175000338 1.5022335207 0.17788134 0.38438696014 0.60631181711 0.82323535693 1.0172219679 1.1799687454 
1.3118704726 1.4175000338 1.5022335207 0.093902416448 0.17615329733 0.2478725152 0.31035131605 0.36486382811 0.41257334776 
0.45449736604 0.4915044461 0.52432611754 0.093902416448 0.17615329733 0.2478725152 0.31035131605 0.36486382811 0.41257334776 
0.45449736604 0.4915044461 0.52432611754 2.9637113136 2.7572056934 2.5352808365 2.3183572967 2.1243706857 1.9616239082 
1.829722181 1.7240926197 1.6393591329 2.9637113136 2.7572056934 2.5352808365 2.3183572967 2.1243706857 1.9616239082 
1.829722181 1.7240926197 1.6393591329 3.0476902371 2.9654393563 2.8937201384 2.8312413375 2.7767288255 2.7290193058 
2.6870952876 2.6500882075 2.617266536 3.0476902371 2.9654393563 2.8937201384 2.8312413375 2.7767288255 2.7290193058 
2.6870952876 2.6500882075 2.617266536 0 0 0 0 3.1415926536 3.1415926536 
3.1415926536 3.1415926536 3.1415926536 0.17788134 0.38438696014 0.60631181711 0.82323535693 1.0172219679 1.1799687454 
1.3118704726 1.4175000338 1.5022335207 0.17788134 0.38438696014 0.60631181711 0.82323535693 1.0172219679 1.1799687454 
1.3118704726 1.4175000338 1.5022335207 0.093902416448 0.17615329733 0.2478725152 0.31035131605 0.36486382811 0.41257334776 
0.45449736604 0.4915044461 0.52432611754 0.093902416448 0.17615329733 0.2478725152 0.31035131605 0.36486382811 0.41257334776 
0.45449736604 0.4915044461 0.52432611754 2.9637113136 2.7572056934 2.5352808365 2.3183572967 2.1243706857 1.9616239082 
1.829722181 1.7240926197 1.6393591329 2.9637113136 2.7572056934 2.5352808365 2.3183572967 2.1243706857 1.9616239082 
1.829722181 1.7240926197 1.6393591329 3.0476902371 2.9654393563 2.8937201384 2.8312413375 2.7767288255 2.7290193058 
2.6870952876 2.6500882075 2.617266536 3.0476902371 2.9654393563 2.8937201384 2.8312413375 2.7767288255 2.7290193058 
2.6870952876 2.6500882075 2.617266536 1.5707963268 1.5707963268 1.5707963268 1.5707963268 1.5707963268 1.5707963268 
1.5707963268 1.5707963268 1.5707963268 1.6743954455 1.7840462375 1.8974821136 2.0119052671 2.1243706857 2.232221744 
2.3334263672 2.426721652 2.5115728246 1.4671972081 1.3575464161 1.24411054 1.1296873865 1.0172219679 0.90937090954 
0.80816628637 0.71487100155 0.63001982895 1.6743954455 1.7840462375 1.8974821136 2.0119052671 2.1243706857 2.232221744 
2.3334263672 2.426721652 2.5115728246 1.4671972081 1.3575464161 1.24411054 1.1296873865 1.0172219679 0.90937090954 
0.80816628637 0.71487100155 0.63001982895 1.5707963268 1.5707963268 1.5707963268 1.5707963268 1.5707963268 1.5707963268 
1.5707963268 1.5707963268 1.5707963268 1.6743954455 1.7840462375 1.8974821136 2.0119052671 2.1243706857 2.232221744 
2.3334263672 2.426721652 2.5115728246 1.4671972081 1.3575464161 1.24411054 1.1296873865 1.0172219679 0.90937090954 
0.80816628637 0.71487100155 0.63001982895 1.6743954455 1.7840462375 1.8974821136 2.0119052671 2.1243706857 2.232221744 
2.3334263672 2.426721652 2.5115728246 1.4671972081 1.3575464161 1.24411054 1.1296873865 1.0172219679 0.90937090954 
0.80816628637 0.71487100155 0.63001982895 2.6824132222 2.7864913217 2.8992382033 3.0186096618 3.1415926536 3.0186096618 
2.8992382033 2.7864913217 2.6824132222 0.45917943135 0.35510133185 0.2423544503 0.12298299178 0 0.12298299178 
0.2423544503 0.35510133185 0.45917943135 0.22715816343 0.49462574053 0.3129712797 0.77059342779 0.68021497688 0.49462574053 
1.0172219679 1.0172219679 1.0172219679 1.0172219679 1.2156949949 1.271087727 1.3676273807 1.5707963268 2.1243706857 
1.3676273807 1.447813335 1.5707963268 1.7739652728 2.1243706857 2.6469669131 1.4827341049 1.5707963268 1.6937793186 
1.8705049266 2.1243706857 2.4613776767 2.8286213739 1.5707963268 1.6588585487 1.7739652728 1.9258976586 2.1243706857 
2.3709992258 2.6469669131 2.9144344902 0.26576171152 0.33975332011 0.45685295248 0.40226393329 0.51573716537 0.6552068806 
0.45538277901 0.56421707518 0.69407236469 0.84594095064 0.50083690068 0.60464862014 0.72561863695 0.86392567495 1.0172219679 
0.54002084522 0.63877777351 0.75168694275 0.87851444325 1.0172219679 1.1636342747 0.57404952988 0.66790778838 0.77356233629 
0.89058134991 1.0172219679 1.1502619915 1.2852923014 0.60381225391 0.69302191562 0.79216440667 0.90072551443 1.0172219679 
1.139116835 1.2630228569 1.3852070904 0.71487100155 0.80816628637 0.80816628637 0.90937090954 0.90937090954 0.90937090954 
1.0172219679 1.0172219679 1.0172219679 1.0172219679 1.1296873865 1.1296873865 1.1296873865 1.1296873865 1.1296873865 
1.24411054 1.24411054 1.24411054 1.24411054 1.24411054 1.24411054 1.3575464161 1.3575464161 1.3575464161 
1.3575464161 1.3575464161 1.3575464161 1.3575464161 1.4671972081 1.4671972081 1.4671972081 1.4671972081 1.4671972081 
1.4671972081 1.4671972081 1.4671972081 1.6743954455 1.6743954455 1.7840462375 1.6743954455 1.7840462375 1.8974821136 
1.6743954455 1.7840462375 1.8974821136 2.0119052671 1.6743954455 1.7840462375 1.8974821136 2.0119052671 2.1243706857 
1.6743954455 1.7840462375 1.8974821136 2.0119052671 2.1243706857 2.232221744 1.6743954455 1.7840462375 1.8974821136 
2.0119052671 2.1243706857 2.232221744 2.3334263672 1.6743954455 1.7840462375 1.8974821136 2.0119052671 2.1243706857 
2.232221744 2.3334263672 2.426721652 1.7563855631 1.8785697967 1.8563003522 2.0024758186 1.9913306621 1.9779583789 
2.1243706857 2.1243706857 2.1243706857 2.1243706857 2.2408671392 2.2510113037 2.2630782103 2.2776669786 2.295651703 
2.3494282469 2.3680303173 2.3899057108 2.4159740166 2.4475202889 2.486385773 2.448570738 2.4736848652 2.5028148801 
2.5369440334 2.5773755784 2.6258554882 2.6847397011 2.5377803997 2.5675431237 2.6015718084 2.6407557529 2.6862098746 
2.7393287203 2.8018393335 2.8758309421 2.718901062 2.8307207459 2.7598010554 2.95115522 2.8800620952 2.8058000847 
3.0774230472 3.00855263 2.9351694502 2.8576792927 3.0774230472 3.1415926536 3.0719036933 2.9967168029 2.91630358 
2.95115522 3.00855263 3.0719036933 3.1415926536 3.0653475414 2.9825888767 2.8307207459 2.8800620952 2.9351694502 
2.9967168029 3.0653475414 3.1415926536 3.0574329311 2.718901062 2.7598010554 2.8058000847 2.8576792927 2.91630358 
2.9825888767 3.0574329311 3.1415926536 2.718901062 2.7598010554 2.8307207459 2.8058000847 2.8800620952 2.95115522 
2.8576792927 2.9351694502 3.00855263 3.0774230472 2.91630358 2.9967168029 3.0719036933 3.1415926536 3.0774230472 
2.9825888767 3.0653475414 3.1415926536 3.0719036933 3.00855263 2.95115522 3.0574329311 3.1415926536 3.0653475414 