# vtk DataFile Version 5.1
vtk output
ASCII
DATASET POLYDATA
POINTS 1002 float
-12.5191 0.107644 -3.07161 13.341 0.93358 -4.23194 -11.6837 1.8254 3.48731 
11.4585 -0.834321 4.34827 1.40315 7.9737 -2.73151 0.37554 7.68449 1.91318 
1.06343 0.273175 -0.349208 2.96081 -0.939642 1.73661 19.1962 2.61971 -0.462129 
-17.8171 0.747002 -0.864981 16.6538 -9.74003 -0.489436 -19.9177 -9.83652 0.518695 
-10.6967 0.82242 -2.72071 -8.53674 1.52695 -2.42017 -6.13627 2.29213 -2.12152 
-3.46754 3.00947 -1.88462 -0.372079 3.3707 -1.9605 3.1155 3.20519 -2.52025 
6.59384 2.68373 -3.36568 9.57987 2.07403 -4.07568 11.8222 1.49203 -4.36559 
-11.7935 0.854414 -2.92333 -10.9443 1.62341 -2.70135 -9.91741 2.50207 -2.43055 
-8.56278 3.5355 -2.19348 -6.83581 4.60495 -2.08719 -4.9464 5.53793 -2.11713 
-3.12919 6.29056 -2.21324 -1.44261 6.92204 -2.34957 0.0947157 7.48063 -2.53612 
-12.0955 -0.198758 -2.91566 -11.4823 -0.497401 -2.7462 -10.6329 -0.666706 -2.57824 
-9.53736 -0.634137 -2.31104 -8.21179 -0.477052 -1.89166 -6.68422 -0.294963 -1.43566 
-4.99302 -0.0735826 -1.0384 -3.14258 0.188247 -0.685403 -1.10632 0.357676 -0.418509 
-13.7034 -0.221113 -3.39035 -14.7783 -0.585801 -3.65708 -15.7433 -0.801281 -3.83101 
-16.6952 -0.715517 -3.92743 -17.693 -0.455931 -3.83808 -18.5105 -0.294653 -3.39147 
-18.7892 -0.255525 -2.68342 -18.5309 -0.123843 -1.99394 -18.1094 0.228866 -1.41853 
-13.9124 -0.954994 -3.40418 -15.1763 -2.30269 -3.69175 -16.2766 -3.82166 -3.66837 
-17.3948 -5.35342 -3.14234 -18.7099 -6.88525 -2.31744 -19.982 -8.40421 -1.62485 
-20.6704 -9.62253 -1.18521 -20.6045 -10.2188 -0.756634 -20.1922 -10.2096 -0.16186 
12.6764 1.75577 -4.307 11.7195 2.60459 -4.22703 10.4302 3.44948 -3.97877 
8.95061 4.27667 -3.66302 7.51278 5.12305 -3.48352 6.17831 5.99951 -3.54812 
4.87039 6.802 -3.69055 3.60499 7.39827 -3.62915 2.45561 7.76405 -3.26733 
13.1325 0.448865 -4.29844 12.8487 -0.0818969 -4.37671 12.3426 -0.600878 -4.34549 
11.5129 -0.95091 -4.05754 10.387 -0.973971 -3.50213 8.93738 -0.688955 -2.81075 
7.07405 -0.289281 -2.0975 4.93601 0.0439898 -1.41093 2.86031 0.236627 -0.805838 
14.1767 0.878244 -3.97878 14.9776 0.84011 -3.67073 15.8253 0.846822 -3.36757 
16.7696 0.923767 -3.1532 17.6866 1.10606 -3.0391 18.359 1.42503 -2.86011 
18.7588 1.83489 -2.42864 19.0292 2.21288 -1.7714 19.2098 2.47119 -1.07231 
14.2872 -0.00390842 -3.80006 14.9641 -1.17012 -3.11334 15.4973 -2.57426 -2.42958 
16.0003 -4.10512 -2.01166 16.4314 -5.55438 -1.90545 16.7111 -6.80925 -1.94931 
16.8702 -7.91093 -1.92022 16.9455 -8.84988 -1.65263 16.8877 -9.49006 -1.13292 
-9.79155 2.29136 3.64359 -7.34817 2.68226 3.6436 -4.36678 2.86599 3.49585 
-1.20285 2.76179 3.36283 1.77777 2.40776 3.39859 4.48583 1.87056 3.5427 
6.88383 1.19284 3.67096 8.83639 0.455534 3.81768 10.3157 -0.237204 4.05871 
-11.0956 2.42744 3.78712 -10.2567 3.13087 4.00208 -9.10262 3.89506 4.00179 
-7.65104 4.62991 3.73091 -6.01768 5.28737 3.30163 -4.4289 5.90748 2.91764 
-3.06411 6.51529 2.66615 -1.87547 7.04785 2.46301 -0.729947 7.4361 2.21156 
-11.0682 1.56698 3.3096 -10.3618 1.29906 3.18668 -9.6022 1.01538 3.18584 
-8.63951 0.761908 3.23965 -7.22627 0.59815 3.155 -5.33997 0.500765 2.8375 
-3.22393 0.362386 2.43065 -1.09119 0.0892355 2.12257 0.988224 -0.350009 1.92725 
-13.0513 1.68761 3.40876 -14.3775 1.53505 3.15366 -15.6475 1.35035 2.70211 
-16.8799 1.12182 2.18706 -18.0028 0.883931 1.72606 -18.7467 0.681536 1.22718 
-18.878 0.524637 0.583791 -18.5308 0.44237 -0.0814177 -18.0905 0.505859 -0.576443 
-13.0894 1.13589 3.13621 -14.7386 0.285126 2.77767 -16.7285 -0.863869 2.45873 
-18.8506 -2.42669 2.18489 -20.6315 -4.32172 2.01074 -21.6451 -6.25186 1.97561 
-21.7808 -7.88388 1.93043 -21.2842 -9.01668 1.65788 -20.5635 -9.63069 1.13554 
11.1914 0.06586 4.05623 10.6414 1.02321 3.7534 9.74546 2.06108 3.49671 
8.52054 3.17495 3.30368 7.05815 4.27449 3.14828 5.50203 5.26034 2.99249 
3.98745 6.10682 2.81375 2.60082 6.80629 2.58359 1.39317 7.33132 2.27389 
10.9708 -1.35984 4.36496 10.4993 -1.82702 4.17899 10.0453 -2.16925 3.82572 
9.49336 -2.38454 3.47428 8.73191 -2.52232 3.22802 7.83065 -2.54972 2.98188 
6.92924 -2.35006 2.61094 5.94761 -1.90794 2.18319 4.6469 -1.37437 1.86633 
12.4491 -0.796857 4.40783 13.4734 -0.643315 4.39076 14.3727 -0.300343 4.35799 
15.1929 0.282765 4.2408 16.2292 0.949057 3.80516 17.5423 1.41753 2.96336 
18.7068 1.65484 1.95 19.3199 1.88388 1.02468 19.4036 2.2297 0.236739 
12.1592 -1.78064 4.6703 12.8992 -2.82761 4.79152 13.8714 -3.88101 4.42584 
15.1014 -4.90224 3.5744 16.3252 -5.97365 2.67233 17.2124 -7.11169 2.07438 
17.6131 -8.13756 1.61434 17.5466 -8.89479 0.999192 17.1516 -9.40568 0.242995 
1.44046 8.39492 -2.48114 1.3232 8.91955 -2.17436 1.02028 9.50852 -1.70598 
0.66323 9.94002 -1.03567 0.484183 9.92649 -0.33608 0.546473 9.44989 0.180811 
0.654395 8.82033 0.554766 0.626178 8.31965 0.96676 0.491176 7.97565 1.45413 
3.17221 8.25044 -3.14483 4.8812 8.23716 -3.18812 6.72166 7.85909 -2.86234 
8.90411 7.27159 -2.4729 11.336 6.62274 -2.2302 13.6943 5.85943 -2.02594 
15.7298 4.9719 -1.73416 17.3211 4.10788 -1.37213 18.4457 3.3413 -0.952258 
-0.574558 7.79065 -1.99218 -3.0142 7.54875 -1.33668 -5.74589 7.28273 -1.02074 
-8.44638 6.86061 -0.918789 -10.9593 6.12764 -0.685214 -13.2897 5.14403 -0.306632 
-15.2515 4.08332 -0.107832 -16.5737 2.99622 -0.246726 -17.3165 1.86523 -0.571357 
2.05019 7.65461 1.85874 3.88063 7.53439 1.81787 5.9608 7.34566 1.74959 
8.24541 7.02574 1.63802 10.5767 6.42024 1.42612 12.8722 5.51559 1.04919 
15.0841 4.55658 0.570522 17.0127 3.77533 0.1327 18.406 3.17063 -0.202714 
-1.37617 7.78989 1.80901 -3.58583 7.79165 1.95597 -6.1842 7.71613 2.3442 
-8.67214 7.47151 2.61069 -10.6989 6.80972 2.41251 -12.5706 5.67677 1.89436 
-14.538 4.38077 1.34444 -16.2089 3.16421 0.72075 -17.2326 1.97502 -0.0690338 
1.45962 0.105085 -0.181962 1.95882 -0.0974466 -0.110007 2.48235 -0.404398 -0.131515 
2.93999 -0.793973 -0.145882 3.27575 -1.139 -0.0187971 3.43551 -1.33305 0.308541 
3.38747 -1.36753 0.765867 3.20909 -1.28395 1.20715 3.04166 -1.1277 1.53072 
4.49666 -0.412907 -0.870933 7.83074 -2.08322 -1.76215 10.2023 -4.28039 -2.69576 
11.555 -6.24127 -3.40376 12.6578 -7.75961 -3.77617 13.8141 -9.10963 -3.63835 
14.6197 -10.1609 -2.90251 15.0758 -10.5122 -1.89361 15.6854 -10.2288 -1.05001 
-1.91042 0.0328996 -0.156895 -4.66572 -0.79272 -0.415052 -7.24817 -1.80297 -0.891002 
-10.0336 -2.72965 -1.15431 -13.0565 -3.83373 -1.06422 -15.6522 -5.39768 -0.840239 
-17.2619 -7.10796 -0.60355 -18.1527 -8.45421 -0.274863 -18.9464 -9.31393 0.140759 
5.79688 -2.09322 1.54801 7.94175 -3.68176 1.33238 9.28181 -5.28519 1.0779 
10.2641 -6.54485 0.858441 11.3287 -7.50867 0.712826 12.4312 -8.41969 0.562397 
13.4322 -9.26773 0.357275 14.4513 -9.82393 0.123953 15.5742 -9.96106 -0.14874 
-0.500248 -0.476576 1.92593 -4.36909 -0.720986 2.21636 -7.67222 -1.48605 2.2802 
-10.1914 -2.24839 1.84847 -12.7666 -2.96491 1.1822 -15.6951 -4.17778 0.845827 
-17.981 -5.96865 0.940661 -18.9892 -7.7148 1.06317 -19.3565 -8.97839 0.912304 
19.7662 1.71053 -0.227324 20.0766 0.537034 0.101297 20.1159 -0.799882 0.428863 
19.8467 -2.22391 0.61545 19.4768 -3.89545 0.530837 19.4063 -5.80851 0.168472 
19.4968 -7.47354 -0.253826 19.0933 -8.53817 -0.476062 17.994 -9.19767 -0.489068 
-18.5413 -0.807324 -1.34147 -19.7165 -2.44654 -1.40043 -21.323 -3.92633 -0.994611 
-22.7673 -5.45903 -0.546476 -23.5955 -7.51567 -0.473142 -23.9294 -9.74358 -0.587942 
-23.746 -11.0636 -0.452934 -22.7736 -11.1247 -0.0491509 -21.2724 -10.5331 0.332654 
-9.80805 1.5716 -2.59887 -8.78894 2.38106 -2.42317 -7.47817 2.29845 -2.29823 
-7.52521 3.32424 -2.21428 -6.21623 3.13305 -2.18837 -4.83636 3.02679 -2.06812 
-5.87712 4.35062 -2.10275 -4.61502 4.04537 -2.1734 -3.2222 3.75374 -2.18614 
-1.82862 3.55883 -2.08305 -3.94673 5.28739 -2.23433 -2.68607 4.94165 -2.39596 
-1.28194 4.49062 -2.53471 0.110675 4.04844 -2.5371 1.53488 3.66343 -2.46481 
-2.03694 6.05483 -2.56553 -0.727526 5.71834 -2.86076 0.719359 5.20647 -3.05737 
2.14102 4.57265 -3.10898 3.52342 3.95548 -3.06586 4.99743 3.35869 -3.11092 
-0.31877 6.70847 -2.90919 0.984395 6.37824 -3.33482 2.42898 5.84905 -3.53126 
3.88494 5.12737 -3.5481 5.29578 4.34486 -3.51751 6.71782 3.59801 -3.57243 
8.17421 2.85572 -3.7777 1.19059 7.28528 -3.14808 2.41819 6.94584 -3.59709 
3.77566 6.38599 -3.74335 5.17985 5.61978 -3.67972 6.60151 4.76766 -3.64427 
8.06195 3.9343 -3.76453 9.49405 3.12408 -3.99254 10.7713 2.3087 -4.22105 
-13.0009 0.616316 -3.10624 -14.0859 0.413271 -3.20829 -12.1311 1.50009 -2.73341 
-15.0744 0.428637 -3.30024 -13.1732 1.47966 -2.71199 -10.9904 2.52064 -2.40322 
-16.0956 0.698609 -3.40135 -14.154 1.67157 -2.74803 -11.9034 2.64358 -2.3877 
-9.44036 3.68598 -2.21875 -17.1184 1.00029 -3.26518 -15.2144 1.99524 -2.73266 
-12.8233 2.88385 -2.36092 -10.2081 3.88853 -2.24598 -7.57289 4.8472 -2.1181 
-17.8047 1.1661 -2.6969 -16.2107 2.27593 -2.35867 -13.8507 3.15929 -2.08911 
-11.0708 4.12652 -2.0844 -8.30996 5.11216 -2.04675 -5.67395 5.83729 -1.9669 
-17.9191 1.29429 -1.90105 -16.7831 2.49643 -1.62243 -14.7465 3.44258 -1.46141 
-12.0306 4.39842 -1.59678 -9.19123 5.39578 -1.7307 -6.47759 6.15567 -1.67998 
-3.87477 6.61064 -1.80453 -17.6505 1.52509 -1.17302 -16.8322 2.73294 -0.851565 
-15.216 3.76332 -0.717164 -12.833 4.74901 -0.929141 -10.1419 5.7292 -1.22962 
-7.42989 6.49015 -1.30523 -4.72694 6.93819 -1.36774 -2.15482 7.23264 -1.80017 
-16.4154 3.03152 0.206879 -14.9514 4.2453 0.838842 -15.2198 4.17964 0.37527 
-13.0695 5.59671 1.37867 -13.4489 5.53466 0.830041 -13.5509 5.40226 0.270389 
-11.1661 6.89908 1.95714 -11.5921 6.92346 1.3511 -11.765 6.8237 0.61774 
-11.5349 6.53304 -0.0900509 -9.11161 7.73917 2.31271 -9.57498 7.92392 1.84995 
-9.89348 7.95134 1.10378 -9.78249 7.73619 0.234428 -9.21977 7.31885 -0.457554 
-6.5131 8.04188 2.11082 -6.91748 8.35144 1.84618 -7.38654 8.56147 1.35334 
-7.56959 8.52394 0.563821 -7.20447 8.19603 -0.215161 -6.47991 7.7268 -0.713228 
-3.68873 8.09907 1.62005 -3.85301 8.45988 1.35063 -4.24058 8.84924 1.06623 
[...]
POINT_DATA 1002
FIELD FieldData 4
_paraPhi 1 1002 double
6.2831853072 3.1415926536 6.2831853072 3.1415926536 4.7123889804 4.7123889804 1.5707963268 1.5707963268 3.6951670125 
5.7296109483 2.5880182947 0.5535743589 6.2831853072 6.2831853072 6.2831853072 6.2831853072 3.1415926536 3.1415926536 
3.1415926536 3.1415926536 3.1415926536 6.1053039672 5.898798347 5.6768734901 5.4599499503 5.2659633393 5.1032165617 
4.9713148346 4.8656852733 4.7809517865 0.17788134 0.38438696014 0.60631181711 0.82323535693 1.0172219679 1.1799687454 
1.3118704726 1.4175000338 1.5022335207 6.1892828907 6.1070320098 6.035312792 5.9728339911 5.9183214791 5.8706119594 
5.8286879411 5.7916808611 5.7588591896 0.093902416448 0.17615329733 0.2478725152 0.31035131605 0.36486382811 0.41257334776 
0.45449736604 0.4915044461 0.52432611754 3.3194739936 3.5259796137 3.7479044707 3.9648280105 4.1588146215 4.321561399 
4.4534631262 4.5590926874 4.6438261743 2.9637113136 2.7572056934 2.5352808365 2.3183572967 2.1243706857 1.9616239082 
1.829722181 1.7240926197 1.6393591329 3.23549507 3.3177459509 3.3894651688 3.4519439696 3.5064564817 3.5541660013 
3.5960900196 3.6330970997 3.6659187711 3.0476902371 2.9654393563 2.8937201384 2.8312413375 2.7767288255 2.7290193058 
2.6870952876 2.6500882075 2.617266536 6.2831853072 6.2831853072 6.2831853072 6.2831853072 3.1415926536 3.1415926536 
3.1415926536 3.1415926536 3.1415926536 6.1053039672 5.898798347 5.6768734901 5.4599499503 5.2659633393 5.1032165617 
4.9713148346 4.8656852733 4.7809517865 0.17788134 0.38438696014 0.60631181711 0.82323535693 1.0172219679 1.1799687454 
1.3118704726 1.4175000338 1.5022335207 6.1892828907 6.1070320098 6.035312792 5.9728339911 5.9183214791 5.8706119594 
5.8286879411 5.7916808611 5.7588591896 0.093902416448 0.17615329733 0.2478725152 0.31035131605 0.36486382811 0.41257334776 
0.45449736604 0.4915044461 0.52432611754 3.3194739936 3.5259796137 3.7479044707 3.9648280105 4.1588146215 4.321561399 
4.4534631262 4.5590926874 4.6438261743 2.9637113136 2.7572056934 2.5352808365 2.3183572967 2.1243706857 1.9616239082 
1.829722181 1.7240926197 1.6393591329 3.23549507 3.3177459509 3.3894651688 3.4519439696 3.5064564817 3.5541660013 
3.5960900196 3.6330970997 3.6659187711 3.0476902371 2.9654393563 2.8937201384 2.8312413375 2.7767288255 2.7290193058 
2.6870952876 2.6500882075 2.617266536 4.7123889804 4.7123889804 4.7123889804 4.7123889804 4.7123889804 4.7123889804 
4.7123889804 4.7123889804 4.7123889804 4.6087898617 4.4991390697 4.3857031936 4.2712800401 4.1588146215 4.0509635631 
3.94975894 3.8564636551 3.7716124825 4.8159880991 4.9256388911 5.0390747672 5.1534979207 5.2659633393 5.3738143976 
5.4750190208 5.5683143056 5.6531654782 4.6087898617 4.4991390697 4.3857031936 4.2712800401 4.1588146215 4.0509635631 
3.94975894 3.8564636551 3.7716124825 4.8159880991 4.9256388911 5.0390747672 5.1534979207 5.2659633393 5.3738143976 
5.4750190208 5.5683143056 5.6531654782 1.5707963268 1.5707963268 1.5707963268 1.5707963268 1.5707963268 1.5707963268 
1.5707963268 1.5707963268 1.5707963268 1.6743954455 1.7840462375 1.8974821136 2.0119052671 2.1243706857 2.232221744 
2.3334263672 2.426721652 2.5115728246 1.4671972081 1.3575464161 1.24411054 1.1296873865 1.0172219679 0.90937090954 
0.80816628637 0.71487100155 0.63001982895 1.6743954455 1.7840462375 1.8974821136 2.0119052671 2.1243706857 2.232221744 
2.3334263672 2.426721652 2.5115728246 1.4671972081 1.3575464161 1.24411054 1.1296873865 1.0172219679 0.90937090954 
0.80816628637 0.71487100155 0.63001982895 3.6007720849 3.4966939854 3.3839471039 3.2645756454 3.1415926536 3.0186096618 
2.8992382033 2.7864913217 2.6824132222 5.8240058758 5.9280839753 6.0408308569 6.1602023154 6.2831853072 0.12298299178 
0.2423544503 0.35510133185 0.45917943135 6.0560271438 5.7885595667 5.9702140275 5.5125918794 5.6029703303 5.7885595667 
5.2659633393 5.2659633393 5.2659633393 5.2659633393 5.0674903122 5.0120975802 4.9155579264 4.7123889804 4.1588146215 
4.9155579264 4.8353719722 4.7123889804 4.5092200343 4.1588146215 3.6362183941 4.8004512023 4.7123889804 4.5894059886 
4.4126803806 4.1588146215 3.8218076305 3.4545639333 4.7123889804 4.6243267584 4.5092200343 4.3572876485 4.1588146215 
3.9121860814 3.6362183941 3.368750817 6.0174235957 5.9434319871 5.8263323547 5.8809213739 5.7674481418 5.6279784266 
5.8278025282 5.718968232 5.5891129425 5.4372443565 5.7823484065 5.678536687 5.5575666702 5.4192596322 5.2659633393 
5.743164462 5.6444075337 5.5314983644 5.4046708639 5.2659633393 5.1195510325 5.7091357773 5.6152775188 5.5096229709 
5.3926039573 5.2659633393 5.1329233157 4.9978930058 5.6793730533 5.5901633916 5.4910209005 5.3824597928 5.2659633393 
5.1440684722 5.0201624502 4.8979782167 5.5683143056 5.4750190208 5.4750190208 5.3738143976 5.3738143976 5.3738143976 
5.2659633393 5.2659633393 5.2659633393 5.2659633393 5.1534979207 5.1534979207 5.1534979207 5.1534979207 5.1534979207 
5.0390747672 5.0390747672 5.0390747672 5.0390747672 5.0390747672 5.0390747672 4.9256388911 4.9256388911 4.9256388911 
4.9256388911 4.9256388911 4.9256388911 4.9256388911 4.8159880991 4.8159880991 4.8159880991 4.8159880991 4.8159880991 
4.8159880991 4.8159880991 4.8159880991 4.6087898617 4.6087898617 4.4991390697 4.6087898617 4.4991390697 4.3857031936 
4.6087898617 4.4991390697 4.3857031936 4.2712800401 4.6087898617 4.4991390697 4.3857031936 4.2712800401 4.1588146215 
4.6087898617 4.4991390697 4.3857031936 4.2712800401 4.1588146215 4.0509635631 4.6087898617 4.4991390697 4.3857031936 
4.2712800401 4.1588146215 4.0509635631 3.94975894 4.6087898617 4.4991390697 4.3857031936 4.2712800401 4.1588146215 
4.0509635631 3.94975894 3.8564636551 4.526799744 4.4046155105 4.426884955 4.2807094886 4.2918546451 4.3052269283 
4.1588146215 4.1588146215 4.1588146215 4.1588146215 4.042318168 4.0321740035 4.0201070968 4.0055183285 3.9875336042 
3.9337570603 3.9151549899 3.8932795963 3.8672112905 3.8356650183 3.7967995342 3.8346145692 3.809500442 3.7803704271 
3.7462412737 3.7058097288 3.657329819 3.5984456061 3.7454049075 3.7156421835 3.6816134988 3.6424295543 3.5969754326 
3.5438565869 3.4813459737 3.4073543651 3.5642842451 3.4524645613 3.5233842518 3.3320300872 3.403123212 3.4773852225 
3.20576226 3.2746326772 3.348015857 3.4255060145 3.0774230472 3.1415926536 3.2112816139 3.2864685043 3.3668817272 
2.95115522 3.00855263 3.0719036933 3.1415926536 3.2178377658 3.3005964304 2.8307207459 2.8800620952 2.9351694502 
2.9967168029 3.0653475414 3.1415926536 3.225752376 2.718901062 2.7598010554 2.8058000847 2.8576792927 2.91630358 
2.9825888767 3.0574329311 3.1415926536 3.5642842451 3.5233842518 3.4524645613 3.4773852225 3.403123212 3.3320300872 
3.4255060145 3.348015857 3.2746326772 3.20576226 3.3668817272 3.2864685043 3.2112816139 3.1415926536 3.0774230472 
3.3005964304 3.2178377658 3.1415926536 3.0719036933 3.00855263 2.95115522 3.225752376 3.1415926536 3.0653475414 
2.9967168029 2.9351694502 2.8800620952 2.8307207459 3.1415926536 3.0574329311 2.9825888767 2.91630358 2.8576792927 
2.8058000847 2.7598010554 2.718901062 4.526799744 4.426884955 4.4046155105 4.3052269283 4.2918546451 4.2807094886 
4.1588146215 4.1588146215 4.1588146215 4.1588146215 3.9875336042 4.0055183285 4.0201070968 4.0321740035 4.042318168 
3.7967995342 3.8356650183 3.8672112905 3.8932795963 3.9151549899 3.9337570603 3.5984456061 3.657329819 3.7058097288 
3.7462412737 3.7803704271 3.809500442 3.8346145692 3.4073543651 3.4813459737 3.5438565869 3.5969754326 3.6424295543 
3.6816134988 3.7156421835 3.7454049075 4.7123889804 4.8004512023 4.6243267584 4.9155579264 4.7123889804 4.5092200343 
5.0674903122 4.8353719722 4.5894059886 4.3572876485 5.2659633393 5.0120975802 4.7123889804 4.4126803806 4.1588146215 
5.5125918794 5.2659633393 4.9155579264 4.5092200343 4.1588146215 3.9121860814 5.7885595667 5.6029703303 5.2659633393 
4.7123889804 4.1588146215 3.8218076305 3.6362183941 6.0560271438 5.9702140275 5.7885595667 5.2659633393 4.1588146215 
3.6362183941 3.4545639333 3.368750817 0.22715816343 0.49462574053 0.3129712797 0.77059342779 0.68021497688 0.49462574053 
1.0172219679 1.0172219679 1.0172219679 1.0172219679 1.2156949949 1.271087727 1.3676273807 1.5707963268 2.1243706857 
1.3676273807 1.447813335 1.5707963268 1.7739652728 2.1243706857 2.6469669131 1.4827341049 1.5707963268 1.6937793186 
1.8705049266 2.1243706857 2.4613776767 2.8286213739 1.5707963268 1.6588585487 1.7739652728 1.9258976586 2.1243706857 
2.3709992258 2.6469669131 2.9144344902 1.7563855631 1.8785697967 1.8563003522 2.0024758186 1.9913306621 1.9779583789 
2.1243706857 2.1243706857 2.1243706857 2.1243706857 2.2408671392 2.2510113037 2.2630782103 2.2776669786 2.295651703 
2.3494282469 2.3680303173 2.3899057108 2.4159740166 2.4475202889 2.486385773 2.448570738 2.4736848652 2.5028148801 
2.5369440334 2.5773755784 2.6258554882 2.6847397011 2.5377803997 2.5675431237 2.6015718084 2.6407557529 2.6862098746 
2.7393287203 2.8018393335 2.8758309421 1.6743954455 1.6743954455 1.7840462375 1.6743954455 1.7840462375 1.8974821136 
1.6743954455 1.7840462375 1.8974821136 2.0119052671 1.6743954455 1.7840462375 1.8974821136 2.0119052671 2.1243706857 
1.6743954455 1.7840462375 1.8974821136 2.0119052671 2.1243706857 2.232221744 1.6743954455 1.7840462375 1.8974821136 
2.0119052671 2.1243706857 2.232221744 2.3334263672 1.6743954455 1.7840462375 1.8974821136 2.0119052671 2.1243706857 
2.232221744 2.3334263672 2.426721652 1.4671972081 1.3575464161 1.4671972081 1.24411054 1.3575464161 1.4671972081 
1.1296873865 1.24411054 1.3575464161 1.4671972081 1.0172219679 1.1296873865 1.24411054 1.3575464161 1.4671972081 
0.90937090954 1.0172219679 1.1296873865 1.24411054 1.3575464161 1.4671972081 0.80816628637 0.90937090954 1.0172219679 
1.1296873865 1.24411054 1.3575464161 1.4671972081 0.71487100155 0.80816628637 0.90937090954 1.0172219679 1.1296873865 
1.24411054 1.3575464161 1.4671972081 0.60381225391 0.57404952988 0.69302191562 0.54002084522 0.66790778838 0.79216440667 
0.50083690068 0.63877777351 0.77356233629 0.90072551443 0.45538277901 0.60464862014 0.75168694275 0.89058134991 1.0172219679 
0.40226393329 0.56421707518 0.72561863695 0.87851444325 1.0172219679 1.139116835 0.33975332011 0.51573716537 0.69407236469 
0.86392567495 1.0172219679 1.1502619915 1.2630228569 0.26576171152 0.45685295248 0.6552068806 0.84594095064 1.0172219679 
1.1636342747 1.2852923014 1.3852070904 0.22715816343 0.3129712797 0.49462574053 0.49462574053 0.68021497688 0.77059342779 
1.0172219679 1.0172219679 1.0172219679 1.0172219679 2.1243706857 1.5707963268 1.3676273807 1.271087727 1.2156949949 
2.6469669131 2.1243706857 1.7739652728 1.5707963268 1.447813335 1.3676273807 2.8286213739 2.4613776767 2.1243706857 
1.8705049266 1.6937793186 1.5707963268 1.4827341049 2.9144344902 2.6469669131 2.3709992258 2.1243706857 1.9258976586 
1.7739652728 1.6588585487 1.5707963268 1.7563855631 1.8563003522 1.8785697967 1.9779583789 1.9913306621 2.0024758186 
2.1243706857 2.1243706857 2.1243706857 2.1243706857 2.295651703 2.2776669786 2.2630782103 2.2510113037 2.2408671392 
2.486385773 2.4475202889 2.4159740166 2.3899057108 2.3680303173 2.3494282469 2.6847397011 2.6258554882 2.5773755784 
2.5369440334 2.5028148801 2.4736848652 2.448570738 2.8758309421 2.8018393335 2.7393287203 2.6862098746 2.6407557529 
2.6015718084 2.5675431237 2.5377803997 5.8604937156 5.901393709 5.9723133995 5.9473927383 6.0216547488 6.0927478736 
5.9992719463 6.0767621038 6.1501452836 6.2190157008 6.0578962336 6.1383094565 6.2134963469 0 0.064169606361 
6.1241815303 6.206940195 6.2831853072 0.069688960264 0.13304002361 0.19043743361 6.1990255847 0 0.07624511221 
0.14487585072 0.20642320337 0.26153055843 0.3108719077 0 0.084159722458 0.15900377685 0.22528907359 0.28391336087 
0.3357925689 0.38179159818 0.42269159155 5.8604937156 5.9723133995 5.901393709 6.0927478736 6.0216547488 5.9473927383 
6.2190157008 6.1501452836 6.0767621038 5.9992719463 0.064169606361 0 6.2134963469 6.1383094565 6.0578962336 
0.19043743361 0.13304002361 0.069688960264 6.2831853072 6.206940195 6.1241815303 0.3108719077 0.26153055843 0.20642320337 
0.14487585072 0.07624511221 6.2831853072 6.1990255847 0.42269159155 0.38179159818 0.3357925689 0.28391336087 0.22528907359 
0.15900377685 0.084159722458 0 5.6793730533 5.7091357773 5.5901633916 5.743164462 5.6152775188 5.4910209005 
5.7823484065 5.6444075337 5.5096229709 5.3824597928 5.8278025282 5.678536687 5.5314983644 5.3926039573 5.2659633393 
5.8809213739 5.718968232 5.5575666702 5.4046708639 5.2659633393 5.1440684722 5.9434319871 5.7674481418 5.5891129425 
5.4192596322 5.2659633393 5.1329233157 5.0201624502 6.0174235957 5.8263323547 5.6279784266 5.4372443565 5.2659633393 
5.1195510325 4.9978930058 4.8979782167 1.3852070904 1.2852923014 1.2630228569 1.1636342747 1.1502619915 1.139116835 
1.0172219679 1.0172219679 1.0172219679 1.0172219679 0.84594095064 0.86392567495 0.87851444325 0.89058134991 0.90072551443 
0.6552068806 0.69407236469 0.72561863695 0.75168694275 0.77356233629 0.79216440667 0.45685295248 0.51573716537 0.56421707518 
0.60464862014 0.63877777351 0.66790778838 0.69302191562 0.26576171152 0.33975332011 0.40226393329 0.45538277901 0.50083690068 
0.54002084522 0.57404952988 0.60381225391 
_paraPhiHalf 1 1002 double
0 3.1415926536 0 3.1415926536 1.5707963268 1.5707963268 1.5707963268 1.5707963268 2.5880182947 
0.5535743589 2.5880182947 0.5535743589 0 0 0 0 3.1415926536 3.1415926536 
3.1415926536 3.1415926536 3.1415926536 0.17788134 0.38438696014 0.60631181711 0.82323535693 1.0172219679 1.1799687454 
1.3118704726 1.4175000338 1.5022335207 0.17788134 0.38438696014 0.60631181711 0.82323535693 1.0172219679 1.1799687454 
1.3118704726 1.4175000338 1.5022335207 0.093902416448 0.17615329733 0.2478725152 0.31035131605 0.36486382811 0.41257334776 
0.45449736604 0.4915044461 0.52432611754 0.093902416448 0.17615329733 0.2478725152 0.31035131605 0.36486382811 0.41257334776 
0.45449736604 0.4915044461 0.52432611754 2.9637113136 2.7572056934 2.5352808365 2.3183572967 2.1243706857 1.9616239082 
1.829722181 1.7240926197 1.6393591329 2.9637113136 2.7572056934 2.5352808365 2.3183572967 2.1243706857 1.9616239082 
1.829722181 1.7240926197 1.6393591329 3.0476902371 2.9654393563 2.8937201384 2.8312413375 2.7767288255 2.7290193058 
2.6870952876 2.6500882075 2.617266536 3.0476902371 2.9654393563 2.8937201384 2.8312413375 2.7767288255 2.7290193058 
2.6870952876 2.6500882075 2.617266536 0 0 0 0 3.1415926536 3.1415926536 
3.1415926536 3.1415926536 3.1415926536 0.17788134 0.38438696014 0.60631181711 0.82323535693 1.0172219679 1.1799687454 
1.3118704726 1.4175000338 1.5022335207 0.17788134 0.38438696014 0.60631181711 0.82323535693 1.0172219679 1.1799687454 
1.3118704726 1.4175000338 1.5022335207 0.093902416448 0.17615329733 0.2478725152 0.31035131605 0.36486382811 0.41257334776 
0.45449736604 0.4915044461 0.52432611754 0.093902416448 0.17615329733 0.2478725152 0.31035131605 0.36486382811 0.41257334776 
0.45449736604 0.4915044461 0.52432611754 2.9637113136 2.7572056934 2.5352808365 2.3183572967 2.1243706857 1.9616239082 
1.829722181 1.7240926197 1.6393591329 2.9637113136 2.7572056934 2.5352808365 2.3183572967 2.1243706857 1.9616239082 
1.829722181 1.7240926197 1.6393591329 3.0476902371 2.9654393563 2.8937201384 2.8312413375 2.7767288255 2.7290193058 
2.6870952876 2.6500882075 2.617266536 3.0476902371 2.9654393563 2.8937201384 2.8312413375 2.7767288255 2.7290193058 
2.6870952876 2.6500882075 2.617266536 1.5707963268 1.5707963268 1.5707963268 1.5707963268 1.5707963268 1.5707963268 
1.5707963268 1.5707963268 1.5707963268 1.6743954455 1.7840462375 1.8974821136 2.0119052671 2.1243706857 2.232221744 
2.3334263672 2.426721652 2.5115728246 1.4671972081 1.3575464161 1.24411054 1.1296873865 1.0172219679 0.90937090954 
0.80816628637 0.71487100155 0.63001982895 1.6743954455 1.7840462375 1.8974821136 2.0119052671 2.1243706857 2.232221744 
2.3334263672 2.426721652 2.5115728246 1.4671972081 1.3575464161 1.24411054 1.1296873865 1.0172219679 0.90937090954 
0.80816628637 0.71487100155 0.63001982895 1.5707963268 1.5707963268 1.5707963268 1.5707963268 1.5707963268 1.5707963268 
1.5707963268 1.5707963268 1.5707963268 1.6743954455 1.7840462375 1.8974821136 2.0119052671 2.1243706857 2.232221744 
2.3334263672 2.426721652 2.5115728246 1.4671972081 1.3575464161 1.24411054 1.1296873865 1.0172219679 0.90937090954 
0.80816628637 0.71487100155 0.63001982895 1.6743954455 1.7840462375 1.8974821136 2.0119052671 2.1243706857 2.232221744 
2.3334263672 2.426721652 2.5115728246 1.4671972081 1.3575464161 1.24411054 1.1296873865 1.0172219679 0.90937090954 
0.80816628637 0.71487100155 0.63001982895 2.6824132222 2.7864913217 2.8992382033 3.0186096618 3.1415926536 3.0186096618 
2.8992382033 2.7864913217 2.6824132222 0.45917943135 0.35510133185 0.2423544503 0.12298299178 0 0.12298299178 
0.2423544503 0.35510133185 0.45917943135 0.22715816343 0.49462574053 0.3129712797 0.77059342779 0.68021497688 0.49462574053 
1.0172219679 1.0172219679 1.0172219679 1.0172219679 1.2156949949 1.271087727 1.3676273807 1.5707963268 2.1243706857 
1.3676273807 1.447813335 1.5707963268 1.7739652728 2.1243706857 2.6469669131 1.4827341049 1.5707963268 1.6937793186 
1.8705049266 2.1243706857 2.4613776767 2.8286213739 1.5707963268 1.6588585487 1.7739652728 1.9258976586 2.1243706857 
2.3709992258 2.6469669131 2.9144344902 0.26576171152 0.33975332011 0.45685295248 0.40226393329 0.51573716537 0.6552068806 
0.45538277901 0.56421707518 0.69407236469 0.84594095064 0.50083690068 0.60464862014 0.72561863695 0.86392567495 1.0172219679 
0.54002084522 0.63877777351 0.75168694275 0.87851444325 1.0172219679 1.1636342747 0.57404952988 0.66790778838 0.77356233629 
0.89058134991 1.0172219679 1.1502619915 1.2852923014 0.60381225391 0.69302191562 0.79216440667 0.90072551443 1.0172219679 
1.139116835 1.2630228569 1.3852070904 0.71487100155 0.80816628637 0.80816628637 0.90937090954 0.90937090954 0.90937090954 
1.0172219679 1.0172219679 1.0172219679 1.0172219679 1.1296873865 1.1296873865 1.1296873865 1.1296873865 1.1296873865 
1.24411054 1.24411054 1.24411054 1.24411054 1.24411054 1.24411054 1.3575464161 1.3575464161 1.3575464161 
1.3575464161 1.3575464161 1.3575464161 1.3575464161 1.4671972081 1.4671972081 1.4671972081 1.4671972081 1.4671972081 
1.4671972081 1.4671972081 1.4671972081 1.6743954455 1.6743954455 1.7840462375 1.6743954455 1.7840462375 1.8974821136 
1.6743954455 1.7840462375 1.8974821136 2.0119052671 1.6743954455 1.7840462375 1.8974821136 2.0119052671 2.1243706857 
1.6743954455 1.7840462375 1.8974821136 2.0119052671 2.1243706857 2.232221744 1.6743954455 1.7840462375 1.8974821136 
2.0119052671 2.1243706857 2.232221744 2.3334263672 1.6743954455 1.7840462375 1.8974821136 2.0119052671 2.1243706857 
2.232221744 2.3334263672 2.426721652 1.7563855631 1.8785697967 1.8563003522 2.0024758186 1.9913306621 1.9779583789 
2.1243706857 2.1243706857 2.1243706857 2.1243706857 2.2408671392 2.2510113037 2.2630782103 2.2776669786 2.295651703 
2.3494282469 2.3680303173 2.3899057108 2.4159740166 2.4475202889 2.486385773 2.448570738 2.4736848652 2.5028148801 
2.5369440334 2.5773755784 2.6258554882 2.6847397011 2.5377803997 2.5675431237 2.6015718084 2.6407557529 2.6862098746 
2.7393287203 2.8018393335 2.8758309421 2.718901062 2.8307207459 2.7598010554 2.95115522 2.8800620952 2.8058000847 
3.0774230472 3.00855263 2.9351694502 2.8576792927 3.0774230472 3.1415926536 3.0719036933 2.9967168029 2.91630358 
2.95115522 3.00855263 3.0719036933 3.1415926536 3.0653475414 2.9825888767 2.8307207459 2.8800620952 2.9351694502 
2.9967168029 3.0653475414 3.1415926536 3.0574329311 2.718901062 2.7598010554 2.8058000847 2.8576792927 2.91630358 
2.9825888767 3.0574329311 3.1415926536 2.718901062 2.7598010554 2.8307207459 2.8058000847 2.8800620952 2.95115522 
2.8576792927 2.9351694502 3.00855263 3.0774230472 2.91630358 2.9967168029 3.0719036933 3.1415926536 3.0774230472 
2.9825888767 3.0653475414 3.1415926536 3.0719036933 3.00855263 2.95115522 3.0574329311 3.1415926536 3.0653475414 