# vtk DataFile Version 5.1
vtk output
ASCII
DATASET POLYDATA
POINTS 100 float
-123.957 -116.333 80.324 -123.945 -116.314 80.326 -123.91 -116.258 80.3379 
-123.858 -116.167 80.3599 -123.793 -116.045 80.3922 -123.725 -115.898 80.4354 
-123.66 -115.73 80.4896 -123.607 -115.546 80.5549 -123.573 -115.352 80.6312 
-123.562 -115.15 80.7179 -123.575 -114.945 80.8144 -123.614 -114.736 80.9196 
-123.674 -114.525 81.0323 -123.752 -114.309 81.1516 -123.841 -114.088 81.2762 
-123.935 -113.858 81.4053 -124.027 -113.618 81.5385 -124.113 -113.366 81.6753 
-124.189 -113.101 81.8158 -124.254 -112.822 81.9602 -124.31 -112.53 82.1089 
-124.359 -112.225 82.262 -124.405 -111.91 82.4197 -124.454 -111.586 82.5819 
-124.513 -111.254 82.7482 -124.585 -110.916 82.9179 -124.675 -110.573 83.09 
-124.785 -110.223 83.2635 -124.915 -109.867 83.4372 -125.065 -109.503 83.6103 
-125.23 -109.13 83.7822 -125.408 -108.745 83.9529 -125.592 -108.349 84.1227 
-125.778 -107.939 84.2925 -125.961 -107.517 84.4634 -126.14 -107.083 84.6368 
-126.311 -106.64 84.8139 -126.475 -106.19 84.9958 -126.635 -105.736 85.1829 
-126.791 -105.281 85.375 -126.949 -104.825 85.5711 -127.111 -104.371 85.7695 
-127.281 -103.917 85.968 -127.462 -103.46 86.1643 -127.655 -102.997 86.3557 
-127.858 -102.521 86.5405 -128.07 -102.026 86.7174 -128.286 -101.504 86.8864 
-128.502 -100.948 87.0488 -128.709 -100.353 87.2071 -128.901 -99.713 87.3652 
-129.072 -99.0268 87.5277 -129.214 -98.295 87.6998 -129.322 -97.5212 87.8867 
-129.39 -96.7118 88.093 -129.416 -95.8758 88.3222 -129.398 -95.0241 88.5762 
-129.335 -94.1687 88.8551 -129.228 -93.3219 89.1574 -129.078 -92.4952 89.4796 
-128.888 -91.6991 89.8168 -128.66 -90.9414 90.1634 -128.397 -90.2279 90.5133 
-128.102 -89.5613 90.8607 -127.779 -88.9416 91.201 -127.43 -88.3666 91.5308 
-127.06 -87.8322 91.8483 -126.67 -87.3332 92.1538 -126.264 -86.864 92.449 
-125.844 -86.4192 92.7374 -125.412 -85.9946 93.0228 -124.97 -85.5874 93.3099 
-124.52 -85.1965 93.6026 -124.062 -84.8225 93.9043 -123.597 -84.4678 94.2169 
-123.123 -84.1357 94.5409 -122.642 -83.8304 94.875 -122.151 -83.5557 95.2167 
-121.649 -83.315 95.5623 -121.136 -83.1106 95.9077 -120.612 -82.943 96.2484 
-120.076 -82.8108 96.5807 -119.531 -82.7106 96.9016 -118.978 -82.6375 97.2094 
-118.421 -82.585 97.5038 -117.866 -82.5459 97.7854 -117.317 -82.5128 98.056 
-116.78 -82.4788 98.3177 -116.263 -82.438 98.5725 -115.772 -82.3865 98.8219 
-115.312 -82.3219 99.0663 -114.89 -82.2445 99.3046 -114.51 -82.1564 99.5341 
-114.176 -82.0617 99.7509 -113.89 -81.9658 99.9496 -113.655 -81.8751 100.124 
-113.471 -81.796 100.268 -113.339 -81.7343 100.376 -113.26 -81.695 100.444 
-113.234 -81.681 100.468 
LINES 2 100
OFFSETS vtktypeint64
0 100 
CONNECTIVITY vtktypeint64
0 1 2 3 4 5 6 7 8 
9 10 11 12 13 14 15 16 17 
18 19 20 21 22 23 24 25 26 
27 28 29 30 31 32 33 34 35 
36 37 38 39 40 41 42 43 44 
45 46 47 48 49 50 51 52 53 
54 55 56 57 58 59 60 61 62 
63 64 65 66 67 68 69 70 71 
72 73 74 75 76 77 78 79 80 
81 82 83 84 85 86 87 88 89 
90 91 92 93 94 95 96 97 98 
99 
POINT_DATA 100
FIELD FieldData 3
_theta 1 100 double
0 0.031733259127 0.063466518254 0.095199777382 0.12693303651 0.15866629564 0.19039955476 0.22213281389 0.25386607302 
0.28559933214 0.31733259127 0.3490658504 0.38079910953 0.41253236865 0.44426562778 0.47599888691 0.50773214603 0.53946540516 
0.57119866429 0.60293192342 0.63466518254 0.66639844167 0.6981317008 0.72986495992 0.76159821905 0.79333147818 0.82506473731 
0.85679799643 0.88853125556 0.92026451469 0.95199777382 0.98373103294 1.0154642921 1.0471975512 1.0789308103 1.1106640695 
1.1423973286 1.1741305877 1.2058638468 1.237597106 1.2693303651 1.3010636242 1.3327968833 1.3645301425 1.3962634016 
1.4279966607 1.4597299198 1.491463179 1.5231964381 1.5549296972 1.5866629564 1.6183962155 1.6501294746 1.6818627337 
1.7135959929 1.745329252 1.7770625111 1.8087957702 1.8405290294 1.8722622885 1.9039955476 1.9357288068 1.9674620659 
1.999195325 2.0309285841 2.0626618433 2.0943951024 2.1261283615 2.1578616206 2.1895948798 2.2213281389 2.253061398 
2.2847946572 2.3165279163 2.3482611754 2.3799944345 2.4117276937 2.4434609528 2.4751942119 2.506927471 2.5386607302 
2.5703939893 2.6021272484 2.6338605076 2.6655937667 2.6973270258 2.7290602849 2.7607935441 2.7925268032 2.8242600623 
2.8559933214 2.8877265806 2.9194598397 2.9511930988 2.982926358 3.0146596171 3.0463928762 3.0781261353 3.1098593945 
3.1415926536 
_radius 1 100 double
2.9123585722e-13 0.31345612071 0.62326898527 0.92615423264 1.219533531 1.5017499933 1.7721601382 2.031100596 2.2797383088 
2.5198180798 2.7533337791 2.9821757632 3.20783155 3.4312122355 3.6526357293 3.8719424375 4.0886788192 4.3022713319 
4.5121246299 4.7176079224 4.9179368841 5.112005276 5.2982528484 5.4746556436 5.6388854582 5.7886220436 5.9219433972 
6.0376906054 6.1357124199 6.2169342589 6.2832502522 6.3372833038 6.3820755622 6.4207523595 6.4561653381 6.4905033553 
6.5248845018 6.5589870987 6.5908060485 6.6166258605 6.6312861791 6.6287676439 6.6030436671 6.5490600621 6.4636618421 
6.3462973537 6.1993729065 6.0281794546 5.8403513674 5.6448294016 5.4502935414 5.2632269573 5.0865230815 4.92002351 
4.7629743202 4.6166479707 4.4856401312 4.3775345274 4.3012665876 4.2645688134 4.270932353 4.31719763 4.393515568 
4.4861514093 4.581367058 4.668371497 4.740661782 4.795993747 4.8354410171 4.8620034676 4.8792037555 4.8900381026 
4.8964852998 4.8995519426 4.8996291382 4.8968439815 4.8911452261 4.8820425549 4.8681415197 4.8467601362 4.8138837891 
4.7645364632 4.6934521678 4.5958373069 4.46803495 4.3079753903 4.1153645636 3.8916061714 3.6394926467 3.3627455426 
3.065518999 2.7519732669 2.4259746583 2.0909105901 1.7495653996 1.4040209401 1.0556276582 0.70514999974 0.35308969186 
1.695017295e-13 
_area 1 100 double
0 0.30080668809 1.1886567505 2.6223144896 4.5405547233 6.8713569788 9.5421191362 12.490118684 15.672444299 
19.073282294 22.704941347 26.599632722 30.792880427 35.3045183 40.125546078 45.216874857 50.52124943 55.984319304 
61.575670812 67.298121461 73.176868852 79.229254192 85.426594234 91.66519568 97.760777308 103.47169149 108.54639012 
112.78186795 116.07426472 118.44378331 120.02484962 121.02728181 121.68887688 122.24347083 122.91490236 123.90708986 
125.31372916 127.02031306 128.79834997 130.42309484 131.75681744 133.07964305 133.68168165 132.94302865 130.61260114 
126.60635264 121.03950156 114.23819037 106.71765226 99.121917616 92.0950033 86.100210685 81.203509143 77.15314829 
73.621096661 70.394443818 67.478278223 65.068031098 63.409457299 62.601088473 62.519812756 62.948135677 63.693485976 
64.590312611 65.465161711 66.148989802 66.5206558 66.539858834 66.246180408 65.717522864 65.011589247 64.132676006 
63.051670581 61.764059463 60.333911457 58.88790555 57.561031774 56.430136718 55.483484237 54.637874331 53.774573869 
52.764857607 51.477292244 49.781487157 47.566729884 44.768533333 41.382172999 37.460071465 33.103410031 28.454314811 
23.687788572 18.999931844 14.590037403 10.636980081 7.2740024678 4.569963689 2.5282728477 1.1109979703 0.27615466082 
1.8189894035e-12 
