# vtk DataFile Version 5.1
vtk output
ASCII
DATASET POLYDATA
POINTS 100 float
-126.885 -134.019 70.7521 -126.888 -134.017 70.7547 -126.897 -134.009 70.7641 
-126.911 -133.997 70.7782 -126.931 -133.986 70.7936 -126.955 -133.977 70.8064 
-126.983 -133.973 70.8125 -127.014 -133.975 70.8082 -127.048 -133.984 70.7909 
-127.085 -133.996 70.7594 -127.125 -134.007 70.7137 -127.168 -134.011 70.6559 
-127.215 -134.001 70.5889 -127.267 -133.969 70.5168 -127.324 -133.908 70.4443 
-127.388 -133.813 70.3757 -127.459 -133.682 70.3148 -127.539 -133.512 70.2642 
-127.627 -133.306 70.2253 -127.724 -133.069 70.1978 -127.831 -132.805 70.18 
-127.946 -132.521 70.1692 -128.07 -132.224 70.1619 -128.2 -131.917 70.1544 
-128.337 -131.606 70.1433 -128.478 -131.289 70.1262 -128.623 -130.967 70.1015 
-128.769 -130.636 70.0692 -128.917 -130.292 70.0305 -129.064 -129.932 69.9877 
-129.21 -129.552 69.9437 -129.355 -129.151 69.902 -129.498 -128.731 69.8654 
-129.64 -128.294 69.8364 -129.78 -127.847 69.8161 -129.919 -127.397 69.8044 
-130.059 -126.953 69.7999 -130.198 -126.521 69.7998 -130.339 -126.107 69.8009 
-130.48 -125.712 69.799 -130.623 -125.334 69.7906 -130.767 -124.964 69.7727 
-130.911 -124.59 69.7434 -131.054 -124.198 69.7025 -131.193 -123.769 69.6515 
-131.326 -123.286 69.5933 -131.451 -122.733 69.5327 -131.563 -122.098 69.475 
-131.659 -121.375 69.4265 -131.736 -120.566 69.393 -131.789 -119.677 69.3799 
-131.817 -118.725 69.3913 -131.816 -117.73 69.4298 -131.785 -116.715 69.4964 
-131.723 -115.706 69.5901 -131.63 -114.728 69.7085 -131.507 -113.802 69.8478 
-131.357 -112.942 70.0036 -131.181 -112.157 70.1708 -130.983 -111.448 70.3446 
-130.767 -110.809 70.5208 -130.536 -110.23 70.6957 -130.292 -109.695 70.867 
-130.038 -109.187 71.0329 -129.777 -108.691 71.1931 -129.508 -108.194 71.3478 
-129.234 -107.689 71.4976 -128.953 -107.172 71.6436 -128.664 -106.646 71.7869 
-128.368 -106.121 71.9284 -128.063 -105.606 72.0685 -127.748 -105.116 72.2077 
-127.424 -104.662 72.3459 -127.091 -104.256 72.483 -126.75 -103.902 72.6188 
-126.402 -103.602 72.7533 -126.051 -103.349 72.8867 -125.698 -103.136 73.0195 
-125.347 -102.947 73.1524 -125 -102.768 73.2865 -124.659 -102.584 73.4229 
-124.328 -102.381 73.5627 -124.006 -102.153 73.7067 -123.695 -101.895 73.8555 
-123.395 -101.611 74.0089 -123.105 -101.309 74.1663 -122.825 -101.004 74.3263 
-122.555 -100.711 74.4872 -122.293 -100.447 74.6466 -122.04 -100.227 74.8019 
-121.797 -100.062 74.9504 -121.566 -99.9572 75.0897 -121.349 -99.9128 75.2173 
-121.149 -99.9219 75.3313 -120.97 -99.9722 75.43 -120.817 -100.048 75.5123 
-120.693 -100.131 75.5772 -120.602 -100.205 75.6245 -120.546 -100.255 75.6535 
-120.527 -100.272 75.6643 
LINES 2 100
OFFSETS vtktypeint64
0 100 
CONNECTIVITY vtktypeint64
0 1 2 3 4 5 6 7 8 
9 10 11 12 13 14 15 16 17 
18 19 20 21 22 23 24 25 26 
27 28 29 30 31 32 33 34 35 
36 37 38 39 40 41 42 43 44 
45 46 47 48 49 50 51 52 53 
54 55 56 57 58 59 60 61 62 
63 64 65 66 67 68 69 70 71 
72 73 74 75 76 77 78 79 80 
81 82 83 84 85 86 87 88 89 
90 91 92 93 94 95 96 97 98 
99 
POINT_DATA 100
FIELD FieldData 3
_theta 1 100 double
0 0.031733259127 0.063466518254 0.095199777382 0.12693303651 0.15866629564 0.19039955476 0.22213281389 0.25386607302 
0.28559933214 0.31733259127 0.3490658504 0.38079910953 0.41253236865 0.44426562778 0.47599888691 0.50773214603 0.53946540516 
0.57119866429 0.60293192342 0.63466518254 0.66639844167 0.6981317008 0.72986495992 0.76159821905 0.79333147818 0.82506473731 
0.85679799643 0.88853125556 0.92026451469 0.95199777382 0.98373103294 1.0154642921 1.0471975512 1.0789308103 1.1106640695 
1.1423973286 1.1741305877 1.2058638468 1.237597106 1.2693303651 1.3010636242 1.3327968833 1.3645301425 1.3962634016 
1.4279966607 1.4597299198 1.491463179 1.5231964381 1.5549296972 1.5866629564 1.6183962155 1.6501294746 1.6818627337 
1.7135959929 1.745329252 1.7770625111 1.8087957702 1.8405290294 1.8722622885 1.9039955476 1.9357288068 1.9674620659 
1.999195325 2.0309285841 2.0626618433 2.0943951024 2.1261283615 2.1578616206 2.1895948798 2.2213281389 2.253061398 
2.2847946572 2.3165279163 2.3482611754 2.3799944345 2.4117276937 2.4434609528 2.4751942119 2.506927471 2.5386607302 
2.5703939893 2.6021272484 2.6338605076 2.6655937667 2.6973270258 2.7290602849 2.7607935441 2.7925268032 2.8242600623 
2.8559933214 2.8877265806 2.9194598397 2.9511930988 2.982926358 3.0146596171 3.0463928762 3.0781261353 3.1098593945 
3.1415926536 
_radius 1 100 double
2.5460839292e-13 0.27031729713 0.54463330454 0.82631643442 1.1175435255 1.4189341158 1.7293890317 2.0461324041 2.3649411997 
2.6805301387 2.9870402651 3.2785716744 3.5497143408 3.7960482467 4.0145779295 4.2040395953 4.3650086047 4.4997722032 
4.6120014597 4.7063028893 4.7877162155 4.8611787853 4.9309702358 5.0002148739 5.0705896719 5.1423506307 5.2146406284 
5.2859140525 5.3543110992 5.4178968135 5.4747603236 5.5230131998 5.560739628 5.5859484203 5.5965648026 5.5904822712 
5.5656762376 5.5203669825 5.4532127396 5.363513777 5.2514114185 5.1180659039 4.9657863702 4.7980637971 4.6194399316 
4.4351657995 4.2506861338 4.0711046653 3.900857847 3.7437544426 3.6033126099 3.4831082555 3.3868224743 3.3178461953 
3.2785628766 3.2696257935 3.2895081793 3.3344081699 3.3985037341 3.474594206 3.5551071324 3.6332525628 3.703991765 
3.7645797589 3.8146248593 3.8557367998 3.8908862373 3.9236170667 3.9572602637 3.9942829163 4.0358602803 4.0816962829 
4.1300640561 4.1780079278 4.2216435383 4.2565105844 4.2779626715 4.2815946898 4.263688031 4.2216138638 4.1541168564 
4.0614253539 3.9451806171 3.8082193321 3.6542633742 3.487561108 3.3124845035 3.1330300849 2.952132212 2.7707383549 
2.5868610905 2.3953122287 2.1887576189 1.9596577523 1.702096743 1.4130163248 1.0928314386 0.74549600982 0.37808798487 
1.6971029659e-13 
_area 1 100 double
0 0.14153586778 0.57896605946 1.3480685922 2.5004559367 4.0942952963 6.1849786621 8.8164197863 12.012242868 
15.76557811 20.027158441 24.695071151 29.613704869 34.588401296 39.414875891 43.913917918 47.958501021 51.486063791 
54.500209567 57.071153295 59.33545208 61.48220716 63.709476836 66.154927764 68.844522607 71.70195263 74.603755242 
77.435260419 80.119815829 82.618888624 84.916718194 87.003194111 88.85834513 90.437079781 91.657093045 92.39719317 
92.509772617 91.843348367 90.268775526 87.705655915 84.146597386 79.675397618 74.474194085 68.813641565 63.01666884 
57.400945057 52.227495871 47.643797474 43.75149539 40.574202883 38.089862762 36.246068538 35.013446125 34.377779117 
34.301400917 34.707147376 35.498857629 36.604523555 38.009866715 39.703096312 41.531122784 43.243936721 44.616826419 
45.509872924 45.889736735 45.824279702 45.454205295 44.949587839 44.465818388 44.113131508 43.946118561 43.971835391 
44.169605245 44.510605132 44.961707014 45.46532188 45.915357307 46.163823776 46.056877147 45.471967468 44.338109841 
42.636783098 40.391522705 37.65837082 34.522831714 31.100518247 27.53649772 23.997786861 20.651645698 17.625176339 
14.960796008 12.604745788 10.447165534 8.3846793626 6.3698815693 4.4332656557 2.6786328145 1.2570047129 0.32507378832 
0 
