# vtk DataFile Version 5.1
vtk output
ASCII
DATASET POLYDATA
POINTS 100 float
-112.82 -95.7779 106.072 -112.824 -95.8031 106.063 -112.837 -95.8753 106.037 
-112.861 -95.9882 105.994 -112.896 -96.1318 105.933 -112.944 -96.294 105.854 
-113.008 -96.4621 105.757 -113.088 -96.6245 105.64 -113.186 -96.7715 105.505 
-113.304 -96.8973 105.352 -113.443 -96.9995 105.184 -113.603 -97.0805 105.002 
-113.784 -97.1458 104.808 -113.984 -97.204 104.606 -114.202 -97.2653 104.396 
-114.436 -97.3398 104.181 -114.682 -97.4367 103.961 -114.938 -97.5627 103.736 
-115.201 -97.7214 103.505 -115.467 -97.9128 103.268 -115.735 -98.1338 103.02 
-116.001 -98.3786 102.76 -116.265 -98.6397 102.485 -116.525 -98.9092 102.193 
-116.782 -99.1803 101.884 -117.035 -99.4481 101.556 -117.285 -99.7107 101.211 
-117.533 -99.9695 100.852 -117.781 -100.229 100.482 -118.03 -100.498 100.106 
-118.28 -100.785 99.7275 -118.532 -101.101 99.3527 -118.787 -101.456 98.9858 
-119.044 -101.858 98.6303 -119.302 -102.312 98.2885 -119.559 -102.821 97.9613 
-119.814 -103.382 97.6482 -120.065 -103.991 97.3471 -120.311 -104.64 97.0549 
-120.55 -105.32 96.7678 -120.78 -106.019 96.4816 -121 -106.729 96.1923 
-121.209 -107.441 95.8967 -121.407 -108.152 95.5922 -121.592 -108.857 95.278 
-121.765 -109.559 94.9543 -121.925 -110.26 94.6227 -122.072 -110.965 94.2858 
-122.206 -111.68 93.9474 -122.326 -112.411 93.6111 -122.431 -113.161 93.281 
-122.522 -113.93 92.9604 -122.597 -114.719 92.6519 -122.658 -115.522 92.3573 
-122.704 -116.332 92.0768 -122.736 -117.139 91.81 -122.756 -117.931 91.5549 
-122.765 -118.699 91.3093 -122.766 -119.43 91.0701 -122.762 -120.117 90.8343 
-122.754 -120.753 90.5991 -122.746 -121.335 90.3621 -122.739 -121.863 90.1217 
-122.735 -122.341 89.8772 -122.735 -122.774 89.6285 -122.739 -123.168 89.3765 
-122.747 -123.532 89.1225 -122.756 -123.873 88.8685 -122.767 -124.2 88.6164 
-122.776 -124.517 88.3682 -122.783 -124.83 88.1255 -122.786 -125.14 87.8897 
-122.784 -125.45 87.6614 -122.778 -125.759 87.4409 -122.769 -126.067 87.2281 
-122.757 -126.373 87.0224 -122.746 -126.677 86.8227 -122.738 -126.979 86.6283 
-122.735 -127.278 86.438 -122.74 -127.575 86.2511 -122.753 -127.869 86.067 
-122.777 -128.162 85.8855 -122.811 -128.453 85.7064 -122.853 -128.74 85.5302 
-122.9 -129.021 85.3575 -122.951 -129.293 85.1892 -123.001 -129.553 85.0262 
-123.047 -129.795 84.8696 -123.086 -130.015 84.7206 -123.114 -130.211 84.5804 
-123.131 -130.379 84.4501 -123.135 -130.517 84.3307 -123.128 -130.627 84.2232 
-123.112 -130.709 84.1285 -123.09 -130.767 84.0475 -123.064 -130.806 83.9808 
-123.039 -130.829 83.9289 -123.019 -130.842 83.8923 -123.006 -130.847 83.8714 
-123.001 -130.848 83.8663 
LINES 2 100
OFFSETS vtktypeint64
0 100 
CONNECTIVITY vtktypeint64
0 1 2 3 4 5 6 7 8 
9 10 11 12 13 14 15 16 17 
18 19 20 21 22 23 24 25 26 
27 28 29 30 31 32 33 34 35 
36 37 38 39 40 41 42 43 44 
45 46 47 48 49 50 51 52 53 
54 55 56 57 58 59 60 61 62 
63 64 65 66 67 68 69 70 71 
72 73 74 75 76 77 78 79 80 
81 82 83 84 85 86 87 88 89 
90 91 92 93 94 95 96 97 98 
99 
POINT_DATA 100
FIELD FieldData 3
_theta 1 100 double
0 0.031733259127 0.063466518254 0.095199777382 0.12693303651 0.15866629564 0.19039955476 0.22213281389 0.25386607302 
0.28559933214 0.31733259127 0.3490658504 0.38079910953 0.41253236865 0.44426562778 0.47599888691 0.50773214603 0.53946540516 
0.57119866429 0.60293192342 0.63466518254 0.66639844167 0.6981317008 0.72986495992 0.76159821905 0.79333147818 0.82506473731 
0.85679799643 0.88853125556 0.92026451469 0.95199777382 0.98373103294 1.0154642921 1.0471975512 1.0789308103 1.1106640695 
1.1423973286 1.1741305877 1.2058638468 1.237597106 1.2693303651 1.3010636242 1.3327968833 1.3645301425 1.3962634016 
1.4279966607 1.4597299198 1.491463179 1.5231964381 1.5549296972 1.5866629564 1.6183962155 1.6501294746 1.6818627337 
1.7135959929 1.745329252 1.7770625111 1.8087957702 1.8405290294 1.8722622885 1.9039955476 1.9357288068 1.9674620659 
1.999195325 2.0309285841 2.0626618433 2.0943951024 2.1261283615 2.1578616206 2.1895948798 2.2213281389 2.253061398 
2.2847946572 2.3165279163 2.3482611754 2.3799944345 2.4117276937 2.4434609528 2.4751942119 2.506927471 2.5386607302 
2.5703939893 2.6021272484 2.6338605076 2.6655937667 2.6973270258 2.7290602849 2.7607935441 2.7925268032 2.8242600623 
2.8559933214 2.8877265806 2.9194598397 2.9511930988 2.982926358 3.0146596171 3.0463928762 3.0781261353 3.1098593945 
3.1415926536 
_radius 1 100 double
1.3923737144e-13 0.29639154928 0.59721944828 0.90705119509 1.2300155828 1.5690052676 1.9245476959 2.2939215352 2.6709923119 
3.0467253204 3.4101363626 3.7495163715 4.0537934948 4.3138563449 4.5236453374 4.6808534126 4.7871424231 4.8478538817 
4.8712614361 4.8674728857 4.8471377216 4.820147115 4.7945228962 4.7756758287 4.7661597096 4.7659415851 4.7730660911 
4.784485879 4.7968314256 4.8069899106 4.8124738392 4.8116214489 4.8036770941 4.7887818434 4.7678898573 4.7426205852 
4.7150552411 4.6874872101 4.6621430205 4.6409027205 4.6250605553 4.6151730342 4.611036573 4.6118162357 4.6163122613 
4.6233143099 4.6319708395 4.6421010655 4.6543963179 4.670485862 4.6928668294 4.7247083327 4.7695346556 4.8307861818 
4.9112754653 5.0126111471 5.1347217035 5.2756130211 5.4314190124 5.5967078977 5.7649543721 5.9290909405 6.0820785536 
6.2174555102 6.3298237896 6.4152235277 6.4713467395 6.4975594106 6.4947316659 6.4649076049 6.4108713626 6.3356806779 
6.2422420774 6.1329908325 6.0097145276 5.873527594 5.7249761135 5.5642356425 5.391359577 5.2065353497 5.010305435 
4.8037104466 4.5883172553 4.3661106118 4.1392533626 3.9097533273 3.679103422 3.4479725797 3.2160118526 2.9818104529 
2.7430079493 2.4965520833 2.2390819269 1.9674044331 1.679017568 1.3726175757 1.0485113588 0.70884226688 0.35754616248 
3.0004847112e-13 
_area 1 100 double
0 0.17764406405 0.73705649748 1.7595095299 3.3772751137 5.75168349 9.0358104739 13.333319318 18.660526297 
24.913873158 31.851287054 39.103203339 46.220086289 52.745835684 58.296174278 62.620834934 65.635043938 67.416028579 
68.169978922 68.180965484 67.755471744 67.174749484 66.661532136 66.360974201 66.334497057 66.56827159 66.996552409 
67.532794397 68.097354855 68.633978621 69.113883537 69.531205591 69.894714979 70.218713559 70.514146602 70.781843737 
71.011350042 71.186969897 71.297959825 71.346626265 71.349370507 71.331107847 71.31837597 71.334559619 71.395322197 
71.503907028 71.651994173 71.83117256 72.051724284 72.356414647 72.817298494 73.521669627 74.564373126 76.04593013 
78.069026038 80.73752417 84.158929244 88.425866247 93.540379103 99.339296645 105.53012491 111.77594015 117.74461344 
123.13048336 127.67007917 131.15738806 133.45536932 134.49970685 134.29385303 132.89762633 130.41309723 126.97139549 
122.72373207 117.83835117 112.49910007 106.89495727 101.19487192 95.518768244 89.923846765 84.412347014 78.951001688 
73.491821023 67.990716908 62.423282849 56.795366953 51.144910349 45.534113739 40.035306846 34.716213985 29.62989337 
24.812483693 20.288779337 16.082641542 12.227541205 8.772826963 5.7838496658 3.3371589631 1.5126537546 0.38293084189 
1.8189894035e-12 
