# vtk DataFile Version 5.1
vtk output
ASCII
DATASET POLYDATA
POINTS 100 float
-109.516 -94.2822 108.875 -109.523 -94.2854 108.864 -109.543 -94.2923 108.826 
-109.577 -94.3048 108.764 -109.626 -94.3258 108.678 -109.694 -94.3589 108.569 
-109.781 -94.4071 108.441 -109.889 -94.4728 108.295 -110.021 -94.5572 108.134 
-110.177 -94.6595 107.958 -110.359 -94.7772 107.769 -110.567 -94.9064 107.569 
-110.8 -95.0417 107.358 -111.056 -95.1773 107.135 -111.334 -95.3077 106.901 
-111.631 -95.4283 106.656 -111.943 -95.5363 106.398 -112.269 -95.6312 106.129 
-112.604 -95.7148 105.847 -112.945 -95.7915 105.553 -113.292 -95.8679 105.247 
-113.64 -95.952 104.931 -113.989 -96.0523 104.605 -114.339 -96.1774 104.272 
-114.687 -96.3345 103.931 -115.035 -96.5294 103.585 -115.383 -96.7651 103.234 
-115.731 -97.0424 102.88 -116.078 -97.3597 102.524 -116.425 -97.7134 102.165 
-116.771 -98.0986 101.804 -117.116 -98.5097 101.441 -117.456 -98.9416 101.076 
-117.79 -99.3901 100.707 -118.115 -99.8527 100.336 -118.428 -100.329 99.9615 
-118.726 -100.819 99.5844 -119.006 -101.327 99.2051 -119.264 -101.856 98.8248 
-119.499 -102.411 98.4445 -119.708 -102.994 98.066 -119.89 -103.61 97.6908 
-120.044 -104.257 97.3205 -120.171 -104.936 96.9569 -120.271 -105.641 96.6012 
-120.345 -106.367 96.2545 -120.396 -107.106 95.9174 -120.424 -107.85 95.5901 
-120.434 -108.589 95.2723 -120.425 -109.315 94.9635 -120.402 -110.021 94.6627 
-120.366 -110.703 94.3688 -120.318 -111.356 94.0805 -120.259 -111.981 93.7964 
-120.193 -112.578 93.5153 -120.119 -113.15 93.236 -120.038 -113.701 92.9578 
-119.952 -114.235 92.6798 -119.862 -114.755 92.4015 -119.768 -115.263 92.1228 
-119.671 -115.76 91.8434 -119.572 -116.247 91.5636 -119.473 -116.721 91.2834 
-119.373 -117.181 91.0032 -119.275 -117.624 90.7235 -119.178 -118.047 90.4446 
-119.082 -118.449 90.1671 -118.99 -118.83 89.8918 -118.901 -119.191 89.6193 
-118.815 -119.534 89.3506 -118.733 -119.864 89.0864 -118.656 -120.186 88.8278 
-118.583 -120.504 88.5755 -118.515 -120.825 88.3305 -118.452 -121.152 88.0931 
-118.396 -121.489 87.8637 -118.347 -121.836 87.6422 -118.305 -122.193 87.4281 
-118.27 -122.556 87.2203 -118.244 -122.922 87.0173 -118.227 -123.283 86.8174 
-118.218 -123.635 86.6183 -118.216 -123.969 86.4177 -118.222 -124.282 86.2134 
-118.234 -124.566 86.0034 -118.251 -124.821 85.7863 -118.271 -125.044 85.5611 
-118.293 -125.235 85.3281 -118.315 -125.396 85.0884 -118.337 -125.53 84.8442 
-118.358 -125.64 84.5988 -118.376 -125.729 84.3566 -118.391 -125.801 84.1227 
-118.402 -125.86 83.9028 -118.411 -125.907 83.7029 -118.418 -125.944 83.5289 
-118.422 -125.972 83.3862 -118.425 -125.992 83.2796 -118.426 -126.004 83.2126 
-118.427 -126.008 83.1877 
LINES 2 100
OFFSETS vtktypeint64
0 100 
CONNECTIVITY vtktypeint64
0 1 2 3 4 5 6 7 8 
9 10 11 12 13 14 15 16 17 
18 19 20 21 22 23 24 25 26 
27 28 29 30 31 32 33 34 35 
36 37 38 39 40 41 42 43 44 
45 46 47 48 49 50 51 52 53 
54 55 56 57 58 59 60 61 62 
63 64 65 66 67 68 69 70 71 
72 73 74 75 76 77 78 79 80 
81 82 83 84 85 86 87 88 89 
90 91 92 93 94 95 96 97 98 
99 
POINT_DATA 100
FIELD FieldData 3
_theta 1 100 double
0 0.031733259127 0.063466518254 0.095199777382 0.12693303651 0.15866629564 0.19039955476 0.22213281389 0.25386607302 
0.28559933214 0.31733259127 0.3490658504 0.38079910953 0.41253236865 0.44426562778 0.47599888691 0.50773214603 0.53946540516 
0.57119866429 0.60293192342 0.63466518254 0.66639844167 0.6981317008 0.72986495992 0.76159821905 0.79333147818 0.82506473731 
0.85679799643 0.88853125556 0.92026451469 0.95199777382 0.98373103294 1.0154642921 1.0471975512 1.0789308103 1.1106640695 
1.1423973286 1.1741305877 1.2058638468 1.237597106 1.2693303651 1.3010636242 1.3327968833 1.3645301425 1.3962634016 
1.4279966607 1.4597299198 1.491463179 1.5231964381 1.5549296972 1.5866629564 1.6183962155 1.6501294746 1.6818627337 
1.7135959929 1.745329252 1.7770625111 1.8087957702 1.8405290294 1.8722622885 1.9039955476 1.9357288068 1.9674620659 
1.999195325 2.0309285841 2.0626618433 2.0943951024 2.1261283615 2.1578616206 2.1895948798 2.2213281389 2.253061398 
2.2847946572 2.3165279163 2.3482611754 2.3799944345 2.4117276937 2.4434609528 2.4751942119 2.506927471 2.5386607302 
2.5703939893 2.6021272484 2.6338605076 2.6655937667 2.6973270258 2.7290602849 2.7607935441 2.7925268032 2.8242600623 
2.8559933214 2.8877265806 2.9194598397 2.9511930988 2.982926358 3.0146596171 3.0463928762 3.0781261353 3.1098593945 
3.1415926536 
_radius 1 100 double
1.8254173396e-13 0.34397237203 0.68581210102 1.02350864 1.3556885414 1.68165408 2.00120662 2.3143455549 2.6209673531 
2.9206548757 3.2125676826 3.4953703119 3.7671161554 4.0250577709 4.2654507956 4.4834927883 4.6735375255 4.8296496939 
4.9464558898 5.0201494744 5.0494456161 5.0362681793 4.9859809152 4.9070462806 4.8100992178 4.7065495231 4.6069572832 
4.5195389713 4.4492204484 4.3975674367 4.3635897233 4.344944501 4.3388571835 4.3423758908 4.35211887 4.364012956 
4.3734624499 4.3760657706 4.368661447 4.3503096845 4.3228423715 4.290777804 4.2606021468 4.2396067617 4.2346038767 
4.2508785281 4.2916329963 4.3579680534 4.4492288569 4.5634339353 4.6975562386 4.8475971881 5.008557414 5.1744659023 
5.3386248985 5.4941752726 5.6349070025 5.7560398757 5.8547029176 5.9300117156 5.982797137 6.0151074736 6.0296149567 
6.0290394026 6.0156737226 5.9910664955 5.9558890407 5.9099884088 5.8526027162 5.7826922667 5.6993216589 5.6020179314 
5.491031669 5.3674460271 5.2331133941 5.0904423601 4.9420918702 4.7906400543 4.6382811024 4.4865789078 4.3362898011 
4.1872669872 4.0384674331 3.8880793643 3.733764204 3.5729689862 3.4032367855 3.2224436245 3.0289227356 2.8214831313 
2.5993640941 2.3621760018 2.1098650182 1.842718639 1.5614105371 1.2670680857 0.96133436683 0.64639207073 0.32492373405 
2.1965579009e-13 
_area 1 100 double
0 0.3302985765 1.3076157337 2.8955999966 5.0468741356 7.7179065865 10.880547603 14.524781229 18.653227991 
23.27263086 28.384295709 33.970274287 39.972480024 46.267439464 52.646358077 58.813379205 64.410393073 69.066766416 
72.462901803 74.391575066 74.801316099 73.810720553 71.689631602 68.810680573 65.582176992 62.380733851 59.504146161 
57.153666687 55.437430392 54.384659468 53.970678402 54.147884415 54.868659341 56.042105276 57.523625395 59.129369594 
60.635083872 61.823943932 62.535099411 62.706037045 62.395326625 61.753520995 60.958377386 60.188039328 59.624410541 
59.445874685 59.808340173 60.832138814 62.609841561 65.213772039 68.677538889 72.964000698 77.940998201 83.377936917 
88.972373368 94.394969191 99.335107999 103.54088858 106.84812341 109.19306703 110.60908986 111.21112006 111.17123605 
110.68758161 109.94913388 109.09987687 108.20530996 107.22648318 106.02112857 104.39017424 102.14745308 99.175638189 
95.455431492 91.069769289 86.187071522 81.029010965 75.830277178 70.7986621 66.083036544 61.755279255 57.80994219 
54.180789895 50.767042581 47.459266172 44.158283098 40.786218573 37.291938977 33.653230668 29.877057319 25.998395162 
22.07767551 18.196657742 14.452608258 10.950936166 7.796812212 5.0867285056 2.9013955709 1.3014897636 0.32707439033 
0 
