# vtk DataFile Version 5.1
vtk output
ASCII
DATASET POLYDATA
POINTS 1002 float
-0.62669 0.00412782 -0.121439 0.610077 0.0102299 -0.215049 -0.511168 0.1297 0.200536 
0.525109 -0.0462947 0.227147 0.091745 0.455846 -0.160192 -0.0381963 0.428372 0.139302 
0.105466 -0.0805648 -0.0305219 0.135503 -0.212738 0.119865 0.950394 0.140357 -0.0608356 
-0.888006 0.0932035 -0.0206667 0.906274 -0.423814 -0.0658782 -1.04595 -0.514982 -0.0434599 
-0.530444 0.0695345 -0.0895326 -0.41812 0.125628 -0.0620152 -0.285178 0.163933 -0.0453988 
-0.129757 0.177554 -0.0535379 0.0400436 0.161311 -0.098323 0.206685 0.120615 -0.167232 
0.351693 0.0756952 -0.224634 0.465059 0.0440974 -0.245932 0.548461 0.0255346 -0.236402 
-0.575769 0.0550499 -0.106595 -0.518493 0.110267 -0.0935243 -0.450946 0.169462 -0.0841192 
-0.364333 0.227867 -0.0816896 -0.256999 0.279253 -0.0939989 -0.145 0.323868 -0.124528 
-0.0510618 0.365848 -0.159759 0.0149489 0.404249 -0.178943 0.0588323 0.434665 -0.175791 
-0.616462 -0.00252438 -0.113625 -0.595033 -0.00778715 -0.102849 -0.555071 -0.00889923 -0.0906726 
-0.498612 -0.00125767 -0.0738353 -0.433793 0.0121781 -0.0480697 -0.358472 0.0220347 -0.0183318 
-0.260838 0.0222894 0.0023824 -0.139752 0.00835941 0.00531769 -0.0111204 -0.0259693 -0.00822101 
-0.687628 -0.0323947 -0.144848 -0.748699 -0.0608751 -0.165195 -0.802034 -0.0708428 -0.17878 
-0.841158 -0.0631045 -0.180668 -0.870701 -0.0481793 -0.16605 -0.898042 -0.0307111 -0.137895 
-0.918577 -0.00647077 -0.106882 -0.923172 0.0254748 -0.0787522 -0.91124 0.0601088 -0.0507991 
-0.713366 -0.0752847 -0.154718 -0.799069 -0.167234 -0.189122 -0.872387 -0.263593 -0.21092 
-0.925523 -0.357601 -0.212562 -0.96079 -0.448888 -0.201055 -0.984673 -0.533129 -0.184083 
-1.00209 -0.590771 -0.157622 -1.01801 -0.602187 -0.11888 -1.03425 -0.569946 -0.0770142 
0.585315 0.0490259 -0.231955 0.549037 0.0928579 -0.2458 0.50861 0.140174 -0.257712 
0.467396 0.190592 -0.264882 0.4203 0.244496 -0.261337 0.361067 0.298802 -0.244051 
0.292148 0.347684 -0.21828 0.222037 0.389006 -0.193827 0.155494 0.424769 -0.175435 
0.589292 -0.0162008 -0.20819 0.559168 -0.0424203 -0.197149 0.521599 -0.0645935 -0.179011 
0.477635 -0.0792122 -0.153813 0.427 -0.0879088 -0.127696 0.370487 -0.0947137 -0.107212 
0.310127 -0.099052 -0.0912645 0.246215 -0.0975327 -0.0738129 0.177614 -0.0901974 -0.0524805 
0.653138 0.0155045 -0.206498 0.697775 0.0213823 -0.203639 0.746497 0.0331241 -0.204436 
0.79859 0.0520377 -0.202237 0.845184 0.0730588 -0.193932 0.877795 0.0931102 -0.180208 
0.901643 0.11264 -0.159499 0.92616 0.128755 -0.13027 0.946891 0.137609 -0.0956431 
0.648257 -0.0254678 -0.184674 0.673906 -0.0693373 -0.1455 0.699061 -0.120186 -0.110969 
0.74724 -0.173012 -0.104951 0.82035 -0.225704 -0.131675 0.885148 -0.281646 -0.159714 
0.914128 -0.339021 -0.158335 0.915914 -0.386183 -0.130791 0.91123 -0.413889 -0.0967046 
-0.408426 0.135165 0.211067 -0.299996 0.131773 0.218104 -0.185475 0.123789 0.218674 
-0.0588527 0.109992 0.210512 0.0737529 0.085152 0.202986 0.189301 0.0521144 0.210619 
0.277991 0.0213337 0.230239 0.356711 -0.00310658 0.242931 0.440629 -0.0249241 0.239395 
-0.467058 0.156415 0.205849 -0.418884 0.18614 0.211338 -0.381498 0.22218 0.224992 
-0.356498 0.267131 0.244791 -0.326461 0.315438 0.255347 -0.278694 0.354861 0.245145 
-0.219569 0.379654 0.219234 -0.15852 0.395705 0.189335 -0.0976426 0.411133 0.16214 
-0.480002 0.110919 0.198169 -0.431083 0.0917563 0.190005 -0.369837 0.0703551 0.178637 
-0.303092 0.04362 0.169306 -0.228488 0.0102577 0.162173 -0.140979 -0.0278596 0.152709 
-0.0478393 -0.0691994 0.140576 0.0346484 -0.114524 0.130297 0.0957557 -0.163554 0.12411 
-0.58609 0.131348 0.191354 -0.658939 0.125706 0.178831 -0.724283 0.113655 0.158954 
-0.777507 0.0998916 0.127343 -0.81961 0.0882363 0.0899139 -0.854298 0.0784231 0.0592658 
-0.880295 0.0712395 0.0375613 -0.893743 0.0709844 0.0174552 -0.895123 0.0794527 -0.00325713 
-0.597183 0.0998536 0.18201 -0.683182 0.0530917 0.148296 -0.773648 -0.0116757 0.106756 
-0.878921 -0.093196 0.0748824 -0.98913 -0.187102 0.057908 -1.07049 -0.282009 0.042752 
-1.10178 -0.364943 0.0209145 -1.09452 -0.43118 -0.00268486 -1.07157 -0.481468 -0.0236574 
0.485053 0.00493469 0.232863 0.439904 0.0536698 0.231483 0.393462 0.0992464 0.218067 
0.346076 0.148327 0.194099 0.292742 0.203045 0.168357 0.228372 0.256247 0.148866 
0.154837 0.304105 0.138009 0.0810914 0.349506 0.134787 0.0159463 0.392316 0.136467 
0.508972 -0.0845968 0.225626 0.486766 -0.119791 0.21919 0.459682 -0.147262 0.20622 
0.42874 -0.169729 0.189321 0.388971 -0.192903 0.17632 0.334029 -0.215281 0.17121 
0.270171 -0.229831 0.167715 0.21343 -0.233297 0.157488 0.170902 -0.226925 0.139754 
0.584478 -0.0348534 0.2186 0.64604 -0.0226341 0.209237 0.710044 -0.0115304 0.196191 
0.772566 -0.000707671 0.173202 0.825149 0.0143278 0.138966 0.868305 0.0367481 0.100743 
0.910904 0.0642447 0.0632903 0.948808 0.0921918 0.0233909 0.964736 0.117865 -0.020004 
0.597228 -0.0922844 0.215704 0.662069 -0.137618 0.209693 0.716688 -0.178566 0.20663 
0.767786 -0.219914 0.195477 0.819324 -0.266166 0.167977 0.866652 -0.310642 0.124367 
0.902568 -0.345546 0.0711295 0.92057 -0.373834 0.0185851 0.919151 -0.400588 -0.0264019 
0.0700209 0.484104 -0.138431 0.0453603 0.511877 -0.112723 0.0186218 0.536417 -0.0786172 
-0.00638084 0.552239 -0.0322651 -0.022155 0.554005 0.0210844 -0.025588 0.541609 0.0677756 
-0.0236977 0.519395 0.0985789 -0.0253299 0.491226 0.116047 -0.0316847 0.459825 0.128017 
0.165771 0.451712 -0.151221 0.252063 0.440269 -0.148189 0.350174 0.423976 -0.154723 
0.450837 0.404991 -0.156241 0.541718 0.37846 -0.138835 0.620829 0.335505 -0.113728 
0.701272 0.278576 -0.0996953 0.792316 0.222485 -0.09424 0.882199 0.177138 -0.0830046 
0.00167003 0.470089 -0.149898 -0.108126 0.472194 -0.121461 -0.236451 0.454567 -0.0752038 
-0.371602 0.415123 -0.0288484 -0.49874 0.361392 -0.000988143 -0.609635 0.305738 0.00711809 
-0.70254 0.254129 0.00447537 -0.778221 0.20328 -0.00302905 -0.839005 0.149214 -0.0123754 
0.0535737 0.423998 0.11603 0.150743 0.410319 0.0916618 0.251046 0.384946 0.0701164 
0.352565 0.354639 0.0553992 0.455841 0.324415 0.0447687 0.566342 0.287673 0.0293269 
0.685925 0.241434 0.00586074 0.801545 0.197102 -0.0197896 0.893011 0.164426 -0.0421813 
-0.128495 0.446921 0.153145 -0.228927 0.462314 0.162669 -0.33387 0.474134 0.167743 
-0.431781 0.471567 0.168208 -0.515934 0.438506 0.158884 -0.592609 0.374952 0.134582 
-0.671252 0.299731 0.0981857 -0.751721 0.227712 0.0571958 -0.826217 0.159839 0.0167249 
0.126162 -0.117247 -0.0329983 0.144433 -0.158949 -0.0357859 0.153629 -0.196168 -0.0353052 
0.148242 -0.220937 -0.0258969 0.132765 -0.235239 -0.00488603 0.120536 -0.245289 0.0238247 
0.119301 -0.250129 0.0537188 0.125169 -0.24508 0.0806634 0.131473 -0.23093 0.102892 
0.2479 -0.158862 -0.0684187 0.365056 -0.242742 -0.0988994 0.463418 -0.311185 -0.116832 
0.563903 -0.364833 -0.136462 0.666373 -0.42036 -0.168447 0.74684 -0.474654 -0.193417 
0.797681 -0.502264 -0.185167 0.835742 -0.492567 -0.14738 0.872772 -0.460379 -0.103156 
-0.0505266 -0.038127 0.00193876 -0.231078 -0.0229872 0.0164709 -0.406953 -0.0546365 0.000949263 
-0.551686 -0.127944 -0.0364644 -0.666764 -0.215543 -0.071089 -0.77187 -0.297109 -0.0845912 
-0.871224 -0.370541 -0.0779221 -0.951612 -0.435402 -0.0631279 -1.00716 -0.485297 -0.0505543 
0.183154 -0.270914 0.127734 0.238277 -0.321562 0.129177 0.32763 -0.359695 0.113153 
0.450325 -0.393065 0.0804288 0.573414 -0.430919 0.0454282 0.67212 -0.465186 0.0176152 
0.751237 -0.478857 -0.00732057 0.819268 -0.469505 -0.0326508 0.872347 -0.448311 -0.0534943 
0.0613442 -0.160454 0.106828 -0.0726357 -0.106041 0.104338 -0.268442 -0.0706781 0.108234 
-0.472309 -0.0756486 0.100248 -0.626021 -0.124491 0.0675607 -0.738184 -0.199421 0.0236381 
-0.848233 -0.280064 -0.00634689 -0.951577 -0.359697 -0.0172863 -1.01857 -0.439307 -0.0251225 
0.996377 0.100104 -0.051476 1.01398 0.0442171 -0.0341084 1.01268 -0.0251596 -0.00915732 
1.01268 -0.0914084 0.0182949 1.01616 -0.147131 0.0362016 1.00708 -0.205805 0.032837 
0.983687 -0.273292 0.00942205 0.959064 -0.335753 -0.0209938 0.935712 -0.384239 -0.0470975 
-0.949014 0.00954517 -0.047619 -1.00974 -0.0887868 -0.0735325 -1.07547 -0.195403 -0.0932209 
-1.15 -0.306268 -0.104229 -1.21106 -0.418815 -0.10983 -1.21942 -0.518413 -0.111886 
-1.17313 -0.580524 -0.104748 -1.1148 -0.59312 -0.0851388 -1.07474 -0.565181 -0.0609978 
-0.469467 0.117338 -0.0806942 -0.398995 0.166602 -0.0761671 -0.34407 0.166699 -0.0609692 
-0.314518 0.216974 -0.0771619 -0.257004 0.205706 -0.0677697 -0.195461 0.19353 -0.057616 
-0.211701 0.263274 -0.0905801 -0.15711 0.241899 -0.0860507 -0.0935202 0.217528 -0.0847178 
-0.0269261 0.191928 -0.0892998 -0.0991383 0.301466 -0.123929 -0.0494276 0.272392 -0.122258 
0.0128005 0.237178 -0.12828 0.0815128 0.201134 -0.142796 0.145837 0.163656 -0.157235 
0.00159658 0.335704 -0.166823 0.051956 0.299548 -0.170301 0.112415 0.256179 -0.181012 
0.182535 0.211053 -0.201622 0.247293 0.167957 -0.220032 0.300937 0.123163 -0.226185 
0.0749097 0.37014 -0.193805 0.131838 0.329824 -0.205413 0.194261 0.281892 -0.221504 
0.264345 0.22997 -0.244443 0.329928 0.18095 -0.263822 0.381205 0.135097 -0.267689 
0.423842 0.0888851 -0.258411 0.122449 0.401352 -0.193017 0.186118 0.362063 -0.210387 
0.253108 0.3154 -0.232096 0.322531 0.261882 -0.256671 0.385881 0.207654 -0.275152 
0.436303 0.15783 -0.278703 0.477374 0.111249 -0.268385 0.515321 0.0664422 -0.252682 
-0.63814 0.0287958 -0.123308 -0.698518 0.0147373 -0.137887 -0.580868 0.0975149 -0.103412 
-0.745856 0.0189727 -0.150816 -0.635963 0.0968772 -0.114137 -0.509129 0.168784 -0.089094 
-0.778579 0.033747 -0.154976 -0.675339 0.107687 -0.12666 -0.557742 0.174639 -0.0964866 
-0.414879 0.234746 -0.0837187 -0.808599 0.0488051 -0.139124 -0.707012 0.120858 -0.127221 
-0.597136 0.18472 -0.102181 -0.463309 0.244064 -0.0844214 -0.302851 0.293713 -0.093372 
-0.839142 0.066061 -0.106223 -0.742334 0.133649 -0.10321 -0.636988 0.195873 -0.0901842 
[...]
POINT_DATA 1002
FIELD FieldData 4
_paraPhi 1 1002 double
6.2831853072 3.1415926536 6.2831853072 3.1415926536 4.7123889804 4.7123889804 1.5707963268 1.5707963268 3.6951670125 
5.7296109483 2.5880182947 0.5535743589 6.2831853072 6.2831853072 6.2831853072 6.2831853072 3.1415926536 3.1415926536 
3.1415926536 3.1415926536 3.1415926536 6.1053039672 5.898798347 5.6768734901 5.4599499503 5.2659633393 5.1032165617 
4.9713148346 4.8656852733 4.7809517865 0.17788134 0.38438696014 0.60631181711 0.82323535693 1.0172219679 1.1799687454 
1.3118704726 1.4175000338 1.5022335207 6.1892828907 6.1070320098 6.035312792 5.9728339911 5.9183214791 5.8706119594 
5.8286879411 5.7916808611 5.7588591896 0.093902416448 0.17615329733 0.2478725152 0.31035131605 0.36486382811 0.41257334776 
0.45449736604 0.4915044461 0.52432611754 3.3194739936 3.5259796137 3.7479044707 3.9648280105 4.1588146215 4.321561399 
4.4534631262 4.5590926874 4.6438261743 2.9637113136 2.7572056934 2.5352808365 2.3183572967 2.1243706857 1.9616239082 
1.829722181 1.7240926197 1.6393591329 3.23549507 3.3177459509 3.3894651688 3.4519439696 3.5064564817 3.5541660013 
3.5960900196 3.6330970997 3.6659187711 3.0476902371 2.9654393563 2.8937201384 2.8312413375 2.7767288255 2.7290193058 
2.6870952876 2.6500882075 2.617266536 6.2831853072 6.2831853072 6.2831853072 6.2831853072 3.1415926536 3.1415926536 
3.1415926536 3.1415926536 3.1415926536 6.1053039672 5.898798347 5.6768734901 5.4599499503 5.2659633393 5.1032165617 
4.9713148346 4.8656852733 4.7809517865 0.17788134 0.38438696014 0.60631181711 0.82323535693 1.0172219679 1.1799687454 
1.3118704726 1.4175000338 1.5022335207 6.1892828907 6.1070320098 6.035312792 5.9728339911 5.9183214791 5.8706119594 
5.8286879411 5.7916808611 5.7588591896 0.093902416448 0.17615329733 0.2478725152 0.31035131605 0.36486382811 0.41257334776 
0.45449736604 0.4915044461 0.52432611754 3.3194739936 3.5259796137 3.7479044707 3.9648280105 4.1588146215 4.321561399 
4.4534631262 4.5590926874 4.6438261743 2.9637113136 2.7572056934 2.5352808365 2.3183572967 2.1243706857 1.9616239082 
1.829722181 1.7240926197 1.6393591329 3.23549507 3.3177459509 3.3894651688 3.4519439696 3.5064564817 3.5541660013 
3.5960900196 3.6330970997 3.6659187711 3.0476902371 2.9654393563 2.8937201384 2.8312413375 2.7767288255 2.7290193058 
2.6870952876 2.6500882075 2.617266536 4.7123889804 4.7123889804 4.7123889804 4.7123889804 4.7123889804 4.7123889804 
4.7123889804 4.7123889804 4.7123889804 4.6087898617 4.4991390697 4.3857031936 4.2712800401 4.1588146215 4.0509635631 
3.94975894 3.8564636551 3.7716124825 4.8159880991 4.9256388911 5.0390747672 5.1534979207 5.2659633393 5.3738143976 
5.4750190208 5.5683143056 5.6531654782 4.6087898617 4.4991390697 4.3857031936 4.2712800401 4.1588146215 4.0509635631 
3.94975894 3.8564636551 3.7716124825 4.8159880991 4.9256388911 5.0390747672 5.1534979207 5.2659633393 5.3738143976 
5.4750190208 5.5683143056 5.6531654782 1.5707963268 1.5707963268 1.5707963268 1.5707963268 1.5707963268 1.5707963268 
1.5707963268 1.5707963268 1.5707963268 1.6743954455 1.7840462375 1.8974821136 2.0119052671 2.1243706857 2.232221744 
2.3334263672 2.426721652 2.5115728246 1.4671972081 1.3575464161 1.24411054 1.1296873865 1.0172219679 0.90937090954 
0.80816628637 0.71487100155 0.63001982895 1.6743954455 1.7840462375 1.8974821136 2.0119052671 2.1243706857 2.232221744 
2.3334263672 2.426721652 2.5115728246 1.4671972081 1.3575464161 1.24411054 1.1296873865 1.0172219679 0.90937090954 
0.80816628637 0.71487100155 0.63001982895 3.6007720849 3.4966939854 3.3839471039 3.2645756454 3.1415926536 3.0186096618 
2.8992382033 2.7864913217 2.6824132222 5.8240058758 5.9280839753 6.0408308569 6.1602023154 6.2831853072 0.12298299178 
0.2423544503 0.35510133185 0.45917943135 6.0560271438 5.7885595667 5.9702140275 5.5125918794 5.6029703303 5.7885595667 
5.2659633393 5.2659633393 5.2659633393 5.2659633393 5.0674903122 5.0120975802 4.9155579264 4.7123889804 4.1588146215 
4.9155579264 4.8353719722 4.7123889804 4.5092200343 4.1588146215 3.6362183941 4.8004512023 4.7123889804 4.5894059886 
4.4126803806 4.1588146215 3.8218076305 3.4545639333 4.7123889804 4.6243267584 4.5092200343 4.3572876485 4.1588146215 
3.9121860814 3.6362183941 3.368750817 6.0174235957 5.9434319871 5.8263323547 5.8809213739 5.7674481418 5.6279784266 
5.8278025282 5.718968232 5.5891129425 5.4372443565 5.7823484065 5.678536687 5.5575666702 5.4192596322 5.2659633393 
5.743164462 5.6444075337 5.5314983644 5.4046708639 5.2659633393 5.1195510325 5.7091357773 5.6152775188 5.5096229709 
5.3926039573 5.2659633393 5.1329233157 4.9978930058 5.6793730533 5.5901633916 5.4910209005 5.3824597928 5.2659633393 
5.1440684722 5.0201624502 4.8979782167 5.5683143056 5.4750190208 5.4750190208 5.3738143976 5.3738143976 5.3738143976 
5.2659633393 5.2659633393 5.2659633393 5.2659633393 5.1534979207 5.1534979207 5.1534979207 5.1534979207 5.1534979207 
5.0390747672 5.0390747672 5.0390747672 5.0390747672 5.0390747672 5.0390747672 4.9256388911 4.9256388911 4.9256388911 
4.9256388911 4.9256388911 4.9256388911 4.9256388911 4.8159880991 4.8159880991 4.8159880991 4.8159880991 4.8159880991 
4.8159880991 4.8159880991 4.8159880991 4.6087898617 4.6087898617 4.4991390697 4.6087898617 4.4991390697 4.3857031936 
4.6087898617 4.4991390697 4.3857031936 4.2712800401 4.6087898617 4.4991390697 4.3857031936 4.2712800401 4.1588146215 
4.6087898617 4.4991390697 4.3857031936 4.2712800401 4.1588146215 4.0509635631 4.6087898617 4.4991390697 4.3857031936 
4.2712800401 4.1588146215 4.0509635631 3.94975894 4.6087898617 4.4991390697 4.3857031936 4.2712800401 4.1588146215 
4.0509635631 3.94975894 3.8564636551 4.526799744 4.4046155105 4.426884955 4.2807094886 4.2918546451 4.3052269283 
4.1588146215 4.1588146215 4.1588146215 4.1588146215 4.042318168 4.0321740035 4.0201070968 4.0055183285 3.9875336042 
3.9337570603 3.9151549899 3.8932795963 3.8672112905 3.8356650183 3.7967995342 3.8346145692 3.809500442 3.7803704271 
3.7462412737 3.7058097288 3.657329819 3.5984456061 3.7454049075 3.7156421835 3.6816134988 3.6424295543 3.5969754326 
3.5438565869 3.4813459737 3.4073543651 3.5642842451 3.4524645613 3.5233842518 3.3320300872 3.403123212 3.4773852225 
3.20576226 3.2746326772 3.348015857 3.4255060145 3.0774230472 3.1415926536 3.2112816139 3.2864685043 3.3668817272 
2.95115522 3.00855263 3.0719036933 3.1415926536 3.2178377658 3.3005964304 2.8307207459 2.8800620952 2.9351694502 
2.9967168029 3.0653475414 3.1415926536 3.225752376 2.718901062 2.7598010554 2.8058000847 2.8576792927 2.91630358 
2.9825888767 3.0574329311 3.1415926536 3.5642842451 3.5233842518 3.4524645613 3.4773852225 3.403123212 3.3320300872 
3.4255060145 3.348015857 3.2746326772 3.20576226 3.3668817272 3.2864685043 3.2112816139 3.1415926536 3.0774230472 
3.3005964304 3.2178377658 3.1415926536 3.0719036933 3.00855263 2.95115522 3.225752376 3.1415926536 3.0653475414 
2.9967168029 2.9351694502 2.8800620952 2.8307207459 3.1415926536 3.0574329311 2.9825888767 2.91630358 2.8576792927 
2.8058000847 2.7598010554 2.718901062 4.526799744 4.426884955 4.4046155105 4.3052269283 4.2918546451 4.2807094886 
4.1588146215 4.1588146215 4.1588146215 4.1588146215 3.9875336042 4.0055183285 4.0201070968 4.0321740035 4.042318168 
3.7967995342 3.8356650183 3.8672112905 3.8932795963 3.9151549899 3.9337570603 3.5984456061 3.657329819 3.7058097288 
3.7462412737 3.7803704271 3.809500442 3.8346145692 3.4073543651 3.4813459737 3.5438565869 3.5969754326 3.6424295543 
3.6816134988 3.7156421835 3.7454049075 4.7123889804 4.8004512023 4.6243267584 4.9155579264 4.7123889804 4.5092200343 
5.0674903122 4.8353719722 4.5894059886 4.3572876485 5.2659633393 5.0120975802 4.7123889804 4.4126803806 4.1588146215 
5.5125918794 5.2659633393 4.9155579264 4.5092200343 4.1588146215 3.9121860814 5.7885595667 5.6029703303 5.2659633393 
4.7123889804 4.1588146215 3.8218076305 3.6362183941 6.0560271438 5.9702140275 5.7885595667 5.2659633393 4.1588146215 
3.6362183941 3.4545639333 3.368750817 0.22715816343 0.49462574053 0.3129712797 0.77059342779 0.68021497688 0.49462574053 
1.0172219679 1.0172219679 1.0172219679 1.0172219679 1.2156949949 1.271087727 1.3676273807 1.5707963268 2.1243706857 
1.3676273807 1.447813335 1.5707963268 1.7739652728 2.1243706857 2.6469669131 1.4827341049 1.5707963268 1.6937793186 
1.8705049266 2.1243706857 2.4613776767 2.8286213739 1.5707963268 1.6588585487 1.7739652728 1.9258976586 2.1243706857 
2.3709992258 2.6469669131 2.9144344902 1.7563855631 1.8785697967 1.8563003522 2.0024758186 1.9913306621 1.9779583789 
2.1243706857 2.1243706857 2.1243706857 2.1243706857 2.2408671392 2.2510113037 2.2630782103 2.2776669786 2.295651703 
2.3494282469 2.3680303173 2.3899057108 2.4159740166 2.4475202889 2.486385773 2.448570738 2.4736848652 2.5028148801 
2.5369440334 2.5773755784 2.6258554882 2.6847397011 2.5377803997 2.5675431237 2.6015718084 2.6407557529 2.6862098746 
2.7393287203 2.8018393335 2.8758309421 1.6743954455 1.6743954455 1.7840462375 1.6743954455 1.7840462375 1.8974821136 
1.6743954455 1.7840462375 1.8974821136 2.0119052671 1.6743954455 1.7840462375 1.8974821136 2.0119052671 2.1243706857 
1.6743954455 1.7840462375 1.8974821136 2.0119052671 2.1243706857 2.232221744 1.6743954455 1.7840462375 1.8974821136 
2.0119052671 2.1243706857 2.232221744 2.3334263672 1.6743954455 1.7840462375 1.8974821136 2.0119052671 2.1243706857 
2.232221744 2.3334263672 2.426721652 1.4671972081 1.3575464161 1.4671972081 1.24411054 1.3575464161 1.4671972081 
1.1296873865 1.24411054 1.3575464161 1.4671972081 1.0172219679 1.1296873865 1.24411054 1.3575464161 1.4671972081 
0.90937090954 1.0172219679 1.1296873865 1.24411054 1.3575464161 1.4671972081 0.80816628637 0.90937090954 1.0172219679 
1.1296873865 1.24411054 1.3575464161 1.4671972081 0.71487100155 0.80816628637 0.90937090954 1.0172219679 1.1296873865 
1.24411054 1.3575464161 1.4671972081 0.60381225391 0.57404952988 0.69302191562 0.54002084522 0.66790778838 0.79216440667 
0.50083690068 0.63877777351 0.77356233629 0.90072551443 0.45538277901 0.60464862014 0.75168694275 0.89058134991 1.0172219679 
0.40226393329 0.56421707518 0.72561863695 0.87851444325 1.0172219679 1.139116835 0.33975332011 0.51573716537 0.69407236469 
0.86392567495 1.0172219679 1.1502619915 1.2630228569 0.26576171152 0.45685295248 0.6552068806 0.84594095064 1.0172219679 
1.1636342747 1.2852923014 1.3852070904 0.22715816343 0.3129712797 0.49462574053 0.49462574053 0.68021497688 0.77059342779 
1.0172219679 1.0172219679 1.0172219679 1.0172219679 2.1243706857 1.5707963268 1.3676273807 1.271087727 1.2156949949 
2.6469669131 2.1243706857 1.7739652728 1.5707963268 1.447813335 1.3676273807 2.8286213739 2.4613776767 2.1243706857 
1.8705049266 1.6937793186 1.5707963268 1.4827341049 2.9144344902 2.6469669131 2.3709992258 2.1243706857 1.9258976586 
1.7739652728 1.6588585487 1.5707963268 1.7563855631 1.8563003522 1.8785697967 1.9779583789 1.9913306621 2.0024758186 
2.1243706857 2.1243706857 2.1243706857 2.1243706857 2.295651703 2.2776669786 2.2630782103 2.2510113037 2.2408671392 
2.486385773 2.4475202889 2.4159740166 2.3899057108 2.3680303173 2.3494282469 2.6847397011 2.6258554882 2.5773755784 
2.5369440334 2.5028148801 2.4736848652 2.448570738 2.8758309421 2.8018393335 2.7393287203 2.6862098746 2.6407557529 
2.6015718084 2.5675431237 2.5377803997 5.8604937156 5.901393709 5.9723133995 5.9473927383 6.0216547488 6.0927478736 
5.9992719463 6.0767621038 6.1501452836 6.2190157008 6.0578962336 6.1383094565 6.2134963469 0 0.064169606361 
6.1241815303 6.206940195 6.2831853072 0.069688960264 0.13304002361 0.19043743361 6.1990255847 0 0.07624511221 
0.14487585072 0.20642320337 0.26153055843 0.3108719077 0 0.084159722458 0.15900377685 0.22528907359 0.28391336087 
0.3357925689 0.38179159818 0.42269159155 5.8604937156 5.9723133995 5.901393709 6.0927478736 6.0216547488 5.9473927383 
6.2190157008 6.1501452836 6.0767621038 5.9992719463 0.064169606361 0 6.2134963469 6.1383094565 6.0578962336 
0.19043743361 0.13304002361 0.069688960264 6.2831853072 6.206940195 6.1241815303 0.3108719077 0.26153055843 0.20642320337 
0.14487585072 0.07624511221 6.2831853072 6.1990255847 0.42269159155 0.38179159818 0.3357925689 0.28391336087 0.22528907359 
0.15900377685 0.084159722458 0 5.6793730533 5.7091357773 5.5901633916 5.743164462 5.6152775188 5.4910209005 
5.7823484065 5.6444075337 5.5096229709 5.3824597928 5.8278025282 5.678536687 5.5314983644 5.3926039573 5.2659633393 
5.8809213739 5.718968232 5.5575666702 5.4046708639 5.2659633393 5.1440684722 5.9434319871 5.7674481418 5.5891129425 
5.4192596322 5.2659633393 5.1329233157 5.0201624502 6.0174235957 5.8263323547 5.6279784266 5.4372443565 5.2659633393 
5.1195510325 4.9978930058 4.8979782167 1.3852070904 1.2852923014 1.2630228569 1.1636342747 1.1502619915 1.139116835 
1.0172219679 1.0172219679 1.0172219679 1.0172219679 0.84594095064 0.86392567495 0.87851444325 0.89058134991 0.90072551443 
0.6552068806 0.69407236469 0.72561863695 0.75168694275 0.77356233629 0.79216440667 0.45685295248 0.51573716537 0.56421707518 
0.60464862014 0.63877777351 0.66790778838 0.69302191562 0.26576171152 0.33975332011 0.40226393329 0.45538277901 0.50083690068 
0.54002084522 0.57404952988 0.60381225391 
_paraPhiHalf 1 1002 double
0 3.1415926536 0 3.1415926536 1.5707963268 1.5707963268 1.5707963268 1.5707963268 2.5880182947 
0.5535743589 2.5880182947 0.5535743589 0 0 0 0 3.1415926536 3.1415926536 
3.1415926536 3.1415926536 3.1415926536 0.17788134 0.38438696014 0.60631181711 0.82323535693 1.0172219679 1.1799687454 
1.3118704726 1.4175000338 1.5022335207 0.17788134 0.38438696014 0.60631181711 0.82323535693 1.0172219679 1.1799687454 
1.3118704726 1.4175000338 1.5022335207 0.093902416448 0.17615329733 0.2478725152 0.31035131605 0.36486382811 0.41257334776 
0.45449736604 0.4915044461 0.52432611754 0.093902416448 0.17615329733 0.2478725152 0.31035131605 0.36486382811 0.41257334776 
0.45449736604 0.4915044461 0.52432611754 2.9637113136 2.7572056934 2.5352808365 2.3183572967 2.1243706857 1.9616239082 
1.829722181 1.7240926197 1.6393591329 2.9637113136 2.7572056934 2.5352808365 2.3183572967 2.1243706857 1.9616239082 
1.829722181 1.7240926197 1.6393591329 3.0476902371 2.9654393563 2.8937201384 2.8312413375 2.7767288255 2.7290193058 
2.6870952876 2.6500882075 2.617266536 3.0476902371 2.9654393563 2.8937201384 2.8312413375 2.7767288255 2.7290193058 
2.6870952876 2.6500882075 2.617266536 0 0 0 0 3.1415926536 3.1415926536 
3.1415926536 3.1415926536 3.1415926536 0.17788134 0.38438696014 0.60631181711 0.82323535693 1.0172219679 1.1799687454 
1.3118704726 1.4175000338 1.5022335207 0.17788134 0.38438696014 0.60631181711 0.82323535693 1.0172219679 1.1799687454 
1.3118704726 1.4175000338 1.5022335207 0.093902416448 0.17615329733 0.2478725152 0.31035131605 0.36486382811 0.41257334776 
0.45449736604 0.4915044461 0.52432611754 0.093902416448 0.17615329733 0.2478725152 0.31035131605 0.36486382811 0.41257334776 
0.45449736604 0.4915044461 0.52432611754 2.9637113136 2.7572056934 2.5352808365 2.3183572967 2.1243706857 1.9616239082 
1.829722181 1.7240926197 1.6393591329 2.9637113136 2.7572056934 2.5352808365 2.3183572967 2.1243706857 1.9616239082 
1.829722181 1.7240926197 1.6393591329 3.0476902371 2.9654393563 2.8937201384 2.8312413375 2.7767288255 2.7290193058 
2.6870952876 2.6500882075 2.617266536 3.0476902371 2.9654393563 2.8937201384 2.8312413375 2.7767288255 2.7290193058 
2.6870952876 2.6500882075 2.617266536 1.5707963268 1.5707963268 1.5707963268 1.5707963268 1.5707963268 1.5707963268 
1.5707963268 1.5707963268 1.5707963268 1.6743954455 1.7840462375 1.8974821136 2.0119052671 2.1243706857 2.232221744 
2.3334263672 2.426721652 2.5115728246 1.4671972081 1.3575464161 1.24411054 1.1296873865 1.0172219679 0.90937090954 
0.80816628637 0.71487100155 0.63001982895 1.6743954455 1.7840462375 1.8974821136 2.0119052671 2.1243706857 2.232221744 
2.3334263672 2.426721652 2.5115728246 1.4671972081 1.3575464161 1.24411054 1.1296873865 1.0172219679 0.90937090954 
0.80816628637 0.71487100155 0.63001982895 1.5707963268 1.5707963268 1.5707963268 1.5707963268 1.5707963268 1.5707963268 
1.5707963268 1.5707963268 1.5707963268 1.6743954455 1.7840462375 1.8974821136 2.0119052671 2.1243706857 2.232221744 
2.3334263672 2.426721652 2.5115728246 1.4671972081 1.3575464161 1.24411054 1.1296873865 1.0172219679 0.90937090954 
0.80816628637 0.71487100155 0.63001982895 1.6743954455 1.7840462375 1.8974821136 2.0119052671 2.1243706857 2.232221744 
2.3334263672 2.426721652 2.5115728246 1.4671972081 1.3575464161 1.24411054 1.1296873865 1.0172219679 0.90937090954 
0.80816628637 0.71487100155 0.63001982895 2.6824132222 2.7864913217 2.8992382033 3.0186096618 3.1415926536 3.0186096618 
2.8992382033 2.7864913217 2.6824132222 0.45917943135 0.35510133185 0.2423544503 0.12298299178 0 0.12298299178 
0.2423544503 0.35510133185 0.45917943135 0.22715816343 0.49462574053 0.3129712797 0.77059342779 0.68021497688 0.49462574053 
1.0172219679 1.0172219679 1.0172219679 1.0172219679 1.2156949949 1.271087727 1.3676273807 1.5707963268 2.1243706857 
1.3676273807 1.447813335 1.5707963268 1.7739652728 2.1243706857 2.6469669131 1.4827341049 1.5707963268 1.6937793186 
1.8705049266 2.1243706857 2.4613776767 2.8286213739 1.5707963268 1.6588585487 1.7739652728 1.9258976586 2.1243706857 
2.3709992258 2.6469669131 2.9144344902 0.26576171152 0.33975332011 0.45685295248 0.40226393329 0.51573716537 0.6552068806 
0.45538277901 0.56421707518 0.69407236469 0.84594095064 0.50083690068 0.60464862014 0.72561863695 0.86392567495 1.0172219679 
0.54002084522 0.63877777351 0.75168694275 0.87851444325 1.0172219679 1.1636342747 0.57404952988 0.66790778838 0.77356233629 
0.89058134991 1.0172219679 1.1502619915 1.2852923014 0.60381225391 0.69302191562 0.79216440667 0.90072551443 1.0172219679 
1.139116835 1.2630228569 1.3852070904 0.71487100155 0.80816628637 0.80816628637 0.90937090954 0.90937090954 0.90937090954 
1.0172219679 1.0172219679 1.0172219679 1.0172219679 1.1296873865 1.1296873865 1.1296873865 1.1296873865 1.1296873865 
1.24411054 1.24411054 1.24411054 1.24411054 1.24411054 1.24411054 1.3575464161 1.3575464161 1.3575464161 
1.3575464161 1.3575464161 1.3575464161 1.3575464161 1.4671972081 1.4671972081 1.4671972081 1.4671972081 1.4671972081 
1.4671972081 1.4671972081 1.4671972081 1.6743954455 1.6743954455 1.7840462375 1.6743954455 1.7840462375 1.8974821136 
1.6743954455 1.7840462375 1.8974821136 2.0119052671 1.6743954455 1.7840462375 1.8974821136 2.0119052671 2.1243706857 
1.6743954455 1.7840462375 1.8974821136 2.0119052671 2.1243706857 2.232221744 1.6743954455 1.7840462375 1.8974821136 
2.0119052671 2.1243706857 2.232221744 2.3334263672 1.6743954455 1.7840462375 1.8974821136 2.0119052671 2.1243706857 
2.232221744 2.3334263672 2.426721652 1.7563855631 1.8785697967 1.8563003522 2.0024758186 1.9913306621 1.9779583789 
2.1243706857 2.1243706857 2.1243706857 2.1243706857 2.2408671392 2.2510113037 2.2630782103 2.2776669786 2.295651703 
2.3494282469 2.3680303173 2.3899057108 2.4159740166 2.4475202889 2.486385773 2.448570738 2.4736848652 2.5028148801 
2.5369440334 2.5773755784 2.6258554882 2.6847397011 2.5377803997 2.5675431237 2.6015718084 2.6407557529 2.6862098746 
2.7393287203 2.8018393335 2.8758309421 2.718901062 2.8307207459 2.7598010554 2.95115522 2.8800620952 2.8058000847 
3.0774230472 3.00855263 2.9351694502 2.8576792927 3.0774230472 3.1415926536 3.0719036933 2.9967168029 2.91630358 
2.95115522 3.00855263 3.0719036933 3.1415926536 3.0653475414 2.9825888767 2.8307207459 2.8800620952 2.9351694502 
2.9967168029 3.0653475414 3.1415926536 3.0574329311 2.718901062 2.7598010554 2.8058000847 2.8576792927 2.91630358 
2.9825888767 3.0574329311 3.1415926536 2.718901062 2.7598010554 2.8307207459 2.8058000847 2.8800620952 2.95115522 
2.8576792927 2.9351694502 3.00855263 3.0774230472 2.91630358 2.9967168029 3.0719036933 3.1415926536 3.0774230472 
2.9825888767 3.0653475414 3.1415926536 3.0719036933 3.00855263 2.95115522 3.0574329311 3.1415926536 3.0653475414 