# vtk DataFile Version 5.1
vtk output
ASCII
DATASET POLYDATA
POINTS 100 float
0.00777623 -1.03601 -0.561705 0.00851258 -1.03504 -0.561461 0.0105585 -1.03221 -0.560435 
0.0136854 -1.02765 -0.558632 0.017543 -1.02153 -0.556066 0.0217 -1.0141 -0.552756 
0.0256937 -1.0056 -0.548734 0.0290826 -0.996292 -0.544037 0.0314953 -0.986405 -0.538713 
0.0326703 -0.976121 -0.532818 0.0324813 -0.965569 -0.526411 0.030946 -0.954812 -0.519553 
0.0282171 -0.943855 -0.512299 0.0245569 -0.93265 -0.504698 0.0203 -0.921117 -0.496787 
0.0158076 -0.909156 -0.48859 0.0114208 -0.896669 -0.480115 0.00741742 -0.883575 -0.471359 
0.00397866 -0.869824 -0.462311 0.00116922 -0.855399 -0.452954 -0.00106727 -0.84032 -0.443278 
-0.00289705 -0.824635 -0.433276 -0.00457131 -0.80841 -0.422959 -0.00639108 -0.791716 -0.412349 
-0.00866686 -0.774614 -0.401488 -0.0116782 -0.757143 -0.390427 -0.0156387 -0.739314 -0.379229 
-0.0206704 -0.721103 -0.367955 -0.0267908 -0.70246 -0.356656 -0.0339142 -0.683313 -0.345372 
-0.0418658 -0.663585 -0.334116 -0.0504076 -0.643207 -0.32288 -0.0592704 -0.622137 -0.311628 
-0.0681905 -0.600367 -0.300304 -0.0769425 -0.577936 -0.28884 -0.0853672 -0.554927 -0.277167 
-0.0933889 -0.53146 -0.265225 -0.101021 -0.507679 -0.252975 -0.108359 -0.48373 -0.240414 
-0.115563 -0.459738 -0.227571 -0.12283 -0.435782 -0.214516 -0.130363 -0.411874 -0.201346 
-0.138337 -0.387941 -0.188182 -0.146867 -0.363822 -0.175144 -0.15599 -0.339268 -0.162339 
-0.165646 -0.313959 -0.149838 -0.175675 -0.28753 -0.137657 -0.18583 -0.2596 -0.12575 
-0.195788 -0.229817 -0.113998 -0.205176 -0.197893 -0.102215 -0.213603 -0.163639 -0.0901617 
-0.220684 -0.126999 -0.0775601 -0.226072 -0.0880666 -0.0641246 -0.229474 -0.047088 -0.0495896 
-0.230673 -0.00445532 -0.0337396 -0.229527 0.0393162 -0.016435 -0.225977 0.0836228 0.00236807 
-0.220032 0.127814 0.0226082 -0.211764 0.171242 0.0441201 -0.201291 0.213302 0.0666478 
-0.18876 0.253483 0.0898667 -0.174337 0.29139 0.113416 -0.158195 0.326773 0.136932 
-0.140504 0.359526 0.160086 -0.12143 0.389684 0.182615 -0.10113 0.417403 0.204346 
-0.0797511 0.442923 0.225208 -0.0574362 0.466537 0.245239 -0.034318 0.488547 0.264566 
-0.010521 0.509227 0.283393 0.0138423 0.528792 0.301963 0.0386746 0.547376 0.32053 
0.0638993 0.565016 0.339319 0.0894639 0.581661 0.358501 0.115343 0.597179 0.378168 
0.14154 0.611382 0.398324 0.16808 0.624057 0.418881 0.195007 0.635 0.439679 
0.222372 0.644045 0.460502 0.250219 0.651099 0.48111 0.278572 0.656156 0.501266 
0.307421 0.659315 0.520773 0.336708 0.660776 0.539491 0.366319 0.66083 0.557353 
0.396084 0.659838 0.574369 0.425773 0.658202 0.590619 0.455108 0.656334 0.606227 
0.483774 0.654615 0.621341 0.511436 0.65337 0.636096 0.537755 0.652837 0.650587 
0.562404 0.653152 0.664835 0.585087 0.654337 0.678777 0.605548 0.656307 0.69225 
0.62358 0.65888 0.705004 0.639022 0.661804 0.716716 0.651762 0.664781 0.727021 
0.661725 0.667506 0.735543 0.668866 0.669695 0.741939 0.673163 0.671122 0.745935 
0.674604 0.671636 0.747352 
LINES 2 100
OFFSETS vtktypeint64
0 100 
CONNECTIVITY vtktypeint64
0 1 2 3 4 5 6 7 8 
9 10 11 12 13 14 15 16 17 
18 19 20 21 22 23 24 25 26 
27 28 29 30 31 32 33 34 35 
36 37 38 39 40 41 42 43 44 
45 46 47 48 49 50 51 52 53 
54 55 56 57 58 59 60 61 62 
63 64 65 66 67 68 69 70 71 
72 73 74 75 76 77 78 79 80 
81 82 83 84 85 86 87 88 89 
90 91 92 93 94 95 96 97 98 
99 
POINT_DATA 100
FIELD FieldData 3
_theta 1 100 double
0 0.031733259127 0.063466518254 0.095199777382 0.12693303651 0.15866629564 0.19039955476 0.22213281389 0.25386607302 
0.28559933214 0.31733259127 0.3490658504 0.38079910953 0.41253236865 0.44426562778 0.47599888691 0.50773214603 0.53946540516 
0.57119866429 0.60293192342 0.63466518254 0.66639844167 0.6981317008 0.72986495992 0.76159821905 0.79333147818 0.82506473731 
0.85679799643 0.88853125556 0.92026451469 0.95199777382 0.98373103294 1.0154642921 1.0471975512 1.0789308103 1.1106640695 
1.1423973286 1.1741305877 1.2058638468 1.237597106 1.2693303651 1.3010636242 1.3327968833 1.3645301425 1.3962634016 
1.4279966607 1.4597299198 1.491463179 1.5231964381 1.5549296972 1.5866629564 1.6183962155 1.6501294746 1.6818627337 
1.7135959929 1.745329252 1.7770625111 1.8087957702 1.8405290294 1.8722622885 1.9039955476 1.9357288068 1.9674620659 
1.999195325 2.0309285841 2.0626618433 2.0943951024 2.1261283615 2.1578616206 2.1895948798 2.2213281389 2.253061398 
2.2847946572 2.3165279163 2.3482611754 2.3799944345 2.4117276937 2.4434609528 2.4751942119 2.506927471 2.5386607302 
2.5703939893 2.6021272484 2.6338605076 2.6655937667 2.6973270258 2.7290602849 2.7607935441 2.7925268032 2.8242600623 
2.8559933214 2.8877265806 2.9194598397 2.9511930988 2.982926358 3.0146596171 3.0463928762 3.0781261353 3.1098593945 
3.1415926536 
_radius 1 100 double
1.4218006215e-15 0.017018064581 0.033838339148 0.050282517965 0.066210624897 0.081532707634 0.096213829414 0.11027226068 0.12377134622 
0.13680580033 0.14948385832 0.16190813738 0.17415938866 0.18628707492 0.19830846088 0.21021489293 0.22198176303 0.23357795039 
0.24497115063 0.25612713298 0.267003327 0.27753967925 0.28765148032 0.29722883789 0.30614533469 0.31427497977 0.3215134004 
0.3277976528 0.33311950378 0.33752917994 0.341129509 0.3440628944 0.34649450996 0.34859405268 0.35051636439 0.35238030388 
0.35424659423 0.35609778712 0.35782503393 0.35922662106 0.36002238642 0.35988552736 0.35848884593 0.35555793519 0.35092149742 
0.34454957346 0.3365727969 0.32727841465 0.31708090403 0.30646567246 0.29590397493 0.28574780272 0.27615425581 0.26711474172 
0.25858833051 0.25064410216 0.24353155436 0.23766240761 0.233521767 0.23152942981 0.23187492707 0.23438671707 0.23853008108 
0.24355934583 0.24872866014 0.25345217651 0.25737685518 0.26038087253 0.26252253149 0.26396471052 0.26489866489 0.26548706155 
0.26583732169 0.26600407752 0.26600854065 0.26585758742 0.26554841344 0.26505438101 0.2642997719 0.263138972 0.26135402229 
0.2586747726 0.25481533377 0.24951546791 0.2425766525 0.23388654078 0.22342918904 0.21128082551 0.1975930696 0.1825679771 
0.16643108223 0.1494082445 0.13170936016 0.11351832247 0.094986281266 0.07622624799 0.057311528031 0.038283618066 0.019169759641 
4.1600106808e-16 
_area 1 100 double
0 0.00088665281243 0.0035036661875 0.0077294981149 0.013383688184 0.020253957926 0.028126315541 0.036815889496 0.046196199784 
0.056220632152 0.066925456522 0.078405598838 0.090765743743 0.1040643265 0.11827479646 0.13328192579 0.14891695573 0.16501970534 
0.18150056253 0.19836787513 0.21569595961 0.2335359681 0.25180337714 0.27019254574 0.28816027222 0.30499424017 0.31995292773 
0.33243787817 0.34214286471 0.34912735646 0.35378753338 0.35674184403 0.35869125289 0.36032508543 0.3623032205 0.36522682267 
0.36937213185 0.37440164607 0.3796418754 0.38443041805 0.38836127338 0.39226046077 0.3940348434 0.39185748299 0.38498828879 
0.37317951841 0.35677078134 0.33672339946 0.31455604847 0.29216705612 0.2714547201 0.2537847051 0.23935137654 0.2274126665 
0.21700175312 0.20749112152 0.19889575663 0.19179164783 0.18690308455 0.18452040904 0.18428073819 0.18554304945 0.18773978421 
0.19038300673 0.19296146268 0.19497688792 0.1960722172 0.1961286726 0.19526293672 0.19370464113 0.19162387424 0.18903330789 
0.18584714236 0.18205207698 0.17783694038 0.17357508177 0.16966432544 0.16633111278 0.16354081118 0.16104818651 0.15850329795 
0.15552675968 0.151731199 0.14673231411 0.14020381147 0.13195565666 0.12197396678 0.11041328788 0.09757186152 0.083868593387 
0.069819279514 0.056001897201 0.043003835407 0.031352306318 0.021440025393 0.013469941054 0.007452093371 0.0032746811768 0.00081397143348 
4.3456500202e-16 
