# vtk DataFile Version 5.1
vtk output
ASCII
DATASET POLYDATA
POINTS 1002 float
-116.892 -99.4987 103.063 -119.667 -120.883 92.9525 -118.162 -98.6623 98.2988 
-118.86 -115.274 86.6339 -125.704 -110.53 97.4252 -125.125 -107.378 93.9376 
-116.233 -111.584 95.2887 -115.206 -109.875 92.7107 -122.912 -123.885 86.5818 
-117.764 -94.3506 105.389 -112.809 -125.934 86.3892 -105.879 -95.857 105.486 
-117.929 -101.276 101.972 -118.84 -103.466 100.792 -119.595 -105.646 99.4884 
-120.182 -107.768 98.1938 -120.547 -110.199 97.1176 -120.658 -113.053 96.3072 
-120.563 -115.902 95.6009 -120.331 -118.23 94.8145 -120.013 -119.845 93.9027 
-117.778 -100.249 102.579 -118.765 -101.153 102.034 -119.853 -102.2 101.4 
-121.016 -103.488 100.726 -122.168 -105.005 100.132 -123.177 -106.441 99.6354 
-123.974 -107.552 99.0984 -124.614 -108.478 98.4734 -125.185 -109.463 97.8827 
-116.748 -99.82 102.793 -116.651 -100.431 102.393 -116.582 -101.433 101.878 
-116.573 -102.616 101.223 -116.674 -103.627 100.345 -116.847 -104.508 99.2337 
-116.959 -105.704 98.0388 -116.904 -107.462 96.946 -116.656 -109.555 96.0331 
-116.308 -98.5866 103.888 -115.759 -98.0217 104.827 -115.406 -97.8609 105.923 
-115.369 -97.9393 106.994 -115.621 -97.8223 107.594 -116.012 -97.1826 107.482 
-116.407 -96.2043 106.96 -116.797 -95.3189 106.432 -117.243 -94.7208 105.957 
-115.571 -98.4249 104.149 -114 -97.9279 105.487 -112.316 -97.9259 106.876 
-110.686 -98.0974 107.96 -109.134 -98.2728 108.473 -107.607 -98.4056 108.369 
-106.253 -98.268 107.773 -105.424 -97.6635 106.93 -105.334 -96.7486 106.116 
-120.382 -120.511 93.4225 -121.166 -120.122 94.0125 -121.978 -119.671 94.6816 
-122.776 -118.953 95.3029 -123.529 -117.914 95.8066 -124.204 -116.751 96.2544 
-124.772 -115.527 96.6852 -125.21 -114.065 97.0297 -125.512 -112.328 97.2517 
-119.185 -120.689 93.1447 -118.671 -120.405 93.3814 -118.163 -119.914 93.6114 
-117.683 -119.218 93.8588 -117.191 -118.435 94.1832 -116.708 -117.514 94.5265 
-116.385 -116.245 94.7627 -116.284 -114.65 94.8961 -116.281 -113.025 95.0443 
-119.758 -121.516 92.2755 -119.937 -122.173 91.6004 -120.274 -122.8 90.9023 
-120.73 -123.346 90.1557 -121.158 -123.882 89.4353 -121.519 -124.441 88.8142 
-121.916 -124.837 88.2208 -122.358 -124.854 87.5834 -122.717 -124.488 86.9916 
-119.02 -121.519 92.0624 -118.344 -121.97 91.0899 -117.611 -122.384 90.125 
-116.777 -123.027 89.2983 -115.919 -123.933 88.7001 -115.167 -124.82 88.294 
-114.506 -125.482 87.9237 -113.845 -125.925 87.4535 -113.234 -126.115 86.8997 
-118.782 -99.8653 97.0838 -119.281 -101.372 95.7157 -119.579 -103.588 94.4517 
-119.69 -106.3 93.3627 -119.677 -108.625 92.1567 -119.57 -110.135 90.6681 
-119.388 -111.331 89.2213 -119.186 -112.677 88.1418 -119.008 -114.069 87.351 
-118.8 -99.0349 97.7733 -119.527 -99.5464 97.1914 -120.378 -100.145 96.5462 
-121.314 -100.853 95.9095 -122.178 -101.823 95.4173 -122.867 -103.072 95.0915 
-123.462 -104.345 94.8076 -124.063 -105.446 94.4912 -124.641 -106.425 94.1851 
-117.958 -99.1633 98.0863 -117.747 -99.7917 97.7486 -117.534 -100.508 97.2548 
-117.351 -101.334 96.6351 -117.182 -102.456 95.9595 -116.953 -104.017 95.2835 
-116.619 -105.807 94.6259 -116.2 -107.441 93.9795 -115.72 -108.764 93.3356 
-117.892 -97.5521 99.0397 -117.665 -96.2402 99.7502 -117.499 -94.979 100.531 
-117.347 -94.1569 101.409 -117.214 -93.8717 102.272 -117.173 -93.8367 103.06 
-117.243 -93.8101 103.823 -117.37 -93.8259 104.534 -117.537 -93.9979 105.075 
-117.306 -97.6523 99.2938 -116.287 -96.4641 100.297 -115.107 -95.2869 101.308 
-113.705 -94.4622 102.368 -112.013 -94.111 103.479 -110.157 -93.9742 104.484 
-108.462 -93.8769 105.131 -107.174 -94.0565 105.362 -106.33 -94.7635 105.398 
-119.6 -114.617 86.9314 -120.387 -113.981 87.3737 -121.148 -113.45 87.9914 
-121.858 -112.943 88.7776 -122.546 -112.278 89.677 -123.217 -111.412 90.6166 
-123.834 -110.445 91.5455 -124.37 -109.44 92.4298 -124.807 -108.406 93.2347 
-118.242 -115.171 86.8681 -117.618 -114.865 87.1484 -116.986 -114.315 87.4661 
-116.38 -113.651 87.8666 -115.894 -113.029 88.4195 -115.559 -112.46 89.1251 
-115.316 -111.908 89.9224 -115.153 -111.36 90.7898 -115.12 -110.724 91.7344 
-119.187 -115.969 86.025 -119.561 -116.721 85.4088 -119.968 -117.643 84.9521 
-120.413 -118.81 84.7726 -120.908 -120.191 84.8208 -121.425 -121.584 84.9519 
-121.912 -122.701 85.1218 -122.328 -123.409 85.4217 -122.661 -123.771 85.9231 
-118.322 -116.363 86.0142 -117.76 -117.519 85.3851 -117.183 -118.785 84.8966 
-116.553 -120.11 84.6573 -115.822 -121.358 84.5812 -115.015 -122.556 84.544 
-114.234 -123.812 84.6212 -113.58 -124.957 84.971 -113.105 -125.683 85.6036 
-126.101 -110.117 97.3263 -126.507 -109.667 97.2422 -126.906 -109.045 97.0106 
-127.201 -108.235 96.4907 -127.224 -107.549 95.792 -126.91 -107.308 95.1965 
-126.419 -107.386 94.8137 -125.947 -107.444 94.5248 -125.534 -107.396 94.2276 
-126.085 -112.711 96.8894 -126.371 -114.727 96.1764 -126.457 -116.477 95.1452 
-126.328 -118.216 93.8439 -126.042 -119.963 92.4686 -125.592 -121.275 91.1374 
-124.932 -121.997 89.8457 -124.153 -122.529 88.6122 -123.448 -123.182 87.5091 
-125.525 -108.034 97.9344 -125.283 -105.684 98.7151 -124.915 -103.814 99.7845 
-124.268 -102.135 100.91 -123.253 -100.122 101.889 -122.016 -97.9651 102.798 
-120.811 -96.3387 103.715 -119.737 -95.4004 104.499 -118.739 -94.8122 105.034 
-125.354 -108.954 93.2721 -125.448 -110.553 92.4947 -125.383 -112.237 91.58 
-125.247 -114.088 90.5653 -125.102 -116.094 89.5876 -124.848 -118.102 88.7596 
-124.396 -119.905 88.0547 -123.845 -121.421 87.4215 -123.339 -122.725 86.9064 
-125.069 -105.605 94.744 -124.928 -103.606 95.6273 -124.672 -101.745 96.6358 
-124.168 -100.2 97.7709 -123.308 -98.654 99.0068 -122.212 -96.8729 100.35 
-121.103 -95.3105 101.787 -120.029 -94.4921 103.2 -118.915 -94.3141 104.426 
-115.813 -111.964 95.0654 -115.314 -112.302 94.8513 -114.842 -112.375 94.6096 
-114.495 -112.066 94.3058 -114.301 -111.499 93.9694 -114.27 -110.898 93.6681 
-114.41 -110.409 93.4201 -114.666 -110.094 93.188 -114.946 -109.94 92.9466 
-115.645 -114.224 94.4662 -114.832 -116.412 93.6227 -113.919 -118.127 92.6271 
-112.956 -119.906 91.5387 -111.987 -121.987 90.621 -111.266 -123.777 89.9533 
-111.104 -124.768 89.2671 -111.492 -125.227 88.3562 -112.14 -125.596 87.3306 
-116.319 -108.903 96.1815 -116.015 -106.061 97.5045 -115.199 -103.34 99.2133 
-113.903 -100.979 101.052 -112.269 -99.2866 102.696 -110.481 -98.4794 103.916 
-108.77 -98.2222 104.651 -107.372 -97.8205 105.018 -106.408 -96.9554 105.241 
-114.56 -111.478 91.4817 -113.877 -113.133 90.3245 -113.208 -115.029 89.4062 
-112.544 -116.987 88.7088 -111.936 -118.654 88.0989 -111.541 -120.157 87.5506 
-111.472 -121.872 87.1121 -111.704 -123.676 86.7765 -112.171 -125.103 86.5302 
-115.613 -107.848 94.1275 -115.712 -105.021 95.6372 -115.096 -101.986 97.1852 
-113.727 -99.73 98.7763 -112.18 -98.531 100.356 -110.991 -97.7144 101.784 
-109.961 -96.8191 102.973 -108.645 -96.0993 103.945 -107.126 -95.8158 104.76 
-122.38 -124.974 85.9348 -121.731 -125.83 85.2436 -120.791 -126.166 84.4032 
-119.611 -126.095 83.5556 -118.427 -126.008 83.1877 -117.283 -126.115 83.5841 
-116.059 -126.328 84.4065 -114.813 -126.451 85.18 -113.715 -126.331 85.8042 
-116.316 -94.097 106.135 -114.644 -93.8823 106.988 -112.906 -93.9198 107.881 
-111.203 -94.1757 108.595 -109.516 -94.2822 108.875 -107.85 -94.1507 108.602 
-106.386 -94.1821 107.876 -105.462 -94.6076 106.977 -105.32 -95.2368 106.156 
-118.803 -102.304 101.505 -119.792 -103.347 100.93 -119.707 -104.497 100.263 
-120.867 -104.418 100.232 -120.687 -105.421 99.5997 -120.448 -106.566 98.8954 
-121.934 -105.744 99.5597 -121.679 -106.5 98.9033 -121.352 -107.539 98.2636 
-120.957 -108.87 97.6842 -122.881 -107.353 99.0826 -122.55 -108.092 98.4117 
-122.153 -109.004 97.7821 -121.683 -110.308 97.2724 -121.177 -111.748 96.8031 
-123.66 -108.918 98.7197 -123.272 -110.022 98.1724 -122.803 -111.024 97.5733 
-122.272 -112.242 97.0569 -121.725 -113.589 96.589 -121.166 -114.806 96.094 
-124.323 -110.217 98.2742 -123.926 -111.762 97.9339 -123.419 -113.022 97.4511 
-122.829 -114.248 96.9435 -122.225 -115.494 96.4407 -121.636 -116.542 95.8868 
-121.012 -117.396 95.3164 -124.939 -111.325 97.7428 -124.579 -113.084 97.5246 
-124.089 -114.521 97.1551 -123.487 -115.772 96.6988 -122.823 -116.989 96.2134 
-122.149 -118 95.6491 -121.462 -118.693 95.0071 -120.741 -119.261 94.4002 
-117.34 -99.0739 103.265 -116.932 -98.1728 104.052 -118.479 -99.7825 102.581 
-116.687 -97.7832 105.025 -118.211 -98.6454 103.205 -119.733 -100.88 101.861 
-116.725 -97.8 105.975 -118.088 -98.0899 104.005 -119.651 -99.7707 102.376 
-121.094 -102.447 101.189 -117.051 -97.6836 106.451 -118.243 -97.9764 104.769 
-119.717 -99.1471 103.014 -121.234 -101.5 101.672 -122.428 -104.121 100.611 
-117.515 -97.0769 106.337 -118.653 -97.7172 105.153 -119.989 -98.7855 103.604 
-121.459 -100.786 102.192 -122.713 -103.166 101.041 -123.528 -105.369 100.002 
-117.956 -96.1928 105.955 -119.112 -97.0276 105.13 -120.357 -98.1959 103.927 
-121.72 -100.092 102.637 -122.968 -102.283 101.446 -123.841 -104.225 100.3 
-124.337 -106.177 99.2622 -118.345 -95.3905 105.537 -119.464 -96.1473 104.89 
-120.642 -97.2751 103.947 -121.918 -99.1211 102.861 -123.15 -101.326 101.774 
-124.083 -103.205 100.624 -124.645 -104.894 99.4598 -124.968 -106.981 98.5166 
-119.824 -94.7775 104.01 -120.914 -95.185 102.668 -120.806 -95.5142 103.349 
-122.104 -96.3944 101.138 -121.996 -96.2595 101.909 -121.978 -96.8225 102.503 
-123.364 -98.1768 99.6602 -123.357 -97.6948 100.391 -123.331 -97.8192 101.137 
-123.303 -98.7912 101.687 -124.396 -99.9314 98.3536 -124.589 -99.4041 99.0154 
-124.699 -99.129 99.7971 -124.661 -99.7156 100.519 -124.49 -100.944 100.902 
-124.982 -101.58 97.1618 -125.313 -101.16 97.762 -125.633 -100.672 98.509 
-125.768 -100.807 99.3078 -125.61 -101.747 99.8376 -125.27 -102.896 99.9343 
-125.262 -103.455 96.0583 -125.616 -103.168 96.55 -126.036 -102.68 97.1745 
-126.378 -102.497 97.9507 -126.407 -103.067 98.6305 -126.108 -104.068 98.9116 
[...]
POINT_DATA 1002
FIELD FieldData 4
_paraPhi 1 1002 double
6.2831853072 3.1415926536 6.2831853072 3.1415926536 4.7123889804 4.7123889804 1.5707963268 1.5707963268 3.6951670125 
5.7296109483 2.5880182947 0.5535743589 6.2831853072 6.2831853072 6.2831853072 6.2831853072 3.1415926536 3.1415926536 
3.1415926536 3.1415926536 3.1415926536 6.1053039672 5.898798347 5.6768734901 5.4599499503 5.2659633393 5.1032165617 
4.9713148346 4.8656852733 4.7809517865 0.17788134 0.38438696014 0.60631181711 0.82323535693 1.0172219679 1.1799687454 
1.3118704726 1.4175000338 1.5022335207 6.1892828907 6.1070320098 6.035312792 5.9728339911 5.9183214791 5.8706119594 
5.8286879411 5.7916808611 5.7588591896 0.093902416448 0.17615329733 0.2478725152 0.31035131605 0.36486382811 0.41257334776 
0.45449736604 0.4915044461 0.52432611754 3.3194739936 3.5259796137 3.7479044707 3.9648280105 4.1588146215 4.321561399 
4.4534631262 4.5590926874 4.6438261743 2.9637113136 2.7572056934 2.5352808365 2.3183572967 2.1243706857 1.9616239082 
1.829722181 1.7240926197 1.6393591329 3.23549507 3.3177459509 3.3894651688 3.4519439696 3.5064564817 3.5541660013 
3.5960900196 3.6330970997 3.6659187711 3.0476902371 2.9654393563 2.8937201384 2.8312413375 2.7767288255 2.7290193058 
2.6870952876 2.6500882075 2.617266536 6.2831853072 6.2831853072 6.2831853072 6.2831853072 3.1415926536 3.1415926536 
3.1415926536 3.1415926536 3.1415926536 6.1053039672 5.898798347 5.6768734901 5.4599499503 5.2659633393 5.1032165617 
4.9713148346 4.8656852733 4.7809517865 0.17788134 0.38438696014 0.60631181711 0.82323535693 1.0172219679 1.1799687454 
1.3118704726 1.4175000338 1.5022335207 6.1892828907 6.1070320098 6.035312792 5.9728339911 5.9183214791 5.8706119594 
5.8286879411 5.7916808611 5.7588591896 0.093902416448 0.17615329733 0.2478725152 0.31035131605 0.36486382811 0.41257334776 
0.45449736604 0.4915044461 0.52432611754 3.3194739936 3.5259796137 3.7479044707 3.9648280105 4.1588146215 4.321561399 
4.4534631262 4.5590926874 4.6438261743 2.9637113136 2.7572056934 2.5352808365 2.3183572967 2.1243706857 1.9616239082 
1.829722181 1.7240926197 1.6393591329 3.23549507 3.3177459509 3.3894651688 3.4519439696 3.5064564817 3.5541660013 
3.5960900196 3.6330970997 3.6659187711 3.0476902371 2.9654393563 2.8937201384 2.8312413375 2.7767288255 2.7290193058 
2.6870952876 2.6500882075 2.617266536 4.7123889804 4.7123889804 4.7123889804 4.7123889804 4.7123889804 4.7123889804 
4.7123889804 4.7123889804 4.7123889804 4.6087898617 4.4991390697 4.3857031936 4.2712800401 4.1588146215 4.0509635631 
3.94975894 3.8564636551 3.7716124825 4.8159880991 4.9256388911 5.0390747672 5.1534979207 5.2659633393 5.3738143976 
5.4750190208 5.5683143056 5.6531654782 4.6087898617 4.4991390697 4.3857031936 4.2712800401 4.1588146215 4.0509635631 
3.94975894 3.8564636551 3.7716124825 4.8159880991 4.9256388911 5.0390747672 5.1534979207 5.2659633393 5.3738143976 
5.4750190208 5.5683143056 5.6531654782 1.5707963268 1.5707963268 1.5707963268 1.5707963268 1.5707963268 1.5707963268 
1.5707963268 1.5707963268 1.5707963268 1.6743954455 1.7840462375 1.8974821136 2.0119052671 2.1243706857 2.232221744 
2.3334263672 2.426721652 2.5115728246 1.4671972081 1.3575464161 1.24411054 1.1296873865 1.0172219679 0.90937090954 
0.80816628637 0.71487100155 0.63001982895 1.6743954455 1.7840462375 1.8974821136 2.0119052671 2.1243706857 2.232221744 
2.3334263672 2.426721652 2.5115728246 1.4671972081 1.3575464161 1.24411054 1.1296873865 1.0172219679 0.90937090954 
0.80816628637 0.71487100155 0.63001982895 3.6007720849 3.4966939854 3.3839471039 3.2645756454 3.1415926536 3.0186096618 
2.8992382033 2.7864913217 2.6824132222 5.8240058758 5.9280839753 6.0408308569 6.1602023154 6.2831853072 0.12298299178 
0.2423544503 0.35510133185 0.45917943135 6.0560271438 5.7885595667 5.9702140275 5.5125918794 5.6029703303 5.7885595667 
5.2659633393 5.2659633393 5.2659633393 5.2659633393 5.0674903122 5.0120975802 4.9155579264 4.7123889804 4.1588146215 
4.9155579264 4.8353719722 4.7123889804 4.5092200343 4.1588146215 3.6362183941 4.8004512023 4.7123889804 4.5894059886 
4.4126803806 4.1588146215 3.8218076305 3.4545639333 4.7123889804 4.6243267584 4.5092200343 4.3572876485 4.1588146215 
3.9121860814 3.6362183941 3.368750817 6.0174235957 5.9434319871 5.8263323547 5.8809213739 5.7674481418 5.6279784266 
5.8278025282 5.718968232 5.5891129425 5.4372443565 5.7823484065 5.678536687 5.5575666702 5.4192596322 5.2659633393 
5.743164462 5.6444075337 5.5314983644 5.4046708639 5.2659633393 5.1195510325 5.7091357773 5.6152775188 5.5096229709 
5.3926039573 5.2659633393 5.1329233157 4.9978930058 5.6793730533 5.5901633916 5.4910209005 5.3824597928 5.2659633393 
5.1440684722 5.0201624502 4.8979782167 5.5683143056 5.4750190208 5.4750190208 5.3738143976 5.3738143976 5.3738143976 
5.2659633393 5.2659633393 5.2659633393 5.2659633393 5.1534979207 5.1534979207 5.1534979207 5.1534979207 5.1534979207 
5.0390747672 5.0390747672 5.0390747672 5.0390747672 5.0390747672 5.0390747672 4.9256388911 4.9256388911 4.9256388911 
4.9256388911 4.9256388911 4.9256388911 4.9256388911 4.8159880991 4.8159880991 4.8159880991 4.8159880991 4.8159880991 
4.8159880991 4.8159880991 4.8159880991 4.6087898617 4.6087898617 4.4991390697 4.6087898617 4.4991390697 4.3857031936 
4.6087898617 4.4991390697 4.3857031936 4.2712800401 4.6087898617 4.4991390697 4.3857031936 4.2712800401 4.1588146215 
4.6087898617 4.4991390697 4.3857031936 4.2712800401 4.1588146215 4.0509635631 4.6087898617 4.4991390697 4.3857031936 
4.2712800401 4.1588146215 4.0509635631 3.94975894 4.6087898617 4.4991390697 4.3857031936 4.2712800401 4.1588146215 
4.0509635631 3.94975894 3.8564636551 4.526799744 4.4046155105 4.426884955 4.2807094886 4.2918546451 4.3052269283 
4.1588146215 4.1588146215 4.1588146215 4.1588146215 4.042318168 4.0321740035 4.0201070968 4.0055183285 3.9875336042 
3.9337570603 3.9151549899 3.8932795963 3.8672112905 3.8356650183 3.7967995342 3.8346145692 3.809500442 3.7803704271 
3.7462412737 3.7058097288 3.657329819 3.5984456061 3.7454049075 3.7156421835 3.6816134988 3.6424295543 3.5969754326 
3.5438565869 3.4813459737 3.4073543651 3.5642842451 3.4524645613 3.5233842518 3.3320300872 3.403123212 3.4773852225 
3.20576226 3.2746326772 3.348015857 3.4255060145 3.0774230472 3.1415926536 3.2112816139 3.2864685043 3.3668817272 
2.95115522 3.00855263 3.0719036933 3.1415926536 3.2178377658 3.3005964304 2.8307207459 2.8800620952 2.9351694502 
2.9967168029 3.0653475414 3.1415926536 3.225752376 2.718901062 2.7598010554 2.8058000847 2.8576792927 2.91630358 
2.9825888767 3.0574329311 3.1415926536 3.5642842451 3.5233842518 3.4524645613 3.4773852225 3.403123212 3.3320300872 
3.4255060145 3.348015857 3.2746326772 3.20576226 3.3668817272 3.2864685043 3.2112816139 3.1415926536 3.0774230472 
3.3005964304 3.2178377658 3.1415926536 3.0719036933 3.00855263 2.95115522 3.225752376 3.1415926536 3.0653475414 
2.9967168029 2.9351694502 2.8800620952 2.8307207459 3.1415926536 3.0574329311 2.9825888767 2.91630358 2.8576792927 
2.8058000847 2.7598010554 2.718901062 4.526799744 4.426884955 4.4046155105 4.3052269283 4.2918546451 4.2807094886 
4.1588146215 4.1588146215 4.1588146215 4.1588146215 3.9875336042 4.0055183285 4.0201070968 4.0321740035 4.042318168 
3.7967995342 3.8356650183 3.8672112905 3.8932795963 3.9151549899 3.9337570603 3.5984456061 3.657329819 3.7058097288 
3.7462412737 3.7803704271 3.809500442 3.8346145692 3.4073543651 3.4813459737 3.5438565869 3.5969754326 3.6424295543 
3.6816134988 3.7156421835 3.7454049075 4.7123889804 4.8004512023 4.6243267584 4.9155579264 4.7123889804 4.5092200343 
5.0674903122 4.8353719722 4.5894059886 4.3572876485 5.2659633393 5.0120975802 4.7123889804 4.4126803806 4.1588146215 
5.5125918794 5.2659633393 4.9155579264 4.5092200343 4.1588146215 3.9121860814 5.7885595667 5.6029703303 5.2659633393 
4.7123889804 4.1588146215 3.8218076305 3.6362183941 6.0560271438 5.9702140275 5.7885595667 5.2659633393 4.1588146215 
3.6362183941 3.4545639333 3.368750817 0.22715816343 0.49462574053 0.3129712797 0.77059342779 0.68021497688 0.49462574053 
1.0172219679 1.0172219679 1.0172219679 1.0172219679 1.2156949949 1.271087727 1.3676273807 1.5707963268 2.1243706857 
1.3676273807 1.447813335 1.5707963268 1.7739652728 2.1243706857 2.6469669131 1.4827341049 1.5707963268 1.6937793186 
1.8705049266 2.1243706857 2.4613776767 2.8286213739 1.5707963268 1.6588585487 1.7739652728 1.9258976586 2.1243706857 
2.3709992258 2.6469669131 2.9144344902 1.7563855631 1.8785697967 1.8563003522 2.0024758186 1.9913306621 1.9779583789 
2.1243706857 2.1243706857 2.1243706857 2.1243706857 2.2408671392 2.2510113037 2.2630782103 2.2776669786 2.295651703 
2.3494282469 2.3680303173 2.3899057108 2.4159740166 2.4475202889 2.486385773 2.448570738 2.4736848652 2.5028148801 
2.5369440334 2.5773755784 2.6258554882 2.6847397011 2.5377803997 2.5675431237 2.6015718084 2.6407557529 2.6862098746 
2.7393287203 2.8018393335 2.8758309421 1.6743954455 1.6743954455 1.7840462375 1.6743954455 1.7840462375 1.8974821136 
1.6743954455 1.7840462375 1.8974821136 2.0119052671 1.6743954455 1.7840462375 1.8974821136 2.0119052671 2.1243706857 
1.6743954455 1.7840462375 1.8974821136 2.0119052671 2.1243706857 2.232221744 1.6743954455 1.7840462375 1.8974821136 
2.0119052671 2.1243706857 2.232221744 2.3334263672 1.6743954455 1.7840462375 1.8974821136 2.0119052671 2.1243706857 
2.232221744 2.3334263672 2.426721652 1.4671972081 1.3575464161 1.4671972081 1.24411054 1.3575464161 1.4671972081 
1.1296873865 1.24411054 1.3575464161 1.4671972081 1.0172219679 1.1296873865 1.24411054 1.3575464161 1.4671972081 
0.90937090954 1.0172219679 1.1296873865 1.24411054 1.3575464161 1.4671972081 0.80816628637 0.90937090954 1.0172219679 
1.1296873865 1.24411054 1.3575464161 1.4671972081 0.71487100155 0.80816628637 0.90937090954 1.0172219679 1.1296873865 
1.24411054 1.3575464161 1.4671972081 0.60381225391 0.57404952988 0.69302191562 0.54002084522 0.66790778838 0.79216440667 
0.50083690068 0.63877777351 0.77356233629 0.90072551443 0.45538277901 0.60464862014 0.75168694275 0.89058134991 1.0172219679 
0.40226393329 0.56421707518 0.72561863695 0.87851444325 1.0172219679 1.139116835 0.33975332011 0.51573716537 0.69407236469 
0.86392567495 1.0172219679 1.1502619915 1.2630228569 0.26576171152 0.45685295248 0.6552068806 0.84594095064 1.0172219679 
1.1636342747 1.2852923014 1.3852070904 0.22715816343 0.3129712797 0.49462574053 0.49462574053 0.68021497688 0.77059342779 
1.0172219679 1.0172219679 1.0172219679 1.0172219679 2.1243706857 1.5707963268 1.3676273807 1.271087727 1.2156949949 
2.6469669131 2.1243706857 1.7739652728 1.5707963268 1.447813335 1.3676273807 2.8286213739 2.4613776767 2.1243706857 
1.8705049266 1.6937793186 1.5707963268 1.4827341049 2.9144344902 2.6469669131 2.3709992258 2.1243706857 1.9258976586 
1.7739652728 1.6588585487 1.5707963268 1.7563855631 1.8563003522 1.8785697967 1.9779583789 1.9913306621 2.0024758186 
2.1243706857 2.1243706857 2.1243706857 2.1243706857 2.295651703 2.2776669786 2.2630782103 2.2510113037 2.2408671392 
2.486385773 2.4475202889 2.4159740166 2.3899057108 2.3680303173 2.3494282469 2.6847397011 2.6258554882 2.5773755784 
2.5369440334 2.5028148801 2.4736848652 2.448570738 2.8758309421 2.8018393335 2.7393287203 2.6862098746 2.6407557529 
2.6015718084 2.5675431237 2.5377803997 5.8604937156 5.901393709 5.9723133995 5.9473927383 6.0216547488 6.0927478736 
5.9992719463 6.0767621038 6.1501452836 6.2190157008 6.0578962336 6.1383094565 6.2134963469 0 0.064169606361 
6.1241815303 6.206940195 6.2831853072 0.069688960264 0.13304002361 0.19043743361 6.1990255847 0 0.07624511221 
0.14487585072 0.20642320337 0.26153055843 0.3108719077 0 0.084159722458 0.15900377685 0.22528907359 0.28391336087 
0.3357925689 0.38179159818 0.42269159155 5.8604937156 5.9723133995 5.901393709 6.0927478736 6.0216547488 5.9473927383 
6.2190157008 6.1501452836 6.0767621038 5.9992719463 0.064169606361 0 6.2134963469 6.1383094565 6.0578962336 
0.19043743361 0.13304002361 0.069688960264 6.2831853072 6.206940195 6.1241815303 0.3108719077 0.26153055843 0.20642320337 
0.14487585072 0.07624511221 6.2831853072 6.1990255847 0.42269159155 0.38179159818 0.3357925689 0.28391336087 0.22528907359 
0.15900377685 0.084159722458 0 5.6793730533 5.7091357773 5.5901633916 5.743164462 5.6152775188 5.4910209005 
5.7823484065 5.6444075337 5.5096229709 5.3824597928 5.8278025282 5.678536687 5.5314983644 5.3926039573 5.2659633393 
5.8809213739 5.718968232 5.5575666702 5.4046708639 5.2659633393 5.1440684722 5.9434319871 5.7674481418 5.5891129425 
5.4192596322 5.2659633393 5.1329233157 5.0201624502 6.0174235957 5.8263323547 5.6279784266 5.4372443565 5.2659633393 
5.1195510325 4.9978930058 4.8979782167 1.3852070904 1.2852923014 1.2630228569 1.1636342747 1.1502619915 1.139116835 
1.0172219679 1.0172219679 1.0172219679 1.0172219679 0.84594095064 0.86392567495 0.87851444325 0.89058134991 0.90072551443 
0.6552068806 0.69407236469 0.72561863695 0.75168694275 0.77356233629 0.79216440667 0.45685295248 0.51573716537 0.56421707518 
0.60464862014 0.63877777351 0.66790778838 0.69302191562 0.26576171152 0.33975332011 0.40226393329 0.45538277901 0.50083690068 
0.54002084522 0.57404952988 0.60381225391 
_paraPhiHalf 1 1002 double
0 3.1415926536 0 3.1415926536 1.5707963268 1.5707963268 1.5707963268 1.5707963268 2.5880182947 
0.5535743589 2.5880182947 0.5535743589 0 0 0 0 3.1415926536 3.1415926536 
3.1415926536 3.1415926536 3.1415926536 0.17788134 0.38438696014 0.60631181711 0.82323535693 1.0172219679 1.1799687454 
1.3118704726 1.4175000338 1.5022335207 0.17788134 0.38438696014 0.60631181711 0.82323535693 1.0172219679 1.1799687454 
1.3118704726 1.4175000338 1.5022335207 0.093902416448 0.17615329733 0.2478725152 0.31035131605 0.36486382811 0.41257334776 
0.45449736604 0.4915044461 0.52432611754 0.093902416448 0.17615329733 0.2478725152 0.31035131605 0.36486382811 0.41257334776 
0.45449736604 0.4915044461 0.52432611754 2.9637113136 2.7572056934 2.5352808365 2.3183572967 2.1243706857 1.9616239082 
1.829722181 1.7240926197 1.6393591329 2.9637113136 2.7572056934 2.5352808365 2.3183572967 2.1243706857 1.9616239082 
1.829722181 1.7240926197 1.6393591329 3.0476902371 2.9654393563 2.8937201384 2.8312413375 2.7767288255 2.7290193058 
2.6870952876 2.6500882075 2.617266536 3.0476902371 2.9654393563 2.8937201384 2.8312413375 2.7767288255 2.7290193058 
2.6870952876 2.6500882075 2.617266536 0 0 0 0 3.1415926536 3.1415926536 
3.1415926536 3.1415926536 3.1415926536 0.17788134 0.38438696014 0.60631181711 0.82323535693 1.0172219679 1.1799687454 
1.3118704726 1.4175000338 1.5022335207 0.17788134 0.38438696014 0.60631181711 0.82323535693 1.0172219679 1.1799687454 
1.3118704726 1.4175000338 1.5022335207 0.093902416448 0.17615329733 0.2478725152 0.31035131605 0.36486382811 0.41257334776 
0.45449736604 0.4915044461 0.52432611754 0.093902416448 0.17615329733 0.2478725152 0.31035131605 0.36486382811 0.41257334776 
0.45449736604 0.4915044461 0.52432611754 2.9637113136 2.7572056934 2.5352808365 2.3183572967 2.1243706857 1.9616239082 
1.829722181 1.7240926197 1.6393591329 2.9637113136 2.7572056934 2.5352808365 2.3183572967 2.1243706857 1.9616239082 
1.829722181 1.7240926197 1.6393591329 3.0476902371 2.9654393563 2.8937201384 2.8312413375 2.7767288255 2.7290193058 
2.6870952876 2.6500882075 2.617266536 3.0476902371 2.9654393563 2.8937201384 2.8312413375 2.7767288255 2.7290193058 
2.6870952876 2.6500882075 2.617266536 1.5707963268 1.5707963268 1.5707963268 1.5707963268 1.5707963268 1.5707963268 
1.5707963268 1.5707963268 1.5707963268 1.6743954455 1.7840462375 1.8974821136 2.0119052671 2.1243706857 2.232221744 
2.3334263672 2.426721652 2.5115728246 1.4671972081 1.3575464161 1.24411054 1.1296873865 1.0172219679 0.90937090954 
0.80816628637 0.71487100155 0.63001982895 1.6743954455 1.7840462375 1.8974821136 2.0119052671 2.1243706857 2.232221744 
2.3334263672 2.426721652 2.5115728246 1.4671972081 1.3575464161 1.24411054 1.1296873865 1.0172219679 0.90937090954 
0.80816628637 0.71487100155 0.63001982895 1.5707963268 1.5707963268 1.5707963268 1.5707963268 1.5707963268 1.5707963268 
1.5707963268 1.5707963268 1.5707963268 1.6743954455 1.7840462375 1.8974821136 2.0119052671 2.1243706857 2.232221744 
2.3334263672 2.426721652 2.5115728246 1.4671972081 1.3575464161 1.24411054 1.1296873865 1.0172219679 0.90937090954 
0.80816628637 0.71487100155 0.63001982895 1.6743954455 1.7840462375 1.8974821136 2.0119052671 2.1243706857 2.232221744 
2.3334263672 2.426721652 2.5115728246 1.4671972081 1.3575464161 1.24411054 1.1296873865 1.0172219679 0.90937090954 
0.80816628637 0.71487100155 0.63001982895 2.6824132222 2.7864913217 2.8992382033 3.0186096618 3.1415926536 3.0186096618 
2.8992382033 2.7864913217 2.6824132222 0.45917943135 0.35510133185 0.2423544503 0.12298299178 0 0.12298299178 
0.2423544503 0.35510133185 0.45917943135 0.22715816343 0.49462574053 0.3129712797 0.77059342779 0.68021497688 0.49462574053 
1.0172219679 1.0172219679 1.0172219679 1.0172219679 1.2156949949 1.271087727 1.3676273807 1.5707963268 2.1243706857 
1.3676273807 1.447813335 1.5707963268 1.7739652728 2.1243706857 2.6469669131 1.4827341049 1.5707963268 1.6937793186 
1.8705049266 2.1243706857 2.4613776767 2.8286213739 1.5707963268 1.6588585487 1.7739652728 1.9258976586 2.1243706857 
2.3709992258 2.6469669131 2.9144344902 0.26576171152 0.33975332011 0.45685295248 0.40226393329 0.51573716537 0.6552068806 
0.45538277901 0.56421707518 0.69407236469 0.84594095064 0.50083690068 0.60464862014 0.72561863695 0.86392567495 1.0172219679 
0.54002084522 0.63877777351 0.75168694275 0.87851444325 1.0172219679 1.1636342747 0.57404952988 0.66790778838 0.77356233629 
0.89058134991 1.0172219679 1.1502619915 1.2852923014 0.60381225391 0.69302191562 0.79216440667 0.90072551443 1.0172219679 
1.139116835 1.2630228569 1.3852070904 0.71487100155 0.80816628637 0.80816628637 0.90937090954 0.90937090954 0.90937090954 
1.0172219679 1.0172219679 1.0172219679 1.0172219679 1.1296873865 1.1296873865 1.1296873865 1.1296873865 1.1296873865 
1.24411054 1.24411054 1.24411054 1.24411054 1.24411054 1.24411054 1.3575464161 1.3575464161 1.3575464161 
1.3575464161 1.3575464161 1.3575464161 1.3575464161 1.4671972081 1.4671972081 1.4671972081 1.4671972081 1.4671972081 
1.4671972081 1.4671972081 1.4671972081 1.6743954455 1.6743954455 1.7840462375 1.6743954455 1.7840462375 1.8974821136 
1.6743954455 1.7840462375 1.8974821136 2.0119052671 1.6743954455 1.7840462375 1.8974821136 2.0119052671 2.1243706857 
1.6743954455 1.7840462375 1.8974821136 2.0119052671 2.1243706857 2.232221744 1.6743954455 1.7840462375 1.8974821136 
2.0119052671 2.1243706857 2.232221744 2.3334263672 1.6743954455 1.7840462375 1.8974821136 2.0119052671 2.1243706857 
2.232221744 2.3334263672 2.426721652 1.7563855631 1.8785697967 1.8563003522 2.0024758186 1.9913306621 1.9779583789 
2.1243706857 2.1243706857 2.1243706857 2.1243706857 2.2408671392 2.2510113037 2.2630782103 2.2776669786 2.295651703 
2.3494282469 2.3680303173 2.3899057108 2.4159740166 2.4475202889 2.486385773 2.448570738 2.4736848652 2.5028148801 
2.5369440334 2.5773755784 2.6258554882 2.6847397011 2.5377803997 2.5675431237 2.6015718084 2.6407557529 2.6862098746 
2.7393287203 2.8018393335 2.8758309421 2.718901062 2.8307207459 2.7598010554 2.95115522 2.8800620952 2.8058000847 
3.0774230472 3.00855263 2.9351694502 2.8576792927 3.0774230472 3.1415926536 3.0719036933 2.9967168029 2.91630358 
2.95115522 3.00855263 3.0719036933 3.1415926536 3.0653475414 2.9825888767 2.8307207459 2.8800620952 2.9351694502 
2.9967168029 3.0653475414 3.1415926536 3.0574329311 2.718901062 2.7598010554 2.8058000847 2.8576792927 2.91630358 
2.9825888767 3.0574329311 3.1415926536 2.718901062 2.7598010554 2.8307207459 2.8058000847 2.8800620952 2.95115522 
2.8576792927 2.9351694502 3.00855263 3.0774230472 2.91630358 2.9967168029 3.0719036933 3.1415926536 3.0774230472 
2.9825888767 3.0653475414 3.1415926536 3.0719036933 3.00855263 2.95115522 3.0574329311 3.1415926536 3.0653475414 