# vtk DataFile Version 5.1
vtk output
ASCII
DATASET POLYDATA
POINTS 1002 float
-123.37 -104.181 112.331 -128.887 -122.61 95.6797 -123.704 -99.2307 107.309 
-126.28 -116.368 89.2385 -134.865 -110.764 102.542 -133.124 -106.624 98.296 
-125.421 -112.206 100.555 -123.739 -109.612 97.6378 -131.289 -125.521 87.5746 
-122.892 -95.7012 115.471 -121.018 -128.845 89.1869 -114.077 -98.192 117.213 
-124.853 -104.532 110.38 -126.369 -105.596 108.282 -127.68 -107.465 106.178 
-128.652 -109.83 104.223 -129.289 -112.504 102.581 -129.603 -115.39 101.22 
-129.611 -118.035 99.8681 -129.42 -120.016 98.385 -129.161 -121.438 96.9293 
-124.42 -104.277 111.531 -125.642 -104.502 110.535 -127.026 -104.98 109.335 
-128.516 -105.759 108.034 -129.993 -106.695 106.818 -131.308 -107.589 105.776 
-132.388 -108.405 104.839 -133.292 -109.211 103.962 -134.112 -110.015 103.187 
-123.324 -104.237 111.864 -123.403 -104.428 111.26 -123.594 -104.812 110.438 
-123.905 -105.278 109.319 -124.367 -105.701 107.903 -124.92 -106.257 106.299 
-125.381 -107.274 104.672 -125.605 -108.776 103.152 -125.596 -110.495 101.781 
-122.626 -104.075 113.742 -122.069 -103.718 115.07 -121.755 -102.806 116.042 
-121.63 -101.453 116.499 -121.623 -100.09 116.596 -121.724 -98.9188 116.607 
-121.931 -97.8374 116.585 -122.212 -96.845 116.409 -122.538 -96.1008 116.022 
-121.845 -104.056 113.904 -120.263 -103.65 115.352 -118.763 -102.644 116.534 
-117.42 -101.297 117.484 -116.119 -100.273 118.301 -114.774 -99.7442 118.87 
-113.658 -99.2975 118.956 -113.188 -98.7389 118.564 -113.43 -98.3031 117.92 
-129.584 -121.759 96.1216 -130.315 -120.889 96.7408 -131.092 -120.053 97.57 
-131.926 -119.15 98.4816 -132.759 -118.081 99.3405 -133.481 -116.848 100.158 
-134.041 -115.438 100.941 -134.46 -113.86 101.597 -134.739 -112.251 102.101 
-128.353 -122.633 95.9963 -127.799 -122.321 96.2837 -127.304 -121.626 96.5691 
-126.889 -120.798 96.9944 -126.512 -119.957 97.5968 -126.18 -118.825 98.2133 
-125.942 -117.242 98.7473 -125.776 -115.474 99.2852 -125.612 -113.787 99.8962 
-129.009 -123.26 94.7755 -129.132 -124.056 93.8563 -129.321 -124.897 92.9016 
-129.579 -125.471 91.8782 -129.818 -125.757 90.8388 -130.055 -126.156 89.887 
-130.425 -126.738 89.0453 -130.891 -126.98 88.3172 -131.225 -126.511 87.7974 
-128.229 -123.793 94.7156 -127.404 -124.837 93.657 -126.43 -125.645 92.5157 
-125.461 -126.529 91.5316 -124.625 -127.803 90.9891 -123.83 -129.103 90.7922 
-122.944 -129.785 90.5475 -122.064 -129.774 90.088 -121.394 -129.4 89.5747 
-124.903 -100.88 105.562 -126.104 -102.58 103.383 -127.068 -104.103 100.917 
-127.596 -105.706 98.5848 -127.677 -107.936 96.6829 -127.474 -110.589 95.0093 
-127.147 -112.734 93.2702 -126.79 -114.066 91.5867 -126.479 -115.136 90.2343 
-124.678 -100.205 106.646 -125.743 -101.176 105.756 -126.849 -101.938 104.591 
-127.984 -102.52 103.276 -129.146 -103.055 101.992 -130.284 -103.551 100.81 
-131.292 -104.029 99.7825 -132.096 -104.655 99.02 -132.691 -105.54 98.5561 
-123.554 -99.4555 106.921 -123.54 -100.117 106.469 -123.658 -101.117 105.811 
-123.827 -102.085 104.804 -123.989 -102.877 103.58 -124.167 -103.809 102.434 
-124.348 -105.12 101.371 -124.392 -106.643 100.173 -124.176 -108.154 98.8456 
-123.15 -98.3174 108.516 -122.674 -97.4554 109.744 -122.303 -96.5132 110.901 
-122.055 -95.5869 111.901 -121.959 -94.9303 112.779 -122.017 -94.5221 113.631 
-122.186 -94.2123 114.433 -122.404 -94.1822 115.049 -122.637 -94.7015 115.389 
-122.389 -97.7802 108.635 -121.057 -96.7171 110.01 -119.82 -96.3872 111.436 
-118.704 -96.6837 112.806 -117.683 -97.1268 114.044 -116.775 -97.3676 115.189 
-115.988 -97.4151 116.192 -115.256 -97.4594 116.874 -114.579 -97.6902 117.172 
-126.967 -115.767 89.5941 -127.761 -115.183 90.1987 -128.592 -114.738 91.1009 
-129.372 -114.367 92.2621 -130.102 -113.707 93.5293 -130.844 -112.472 94.7135 
-131.581 -110.836 95.7309 -132.226 -109.197 96.6303 -132.734 -107.782 97.4809 
-125.721 -116.038 89.5501 -125.134 -115.598 89.9628 -124.55 -115.234 90.556 
-124.038 -114.986 91.3484 -123.668 -114.634 92.2443 -123.468 -113.997 93.1609 
-123.437 -113.122 94.1391 -123.535 -112.075 95.2391 -123.671 -110.87 96.4306 
-126.585 -117.313 88.4693 -127.018 -118.115 87.5545 -127.573 -118.836 86.6274 
-128.153 -119.943 86.0349 -128.634 -121.665 85.97 -129.046 -123.408 86.1845 
-129.563 -124.493 86.359 -130.222 -124.992 86.533 -130.852 -125.3 86.9203 
-125.831 -117.691 88.5899 -125.408 -119.165 87.988 -124.934 -120.472 87.3976 
-124.381 -121.589 86.9611 -123.835 -122.921 86.9043 -123.333 -124.71 87.2083 
-122.767 -126.578 87.6245 -122.09 -127.952 88.0403 -121.448 -128.643 88.5432 
-135.364 -110.274 102.448 -135.839 -109.583 102.289 -136.089 -108.687 101.945 
-135.977 -107.841 101.365 -135.589 -107.323 100.661 -135.109 -107.113 100.025 
-134.613 -106.992 99.5242 -134.099 -106.849 99.0966 -133.589 -106.713 98.6845 
-135.418 -112.399 101.649 -135.629 -114.097 100.596 -135.487 -115.844 99.2005 
-135.146 -117.703 97.3893 -134.7 -119.595 95.3518 -134.077 -121.25 93.4167 
-133.274 -122.53 91.7332 -132.467 -123.582 90.2252 -131.804 -124.58 88.8244 
-134.307 -108.874 103.463 -133.46 -107.037 104.683 -132.475 -105.362 106.197 
-131.375 -103.762 107.855 -129.981 -102.273 109.515 -128.239 -101.16 111.114 
-126.444 -100.311 112.573 -124.93 -99.1555 113.79 -123.782 -97.4737 114.738 
-133.204 -108.655 97.6 -133.151 -111 96.7948 -133.027 -113.251 95.7306 
-132.888 -115.108 94.352 -132.721 -116.643 92.801 -132.465 -118.165 91.3452 
-132.121 -119.882 90.1455 -131.782 -121.787 89.1596 -131.514 -123.731 88.2997 
-133.135 -104.985 99.3193 -132.845 -103.7 100.628 -132.087 -102.865 102.309 
-130.787 -102.297 104.395 -129.111 -101.611 106.782 -127.419 -100.567 109.198 
-125.979 -99.2497 111.332 -124.807 -97.8829 113.038 -123.799 -96.6507 114.376 
-125.149 -112.257 100.2 -124.892 -112.24 99.7403 -124.612 -112.219 99.2818 
-124.236 -112.229 98.9945 -123.78 -112.104 98.8947 -123.394 -111.635 98.7686 
-123.216 -110.911 98.4574 -123.259 -110.243 98.064 -123.458 -109.82 97.7737 
-125.137 -115.03 99.0185 -124.497 -118.105 97.5517 -123.446 -121.162 96.1971 
-122.017 -123.784 95.0554 -120.544 -125.521 94.1484 -119.562 -126.354 93.2928 
-119.333 -126.826 92.289 -119.684 -127.435 91.1657 -120.307 -128.188 90.0963 
-125.19 -109.554 102.183 -124.38 -107.055 104.387 -122.706 -105.274 107.05 
-120.298 -104.532 109.638 -117.873 -104.391 111.579 -116.156 -103.896 112.86 
-115.22 -102.599 113.95 -114.684 -100.913 115.135 -114.302 -99.3917 116.294 
-123.022 -111.983 95.9194 -122.066 -114.671 94.5027 -121.192 -117.539 93.4222 
-120.484 -120.181 92.5175 -119.788 -122.14 91.6436 -119.209 -123.486 90.8405 
-119.118 -124.751 90.21 -119.582 -126.214 89.7585 -120.3 -127.674 89.4306 
-123.812 -107.421 99.7129 -123.24 -105.337 102.177 -122.002 -103.755 104.791 
-120.367 -102.805 107.132 -118.698 -102.189 108.953 -117.302 -101.527 110.516 
-116.316 -100.719 112.243 -115.597 -99.8466 114.129 -114.878 -98.9788 115.85 
-130.881 -127.12 86.4522 -130.423 -128.552 85.4174 -129.737 -129.471 84.6842 
-128.705 -129.823 84.4118 -127.36 -129.931 84.6821 -125.831 -130.088 85.4749 
-124.312 -130.24 86.5695 -122.995 -130.151 87.6354 -121.931 -129.671 88.4964 
-121.789 -94.3972 116.569 -120.521 -93.7873 117.873 -119.065 -94.0004 119.363 
-117.44 -94.4079 120.748 -115.769 -94.3605 121.496 -114.322 -94.1775 121.292 
-113.413 -94.609 120.415 -113.188 -95.7144 119.369 -113.514 -97.0126 118.337 
-125.978 -104.896 109.428 -127.263 -105.497 108.321 -127.495 -106.349 107.276 
-128.644 -106.401 107.114 -128.72 -107.309 106.172 -128.708 -108.513 105.222 
-130.01 -107.594 105.98 -129.934 -108.557 105.099 -129.758 -109.709 104.25 
-129.532 -111.105 103.419 -131.269 -108.88 105.062 -131.065 -110.108 104.252 
-130.754 -111.23 103.437 -130.414 -112.547 102.683 -130.043 -114.038 101.954 
-132.374 -110.012 104.287 -132.129 -111.659 103.625 -131.716 -112.989 102.867 
-131.27 -114.201 102.109 -130.81 -115.567 101.368 -130.258 -116.917 100.615 
-133.307 -110.9 103.515 -133.098 -112.795 102.998 -132.664 -114.436 102.343 
-132.118 -115.71 101.599 -131.541 -116.882 100.801 -130.905 -118.047 99.9491 
-130.179 -119.101 99.1197 -134.084 -111.617 102.759 -133.882 -113.446 102.285 
-133.477 -115.181 101.674 -132.897 -116.59 100.945 -132.204 -117.735 100.138 
-131.458 -118.742 99.2357 -130.688 -119.665 98.3159 -129.91 -120.563 97.5344 
-123.773 -104.115 112.965 -123.321 -103.826 114.311 -125.108 -104.238 111.894 
-123.124 -103.159 115.254 -124.765 -104.01 113.141 -126.636 -104.613 110.519 
-123.112 -102.149 115.653 -124.687 -103.606 113.99 -126.428 -104.391 111.585 
-128.31 -105.236 109.01 -123.174 -101.007 115.696 -124.779 -102.88 114.369 
-126.464 -104.089 112.349 -128.24 -104.877 109.904 -129.944 -105.912 107.598 
-123.263 -99.8701 115.62 -124.876 -101.835 114.443 -126.608 -103.381 112.782 
-128.323 -104.447 110.634 -129.926 -105.328 108.353 -131.312 -106.556 106.36 
-123.385 -98.8304 115.463 -124.902 -100.697 114.354 -126.666 -102.233 112.93 
-128.426 -103.548 111.116 -129.967 -104.689 109.03 -131.274 -105.799 106.974 
-132.397 -107.265 105.25 -123.556 -98.0093 115.171 -124.896 -99.7638 114.133 
-126.583 -101.075 112.839 -128.404 -102.256 111.265 -130.016 -103.6 109.46 
-131.297 -104.975 107.546 -132.39 -106.383 105.743 -133.366 -108.068 104.275 
-124.783 -98.4296 113.535 -125.946 -99.4648 111.973 -126.107 -99.7993 112.372 
-127.378 -100.52 109.948 -127.526 -100.47 110.509 -127.858 -100.562 110.887 
-129.116 -101.507 107.538 -129.249 -101.267 108.216 -129.521 -101.011 108.786 
-129.809 -101.279 109.25 -130.941 -102.267 105.062 -131.132 -102.095 105.754 
-131.355 -101.741 106.449 -131.514 -101.731 107.132 -131.511 -102.522 107.661 
-132.433 -102.859 102.873 -132.766 -102.823 103.494 -133.04 -102.596 104.2 
-133.173 -102.49 104.999 -133.08 -103.065 105.735 -132.796 -104.234 106.156 
-133.317 -103.666 101.119 -133.789 -103.681 101.652 -134.187 -103.609 102.276 
-134.439 -103.553 103.055 -134.471 -103.961 103.888 -134.242 -104.986 104.494 
[...]
POINT_DATA 1002
FIELD FieldData 4
_paraPhi 1 1002 double
6.2831853072 3.1415926536 6.2831853072 3.1415926536 4.7123889804 4.7123889804 1.5707963268 1.5707963268 3.6951670125 
5.7296109483 2.5880182947 0.5535743589 6.2831853072 6.2831853072 6.2831853072 6.2831853072 3.1415926536 3.1415926536 
3.1415926536 3.1415926536 3.1415926536 6.1053039672 5.898798347 5.6768734901 5.4599499503 5.2659633393 5.1032165617 
4.9713148346 4.8656852733 4.7809517865 0.17788134 0.38438696014 0.60631181711 0.82323535693 1.0172219679 1.1799687454 
1.3118704726 1.4175000338 1.5022335207 6.1892828907 6.1070320098 6.035312792 5.9728339911 5.9183214791 5.8706119594 
5.8286879411 5.7916808611 5.7588591896 0.093902416448 0.17615329733 0.2478725152 0.31035131605 0.36486382811 0.41257334776 
0.45449736604 0.4915044461 0.52432611754 3.3194739936 3.5259796137 3.7479044707 3.9648280105 4.1588146215 4.321561399 
4.4534631262 4.5590926874 4.6438261743 2.9637113136 2.7572056934 2.5352808365 2.3183572967 2.1243706857 1.9616239082 
1.829722181 1.7240926197 1.6393591329 3.23549507 3.3177459509 3.3894651688 3.4519439696 3.5064564817 3.5541660013 
3.5960900196 3.6330970997 3.6659187711 3.0476902371 2.9654393563 2.8937201384 2.8312413375 2.7767288255 2.7290193058 
2.6870952876 2.6500882075 2.617266536 6.2831853072 6.2831853072 6.2831853072 6.2831853072 3.1415926536 3.1415926536 
3.1415926536 3.1415926536 3.1415926536 6.1053039672 5.898798347 5.6768734901 5.4599499503 5.2659633393 5.1032165617 
4.9713148346 4.8656852733 4.7809517865 0.17788134 0.38438696014 0.60631181711 0.82323535693 1.0172219679 1.1799687454 
1.3118704726 1.4175000338 1.5022335207 6.1892828907 6.1070320098 6.035312792 5.9728339911 5.9183214791 5.8706119594 
5.8286879411 5.7916808611 5.7588591896 0.093902416448 0.17615329733 0.2478725152 0.31035131605 0.36486382811 0.41257334776 
0.45449736604 0.4915044461 0.52432611754 3.3194739936 3.5259796137 3.7479044707 3.9648280105 4.1588146215 4.321561399 
4.4534631262 4.5590926874 4.6438261743 2.9637113136 2.7572056934 2.5352808365 2.3183572967 2.1243706857 1.9616239082 
1.829722181 1.7240926197 1.6393591329 3.23549507 3.3177459509 3.3894651688 3.4519439696 3.5064564817 3.5541660013 
3.5960900196 3.6330970997 3.6659187711 3.0476902371 2.9654393563 2.8937201384 2.8312413375 2.7767288255 2.7290193058 
2.6870952876 2.6500882075 2.617266536 4.7123889804 4.7123889804 4.7123889804 4.7123889804 4.7123889804 4.7123889804 
4.7123889804 4.7123889804 4.7123889804 4.6087898617 4.4991390697 4.3857031936 4.2712800401 4.1588146215 4.0509635631 
3.94975894 3.8564636551 3.7716124825 4.8159880991 4.9256388911 5.0390747672 5.1534979207 5.2659633393 5.3738143976 
5.4750190208 5.5683143056 5.6531654782 4.6087898617 4.4991390697 4.3857031936 4.2712800401 4.1588146215 4.0509635631 
3.94975894 3.8564636551 3.7716124825 4.8159880991 4.9256388911 5.0390747672 5.1534979207 5.2659633393 5.3738143976 
5.4750190208 5.5683143056 5.6531654782 1.5707963268 1.5707963268 1.5707963268 1.5707963268 1.5707963268 1.5707963268 
1.5707963268 1.5707963268 1.5707963268 1.6743954455 1.7840462375 1.8974821136 2.0119052671 2.1243706857 2.232221744 
2.3334263672 2.426721652 2.5115728246 1.4671972081 1.3575464161 1.24411054 1.1296873865 1.0172219679 0.90937090954 
0.80816628637 0.71487100155 0.63001982895 1.6743954455 1.7840462375 1.8974821136 2.0119052671 2.1243706857 2.232221744 
2.3334263672 2.426721652 2.5115728246 1.4671972081 1.3575464161 1.24411054 1.1296873865 1.0172219679 0.90937090954 
0.80816628637 0.71487100155 0.63001982895 3.6007720849 3.4966939854 3.3839471039 3.2645756454 3.1415926536 3.0186096618 
2.8992382033 2.7864913217 2.6824132222 5.8240058758 5.9280839753 6.0408308569 6.1602023154 6.2831853072 0.12298299178 
0.2423544503 0.35510133185 0.45917943135 6.0560271438 5.7885595667 5.9702140275 5.5125918794 5.6029703303 5.7885595667 
5.2659633393 5.2659633393 5.2659633393 5.2659633393 5.0674903122 5.0120975802 4.9155579264 4.7123889804 4.1588146215 
4.9155579264 4.8353719722 4.7123889804 4.5092200343 4.1588146215 3.6362183941 4.8004512023 4.7123889804 4.5894059886 
4.4126803806 4.1588146215 3.8218076305 3.4545639333 4.7123889804 4.6243267584 4.5092200343 4.3572876485 4.1588146215 
3.9121860814 3.6362183941 3.368750817 6.0174235957 5.9434319871 5.8263323547 5.8809213739 5.7674481418 5.6279784266 
5.8278025282 5.718968232 5.5891129425 5.4372443565 5.7823484065 5.678536687 5.5575666702 5.4192596322 5.2659633393 
5.743164462 5.6444075337 5.5314983644 5.4046708639 5.2659633393 5.1195510325 5.7091357773 5.6152775188 5.5096229709 
5.3926039573 5.2659633393 5.1329233157 4.9978930058 5.6793730533 5.5901633916 5.4910209005 5.3824597928 5.2659633393 
5.1440684722 5.0201624502 4.8979782167 5.5683143056 5.4750190208 5.4750190208 5.3738143976 5.3738143976 5.3738143976 
5.2659633393 5.2659633393 5.2659633393 5.2659633393 5.1534979207 5.1534979207 5.1534979207 5.1534979207 5.1534979207 
5.0390747672 5.0390747672 5.0390747672 5.0390747672 5.0390747672 5.0390747672 4.9256388911 4.9256388911 4.9256388911 
4.9256388911 4.9256388911 4.9256388911 4.9256388911 4.8159880991 4.8159880991 4.8159880991 4.8159880991 4.8159880991 
4.8159880991 4.8159880991 4.8159880991 4.6087898617 4.6087898617 4.4991390697 4.6087898617 4.4991390697 4.3857031936 
4.6087898617 4.4991390697 4.3857031936 4.2712800401 4.6087898617 4.4991390697 4.3857031936 4.2712800401 4.1588146215 
4.6087898617 4.4991390697 4.3857031936 4.2712800401 4.1588146215 4.0509635631 4.6087898617 4.4991390697 4.3857031936 
4.2712800401 4.1588146215 4.0509635631 3.94975894 4.6087898617 4.4991390697 4.3857031936 4.2712800401 4.1588146215 
4.0509635631 3.94975894 3.8564636551 4.526799744 4.4046155105 4.426884955 4.2807094886 4.2918546451 4.3052269283 
4.1588146215 4.1588146215 4.1588146215 4.1588146215 4.042318168 4.0321740035 4.0201070968 4.0055183285 3.9875336042 
3.9337570603 3.9151549899 3.8932795963 3.8672112905 3.8356650183 3.7967995342 3.8346145692 3.809500442 3.7803704271 
3.7462412737 3.7058097288 3.657329819 3.5984456061 3.7454049075 3.7156421835 3.6816134988 3.6424295543 3.5969754326 
3.5438565869 3.4813459737 3.4073543651 3.5642842451 3.4524645613 3.5233842518 3.3320300872 3.403123212 3.4773852225 
3.20576226 3.2746326772 3.348015857 3.4255060145 3.0774230472 3.1415926536 3.2112816139 3.2864685043 3.3668817272 
2.95115522 3.00855263 3.0719036933 3.1415926536 3.2178377658 3.3005964304 2.8307207459 2.8800620952 2.9351694502 
2.9967168029 3.0653475414 3.1415926536 3.225752376 2.718901062 2.7598010554 2.8058000847 2.8576792927 2.91630358 
2.9825888767 3.0574329311 3.1415926536 3.5642842451 3.5233842518 3.4524645613 3.4773852225 3.403123212 3.3320300872 
3.4255060145 3.348015857 3.2746326772 3.20576226 3.3668817272 3.2864685043 3.2112816139 3.1415926536 3.0774230472 
3.3005964304 3.2178377658 3.1415926536 3.0719036933 3.00855263 2.95115522 3.225752376 3.1415926536 3.0653475414 
2.9967168029 2.9351694502 2.8800620952 2.8307207459 3.1415926536 3.0574329311 2.9825888767 2.91630358 2.8576792927 
2.8058000847 2.7598010554 2.718901062 4.526799744 4.426884955 4.4046155105 4.3052269283 4.2918546451 4.2807094886 
4.1588146215 4.1588146215 4.1588146215 4.1588146215 3.9875336042 4.0055183285 4.0201070968 4.0321740035 4.042318168 
3.7967995342 3.8356650183 3.8672112905 3.8932795963 3.9151549899 3.9337570603 3.5984456061 3.657329819 3.7058097288 
3.7462412737 3.7803704271 3.809500442 3.8346145692 3.4073543651 3.4813459737 3.5438565869 3.5969754326 3.6424295543 
3.6816134988 3.7156421835 3.7454049075 4.7123889804 4.8004512023 4.6243267584 4.9155579264 4.7123889804 4.5092200343 
5.0674903122 4.8353719722 4.5894059886 4.3572876485 5.2659633393 5.0120975802 4.7123889804 4.4126803806 4.1588146215 
5.5125918794 5.2659633393 4.9155579264 4.5092200343 4.1588146215 3.9121860814 5.7885595667 5.6029703303 5.2659633393 
4.7123889804 4.1588146215 3.8218076305 3.6362183941 6.0560271438 5.9702140275 5.7885595667 5.2659633393 4.1588146215 
3.6362183941 3.4545639333 3.368750817 0.22715816343 0.49462574053 0.3129712797 0.77059342779 0.68021497688 0.49462574053 
1.0172219679 1.0172219679 1.0172219679 1.0172219679 1.2156949949 1.271087727 1.3676273807 1.5707963268 2.1243706857 
1.3676273807 1.447813335 1.5707963268 1.7739652728 2.1243706857 2.6469669131 1.4827341049 1.5707963268 1.6937793186 
1.8705049266 2.1243706857 2.4613776767 2.8286213739 1.5707963268 1.6588585487 1.7739652728 1.9258976586 2.1243706857 
2.3709992258 2.6469669131 2.9144344902 1.7563855631 1.8785697967 1.8563003522 2.0024758186 1.9913306621 1.9779583789 
2.1243706857 2.1243706857 2.1243706857 2.1243706857 2.2408671392 2.2510113037 2.2630782103 2.2776669786 2.295651703 
2.3494282469 2.3680303173 2.3899057108 2.4159740166 2.4475202889 2.486385773 2.448570738 2.4736848652 2.5028148801 
2.5369440334 2.5773755784 2.6258554882 2.6847397011 2.5377803997 2.5675431237 2.6015718084 2.6407557529 2.6862098746 
2.7393287203 2.8018393335 2.8758309421 1.6743954455 1.6743954455 1.7840462375 1.6743954455 1.7840462375 1.8974821136 
1.6743954455 1.7840462375 1.8974821136 2.0119052671 1.6743954455 1.7840462375 1.8974821136 2.0119052671 2.1243706857 
1.6743954455 1.7840462375 1.8974821136 2.0119052671 2.1243706857 2.232221744 1.6743954455 1.7840462375 1.8974821136 
2.0119052671 2.1243706857 2.232221744 2.3334263672 1.6743954455 1.7840462375 1.8974821136 2.0119052671 2.1243706857 
2.232221744 2.3334263672 2.426721652 1.4671972081 1.3575464161 1.4671972081 1.24411054 1.3575464161 1.4671972081 
1.1296873865 1.24411054 1.3575464161 1.4671972081 1.0172219679 1.1296873865 1.24411054 1.3575464161 1.4671972081 
0.90937090954 1.0172219679 1.1296873865 1.24411054 1.3575464161 1.4671972081 0.80816628637 0.90937090954 1.0172219679 
1.1296873865 1.24411054 1.3575464161 1.4671972081 0.71487100155 0.80816628637 0.90937090954 1.0172219679 1.1296873865 
1.24411054 1.3575464161 1.4671972081 0.60381225391 0.57404952988 0.69302191562 0.54002084522 0.66790778838 0.79216440667 
0.50083690068 0.63877777351 0.77356233629 0.90072551443 0.45538277901 0.60464862014 0.75168694275 0.89058134991 1.0172219679 
0.40226393329 0.56421707518 0.72561863695 0.87851444325 1.0172219679 1.139116835 0.33975332011 0.51573716537 0.69407236469 
0.86392567495 1.0172219679 1.1502619915 1.2630228569 0.26576171152 0.45685295248 0.6552068806 0.84594095064 1.0172219679 
1.1636342747 1.2852923014 1.3852070904 0.22715816343 0.3129712797 0.49462574053 0.49462574053 0.68021497688 0.77059342779 
1.0172219679 1.0172219679 1.0172219679 1.0172219679 2.1243706857 1.5707963268 1.3676273807 1.271087727 1.2156949949 
2.6469669131 2.1243706857 1.7739652728 1.5707963268 1.447813335 1.3676273807 2.8286213739 2.4613776767 2.1243706857 
1.8705049266 1.6937793186 1.5707963268 1.4827341049 2.9144344902 2.6469669131 2.3709992258 2.1243706857 1.9258976586 
1.7739652728 1.6588585487 1.5707963268 1.7563855631 1.8563003522 1.8785697967 1.9779583789 1.9913306621 2.0024758186 
2.1243706857 2.1243706857 2.1243706857 2.1243706857 2.295651703 2.2776669786 2.2630782103 2.2510113037 2.2408671392 
2.486385773 2.4475202889 2.4159740166 2.3899057108 2.3680303173 2.3494282469 2.6847397011 2.6258554882 2.5773755784 
2.5369440334 2.5028148801 2.4736848652 2.448570738 2.8758309421 2.8018393335 2.7393287203 2.6862098746 2.6407557529 
2.6015718084 2.5675431237 2.5377803997 5.8604937156 5.901393709 5.9723133995 5.9473927383 6.0216547488 6.0927478736 
5.9992719463 6.0767621038 6.1501452836 6.2190157008 6.0578962336 6.1383094565 6.2134963469 0 0.064169606361 
6.1241815303 6.206940195 6.2831853072 0.069688960264 0.13304002361 0.19043743361 6.1990255847 0 0.07624511221 
0.14487585072 0.20642320337 0.26153055843 0.3108719077 0 0.084159722458 0.15900377685 0.22528907359 0.28391336087 
0.3357925689 0.38179159818 0.42269159155 5.8604937156 5.9723133995 5.901393709 6.0927478736 6.0216547488 5.9473927383 
6.2190157008 6.1501452836 6.0767621038 5.9992719463 0.064169606361 0 6.2134963469 6.1383094565 6.0578962336 
0.19043743361 0.13304002361 0.069688960264 6.2831853072 6.206940195 6.1241815303 0.3108719077 0.26153055843 0.20642320337 
0.14487585072 0.07624511221 6.2831853072 6.1990255847 0.42269159155 0.38179159818 0.3357925689 0.28391336087 0.22528907359 
0.15900377685 0.084159722458 0 5.6793730533 5.7091357773 5.5901633916 5.743164462 5.6152775188 5.4910209005 
5.7823484065 5.6444075337 5.5096229709 5.3824597928 5.8278025282 5.678536687 5.5314983644 5.3926039573 5.2659633393 
5.8809213739 5.718968232 5.5575666702 5.4046708639 5.2659633393 5.1440684722 5.9434319871 5.7674481418 5.5891129425 
5.4192596322 5.2659633393 5.1329233157 5.0201624502 6.0174235957 5.8263323547 5.6279784266 5.4372443565 5.2659633393 
5.1195510325 4.9978930058 4.8979782167 1.3852070904 1.2852923014 1.2630228569 1.1636342747 1.1502619915 1.139116835 
1.0172219679 1.0172219679 1.0172219679 1.0172219679 0.84594095064 0.86392567495 0.87851444325 0.89058134991 0.90072551443 
0.6552068806 0.69407236469 0.72561863695 0.75168694275 0.77356233629 0.79216440667 0.45685295248 0.51573716537 0.56421707518 
0.60464862014 0.63877777351 0.66790778838 0.69302191562 0.26576171152 0.33975332011 0.40226393329 0.45538277901 0.50083690068 
0.54002084522 0.57404952988 0.60381225391 
_paraPhiHalf 1 1002 double
0 3.1415926536 0 3.1415926536 1.5707963268 1.5707963268 1.5707963268 1.5707963268 2.5880182947 
0.5535743589 2.5880182947 0.5535743589 0 0 0 0 3.1415926536 3.1415926536 
3.1415926536 3.1415926536 3.1415926536 0.17788134 0.38438696014 0.60631181711 0.82323535693 1.0172219679 1.1799687454 
1.3118704726 1.4175000338 1.5022335207 0.17788134 0.38438696014 0.60631181711 0.82323535693 1.0172219679 1.1799687454 
1.3118704726 1.4175000338 1.5022335207 0.093902416448 0.17615329733 0.2478725152 0.31035131605 0.36486382811 0.41257334776 
0.45449736604 0.4915044461 0.52432611754 0.093902416448 0.17615329733 0.2478725152 0.31035131605 0.36486382811 0.41257334776 
0.45449736604 0.4915044461 0.52432611754 2.9637113136 2.7572056934 2.5352808365 2.3183572967 2.1243706857 1.9616239082 
1.829722181 1.7240926197 1.6393591329 2.9637113136 2.7572056934 2.5352808365 2.3183572967 2.1243706857 1.9616239082 
1.829722181 1.7240926197 1.6393591329 3.0476902371 2.9654393563 2.8937201384 2.8312413375 2.7767288255 2.7290193058 
2.6870952876 2.6500882075 2.617266536 3.0476902371 2.9654393563 2.8937201384 2.8312413375 2.7767288255 2.7290193058 
2.6870952876 2.6500882075 2.617266536 0 0 0 0 3.1415926536 3.1415926536 
3.1415926536 3.1415926536 3.1415926536 0.17788134 0.38438696014 0.60631181711 0.82323535693 1.0172219679 1.1799687454 
1.3118704726 1.4175000338 1.5022335207 0.17788134 0.38438696014 0.60631181711 0.82323535693 1.0172219679 1.1799687454 
1.3118704726 1.4175000338 1.5022335207 0.093902416448 0.17615329733 0.2478725152 0.31035131605 0.36486382811 0.41257334776 
0.45449736604 0.4915044461 0.52432611754 0.093902416448 0.17615329733 0.2478725152 0.31035131605 0.36486382811 0.41257334776 
0.45449736604 0.4915044461 0.52432611754 2.9637113136 2.7572056934 2.5352808365 2.3183572967 2.1243706857 1.9616239082 
1.829722181 1.7240926197 1.6393591329 2.9637113136 2.7572056934 2.5352808365 2.3183572967 2.1243706857 1.9616239082 
1.829722181 1.7240926197 1.6393591329 3.0476902371 2.9654393563 2.8937201384 2.8312413375 2.7767288255 2.7290193058 
2.6870952876 2.6500882075 2.617266536 3.0476902371 2.9654393563 2.8937201384 2.8312413375 2.7767288255 2.7290193058 
2.6870952876 2.6500882075 2.617266536 1.5707963268 1.5707963268 1.5707963268 1.5707963268 1.5707963268 1.5707963268 
1.5707963268 1.5707963268 1.5707963268 1.6743954455 1.7840462375 1.8974821136 2.0119052671 2.1243706857 2.232221744 
2.3334263672 2.426721652 2.5115728246 1.4671972081 1.3575464161 1.24411054 1.1296873865 1.0172219679 0.90937090954 
0.80816628637 0.71487100155 0.63001982895 1.6743954455 1.7840462375 1.8974821136 2.0119052671 2.1243706857 2.232221744 
2.3334263672 2.426721652 2.5115728246 1.4671972081 1.3575464161 1.24411054 1.1296873865 1.0172219679 0.90937090954 
0.80816628637 0.71487100155 0.63001982895 1.5707963268 1.5707963268 1.5707963268 1.5707963268 1.5707963268 1.5707963268 
1.5707963268 1.5707963268 1.5707963268 1.6743954455 1.7840462375 1.8974821136 2.0119052671 2.1243706857 2.232221744 
2.3334263672 2.426721652 2.5115728246 1.4671972081 1.3575464161 1.24411054 1.1296873865 1.0172219679 0.90937090954 
0.80816628637 0.71487100155 0.63001982895 1.6743954455 1.7840462375 1.8974821136 2.0119052671 2.1243706857 2.232221744 
2.3334263672 2.426721652 2.5115728246 1.4671972081 1.3575464161 1.24411054 1.1296873865 1.0172219679 0.90937090954 
0.80816628637 0.71487100155 0.63001982895 2.6824132222 2.7864913217 2.8992382033 3.0186096618 3.1415926536 3.0186096618 
2.8992382033 2.7864913217 2.6824132222 0.45917943135 0.35510133185 0.2423544503 0.12298299178 0 0.12298299178 
0.2423544503 0.35510133185 0.45917943135 0.22715816343 0.49462574053 0.3129712797 0.77059342779 0.68021497688 0.49462574053 
1.0172219679 1.0172219679 1.0172219679 1.0172219679 1.2156949949 1.271087727 1.3676273807 1.5707963268 2.1243706857 
1.3676273807 1.447813335 1.5707963268 1.7739652728 2.1243706857 2.6469669131 1.4827341049 1.5707963268 1.6937793186 
1.8705049266 2.1243706857 2.4613776767 2.8286213739 1.5707963268 1.6588585487 1.7739652728 1.9258976586 2.1243706857 
2.3709992258 2.6469669131 2.9144344902 0.26576171152 0.33975332011 0.45685295248 0.40226393329 0.51573716537 0.6552068806 
0.45538277901 0.56421707518 0.69407236469 0.84594095064 0.50083690068 0.60464862014 0.72561863695 0.86392567495 1.0172219679 
0.54002084522 0.63877777351 0.75168694275 0.87851444325 1.0172219679 1.1636342747 0.57404952988 0.66790778838 0.77356233629 
0.89058134991 1.0172219679 1.1502619915 1.2852923014 0.60381225391 0.69302191562 0.79216440667 0.90072551443 1.0172219679 
1.139116835 1.2630228569 1.3852070904 0.71487100155 0.80816628637 0.80816628637 0.90937090954 0.90937090954 0.90937090954 
1.0172219679 1.0172219679 1.0172219679 1.0172219679 1.1296873865 1.1296873865 1.1296873865 1.1296873865 1.1296873865 
1.24411054 1.24411054 1.24411054 1.24411054 1.24411054 1.24411054 1.3575464161 1.3575464161 1.3575464161 
1.3575464161 1.3575464161 1.3575464161 1.3575464161 1.4671972081 1.4671972081 1.4671972081 1.4671972081 1.4671972081 
1.4671972081 1.4671972081 1.4671972081 1.6743954455 1.6743954455 1.7840462375 1.6743954455 1.7840462375 1.8974821136 
1.6743954455 1.7840462375 1.8974821136 2.0119052671 1.6743954455 1.7840462375 1.8974821136 2.0119052671 2.1243706857 
1.6743954455 1.7840462375 1.8974821136 2.0119052671 2.1243706857 2.232221744 1.6743954455 1.7840462375 1.8974821136 
2.0119052671 2.1243706857 2.232221744 2.3334263672 1.6743954455 1.7840462375 1.8974821136 2.0119052671 2.1243706857 
2.232221744 2.3334263672 2.426721652 1.7563855631 1.8785697967 1.8563003522 2.0024758186 1.9913306621 1.9779583789 
2.1243706857 2.1243706857 2.1243706857 2.1243706857 2.2408671392 2.2510113037 2.2630782103 2.2776669786 2.295651703 
2.3494282469 2.3680303173 2.3899057108 2.4159740166 2.4475202889 2.486385773 2.448570738 2.4736848652 2.5028148801 
2.5369440334 2.5773755784 2.6258554882 2.6847397011 2.5377803997 2.5675431237 2.6015718084 2.6407557529 2.6862098746 
2.7393287203 2.8018393335 2.8758309421 2.718901062 2.8307207459 2.7598010554 2.95115522 2.8800620952 2.8058000847 
3.0774230472 3.00855263 2.9351694502 2.8576792927 3.0774230472 3.1415926536 3.0719036933 2.9967168029 2.91630358 
2.95115522 3.00855263 3.0719036933 3.1415926536 3.0653475414 2.9825888767 2.8307207459 2.8800620952 2.9351694502 
2.9967168029 3.0653475414 3.1415926536 3.0574329311 2.718901062 2.7598010554 2.8058000847 2.8576792927 2.91630358 
2.9825888767 3.0574329311 3.1415926536 2.718901062 2.7598010554 2.8307207459 2.8058000847 2.8800620952 2.95115522 
2.8576792927 2.9351694502 3.00855263 3.0774230472 2.91630358 2.9967168029 3.0719036933 3.1415926536 3.0774230472 
2.9825888767 3.0653475414 3.1415926536 3.0719036933 3.00855263 2.95115522 3.0574329311 3.1415926536 3.0653475414 