# vtk DataFile Version 5.1
vtk output
ASCII
DATASET POLYDATA
POINTS 1002 float
-0.636405 -0.0174107 -0.191474 0.614031 0.0529875 -0.110438 -0.593601 -0.0135164 0.208433 
0.519515 0.055463 0.135618 -0.0568244 0.376212 -0.107229 -0.0830912 0.367984 0.0697053 
-0.191735 -0.0627061 -0.111086 -0.212862 -0.0287494 0.0143002 0.834662 0.081639 0.027948 
-0.843356 0.17019 0.00931302 0.899681 -0.505583 0.0278682 -0.781316 -0.551326 0.021816 
-0.570488 0.0182986 -0.18196 -0.498139 0.0576608 -0.161612 -0.403148 0.0894328 -0.146935 
-0.269895 0.106065 -0.150504 -0.101009 0.115759 -0.162248 0.0802857 0.130117 -0.162736 
0.247304 0.140618 -0.149279 0.388598 0.129162 -0.132596 0.508573 0.0949984 -0.119612 
-0.605392 0.0338243 -0.180662 -0.544251 0.0927832 -0.167924 -0.457582 0.153304 -0.166166 
-0.370603 0.209813 -0.179058 -0.30798 0.260119 -0.192794 -0.266693 0.302357 -0.191819 
-0.225282 0.333745 -0.175495 -0.173133 0.354269 -0.152188 -0.114913 0.367276 -0.128345 
-0.615098 -0.0432805 -0.19534 -0.596373 -0.0682305 -0.193527 -0.577814 -0.0929625 -0.183559 
-0.549729 -0.115569 -0.167782 -0.507494 -0.130607 -0.152272 -0.460033 -0.132798 -0.139487 
-0.414352 -0.121664 -0.127769 -0.360779 -0.101932 -0.11793 -0.286184 -0.0804304 -0.112598 
-0.700542 -0.0177614 -0.185956 -0.777175 -0.0105348 -0.175817 -0.839103 0.00647411 -0.162364 
-0.864208 0.0336988 -0.143809 -0.864755 0.0680411 -0.118762 -0.866888 0.102161 -0.0901003 
-0.872016 0.12943 -0.0620013 -0.868517 0.14866 -0.0361 -0.856942 0.161752 -0.0122984 
-0.684076 -0.0643491 -0.186323 -0.722797 -0.107129 -0.158412 -0.750235 -0.149015 -0.1204 
-0.766405 -0.199527 -0.0933975 -0.781981 -0.264337 -0.078608 -0.803606 -0.337793 -0.0615286 
-0.816701 -0.409364 -0.0408766 -0.809005 -0.472063 -0.0233887 -0.791974 -0.521055 -0.00488575 
0.565843 0.0944582 -0.116137 0.517496 0.136655 -0.125805 0.46181 0.179621 -0.137275 
0.391112 0.223103 -0.145765 0.313067 0.263651 -0.147819 0.241504 0.297685 -0.144636 
0.173673 0.32537 -0.138991 0.0983757 0.347751 -0.130951 0.0175498 0.364489 -0.119789 
0.599428 0.037719 -0.112474 0.580232 0.0224059 -0.119039 0.551965 0.00824543 -0.130495 
0.508551 -0.00137552 -0.138869 0.441971 -0.00324166 -0.136579 0.343562 0.000503894 -0.129494 
0.212931 0.00138228 -0.1277 0.0653722 -0.00875912 -0.128779 -0.0755313 -0.0314735 -0.123847 
0.684773 0.038642 -0.104102 0.754974 0.0299405 -0.0962706 0.816623 0.0267193 -0.0880464 
0.858801 0.0249326 -0.0788242 0.875438 0.0238959 -0.063743 0.874685 0.0281239 -0.0405697 
0.870744 0.0388556 -0.016078 0.86609 0.0521084 0.00241616 0.854306 0.065868 0.0156507 
0.709817 -0.000871378 -0.10371 0.806561 -0.0596773 -0.0935584 0.888321 -0.126411 -0.0755119 
0.946998 -0.208137 -0.057095 0.985 -0.300893 -0.0537495 1.00113 -0.385538 -0.0641936 
0.989538 -0.446933 -0.0654202 0.956756 -0.484794 -0.0426808 0.922038 -0.503613 -0.00575061 
-0.520023 0.019241 0.19916 -0.449682 0.0469772 0.183582 -0.384151 0.0738025 0.15512 
-0.278693 0.112172 0.106273 -0.094167 0.155896 0.0546274 0.122145 0.173117 0.0385509 
0.283543 0.149633 0.0678093 0.374906 0.10976 0.109856 0.443327 0.0785176 0.133469 
-0.576793 0.028919 0.199832 -0.560148 0.0714753 0.186456 -0.534864 0.117897 0.166247 
-0.485248 0.172059 0.146746 -0.408077 0.229481 0.139339 -0.324992 0.278987 0.140455 
-0.260008 0.314274 0.133821 -0.210679 0.337682 0.113638 -0.155997 0.354336 0.0891214 
-0.561477 -0.0357531 0.211359 -0.513234 -0.0590768 0.21264 -0.453002 -0.083727 0.211323 
-0.395594 -0.109409 0.203581 -0.358973 -0.131541 0.185042 -0.34804 -0.139323 0.154803 
-0.346686 -0.124834 0.116604 -0.329977 -0.0932709 0.0768946 -0.284124 -0.0579582 0.0417266 
-0.642647 -0.0187462 0.204862 -0.670539 -0.015385 0.187521 -0.686392 -0.000857495 0.158382 
-0.713296 0.0189224 0.131489 -0.760102 0.0381808 0.116758 -0.809079 0.0604996 0.10596 
-0.840187 0.0900886 0.0870877 -0.851387 0.122208 0.0608743 -0.850595 0.149641 0.0340628 
-0.646585 -0.0654832 0.215509 -0.686502 -0.122284 0.216577 -0.698712 -0.174526 0.204264 
-0.699773 -0.221953 0.178577 -0.726525 -0.279058 0.154756 -0.780432 -0.357574 0.144186 
-0.819742 -0.445976 0.133844 -0.820195 -0.516994 0.105449 -0.799298 -0.551919 0.0622685 
0.487828 0.0820483 0.146193 0.462365 0.119198 0.143894 0.443612 0.164997 0.12938 
0.423865 0.212687 0.110609 0.387633 0.256988 0.0965202 0.320462 0.295372 0.089794 
0.222084 0.324735 0.0863056 0.109399 0.343831 0.0812609 0.00365915 0.356491 0.0746396 
0.503938 0.050229 0.122272 0.488571 0.0496801 0.105556 0.467861 0.0502133 0.0834839 
0.427558 0.0482637 0.0594825 0.34951 0.0441905 0.040628 0.229455 0.0410295 0.0277366 
0.0884181 0.0380612 0.0165413 -0.0420501 0.0286341 0.00814937 -0.142905 0.00636437 0.00736986 
0.584295 0.0451372 0.141517 0.653348 0.0314152 0.149956 0.718052 0.0159957 0.151467 
0.773997 0.00380671 0.133827 0.811762 -0.00288524 0.104647 0.822549 -0.00423897 0.0841009 
0.819444 0.00295991 0.0744008 0.822967 0.0222481 0.0630374 0.832417 0.0507958 0.0459857 
0.597308 0.0213039 0.11643 0.681179 -0.0360141 0.094263 0.757317 -0.124385 0.0903485 
0.819359 -0.228987 0.111277 0.866206 -0.323604 0.134287 0.897141 -0.39779 0.134497 
0.913173 -0.455393 0.11426 0.916238 -0.494891 0.0878332 0.90944 -0.510965 0.0593553 
-0.0629785 0.387092 -0.0869847 -0.065294 0.398712 -0.0688584 -0.061363 0.411298 -0.0554491 
-0.0536421 0.423498 -0.0400395 -0.047199 0.432277 -0.0138078 -0.0454325 0.433156 0.0181326 
-0.0503485 0.423216 0.0412211 -0.0619787 0.405087 0.0520003 -0.0753158 0.385175 0.0593815 
0.0532906 0.37729 -0.0983695 0.175742 0.376306 -0.0929525 0.292706 0.368658 -0.0854882 
0.40068 0.348605 -0.0726573 0.512847 0.31718 -0.0574391 0.627202 0.282778 -0.0432266 
0.718683 0.247781 -0.0279994 0.774409 0.204151 -0.00927454 0.807263 0.146859 0.0106831 
-0.155976 0.381418 -0.109726 -0.245911 0.387079 -0.116175 -0.342809 0.392793 -0.119055 
-0.462155 0.393419 -0.112067 -0.57983 0.378401 -0.097725 -0.658507 0.341871 -0.0803907 
-0.705752 0.292583 -0.0591124 -0.752888 0.24521 -0.0342853 -0.804028 0.20552 -0.0105888 
0.0699718 0.374442 0.0599771 0.254056 0.381208 0.0585002 0.419568 0.37992 0.0605112 
0.530388 0.361251 0.0598792 0.608049 0.329096 0.0562516 0.686197 0.294978 0.0516663 
0.752079 0.257179 0.0455538 0.785718 0.205877 0.0382066 0.804495 0.143325 0.0320163 
-0.200345 0.373112 0.0790845 -0.297709 0.377785 0.0885574 -0.388386 0.375036 0.088183 
-0.481929 0.360831 0.0758479 -0.565061 0.337263 0.0606048 -0.628219 0.306233 0.0497103 
-0.685287 0.269078 0.0407759 -0.74627 0.231495 0.0302708 -0.802388 0.19881 0.0191608 
-0.19013 -0.0736102 -0.0993258 -0.186656 -0.0810604 -0.0847506 -0.185024 -0.0821277 -0.0704663 
-0.187181 -0.0761858 -0.0585739 -0.191095 -0.0672317 -0.0467122 -0.192897 -0.060332 -0.0319338 
-0.191891 -0.0554361 -0.0163359 -0.192613 -0.0487026 -0.00372754 -0.199843 -0.0389471 0.00575322 
-0.0036933 -0.0374548 -0.118869 0.20234 -0.0429658 -0.118977 0.370725 -0.0833591 -0.105654 
0.49076 -0.142946 -0.0823802 0.604142 -0.20369 -0.0593283 0.724541 -0.266593 -0.0427511 
0.813842 -0.338385 -0.0299456 0.855105 -0.410499 -0.0149714 0.875281 -0.46815 0.00472114 
-0.33356 -0.116925 -0.0956918 -0.412508 -0.187562 -0.0863153 -0.434798 -0.261562 -0.0889488 
-0.45407 -0.326323 -0.0910587 -0.511396 -0.37373 -0.0724087 -0.591248 -0.407087 -0.0379906 
-0.660413 -0.442598 -0.0133719 -0.711035 -0.488895 -0.00526704 -0.750179 -0.531972 0.00262565 
-0.0639988 0.0095261 -0.0092334 0.136444 0.0126745 -0.0152489 0.336372 -0.0270895 -0.00213518 
0.492388 -0.0967406 0.0166612 0.617084 -0.17675 0.0253162 0.734799 -0.259543 0.0258118 
0.824404 -0.34292 0.0301347 0.863861 -0.417474 0.0375721 0.877106 -0.472586 0.0378244 
-0.296066 -0.0971293 0.0425133 -0.335631 -0.180356 0.070063 -0.361403 -0.256931 0.0834379 
-0.410417 -0.317167 0.0836474 -0.486369 -0.371527 0.0850074 -0.568087 -0.431332 0.0910129 
-0.642728 -0.491245 0.0880086 -0.70575 -0.536597 0.0686511 -0.751978 -0.557079 0.0424562 
0.892375 0.0011212 0.0343737 0.972673 -0.0831861 0.0395116 1.03309 -0.173992 0.0487588 
1.04255 -0.282055 0.0684679 1.03436 -0.398918 0.0916747 1.04839 -0.489973 0.098446 
1.05533 -0.533833 0.0813721 1.01612 -0.541686 0.0556041 0.950873 -0.530468 0.0371694 
-0.870555 0.125874 0.0156642 -0.871837 0.0639753 0.0225066 -0.858895 -0.0186312 0.0280556 
-0.849881 -0.109293 0.0332135 -0.842449 -0.192961 0.0426263 -0.82803 -0.275279 0.0550072 
-0.81616 -0.368434 0.0588878 -0.812728 -0.460533 0.0482292 -0.804707 -0.525317 0.031972 
-0.516672 0.0732129 -0.166757 -0.433388 0.129228 -0.160679 -0.421236 0.109614 -0.153956 
-0.340632 0.179502 -0.170939 -0.326104 0.154794 -0.161958 -0.308157 0.130376 -0.155897 
-0.268959 0.22357 -0.185018 -0.242035 0.191104 -0.176372 -0.213006 0.162248 -0.172154 
-0.165063 0.135062 -0.169677 -0.223145 0.265153 -0.184547 -0.182287 0.226019 -0.177137 
-0.135845 0.191397 -0.176612 -0.0715295 0.161773 -0.180084 0.00537413 0.140596 -0.176802 
-0.178028 0.303111 -0.16963 -0.125731 0.26484 -0.16261 -0.0648539 0.227308 -0.1639 
0.0121031 0.194822 -0.173015 0.0993462 0.169748 -0.177588 0.179285 0.153736 -0.167981 
-0.116944 0.332437 -0.151852 -0.0527144 0.301862 -0.148349 0.0173412 0.267801 -0.149947 
0.0972803 0.234898 -0.159612 0.185604 0.204706 -0.168601 0.26662 0.179027 -0.165435 
0.33139 0.156054 -0.149906 -0.0476155 0.351916 -0.135671 0.0276937 0.329668 -0.139853 
0.10257 0.302152 -0.144001 0.177916 0.271787 -0.15125 0.259548 0.238523 -0.158347 
0.339507 0.203354 -0.157611 0.404486 0.16864 -0.14655 0.45715 0.133313 -0.131239 
-0.670449 0.0389568 -0.177935 -0.74349 0.0525117 -0.168915 -0.605008 0.105737 -0.166307 
-0.796289 0.0741083 -0.153767 -0.671037 0.125841 -0.157304 -0.513312 0.175581 -0.165605 
-0.815476 0.101696 -0.134109 -0.717702 0.14895 -0.14244 -0.575503 0.201358 -0.157261 
-0.424268 0.240783 -0.179807 -0.819091 0.13248 -0.112286 -0.739507 0.172654 -0.126438 
-0.62558 0.223937 -0.143791 -0.486244 0.269208 -0.171468 -0.358945 0.294797 -0.193422 
-0.8236 0.161282 -0.0887618 -0.751421 0.197379 -0.110079 -0.661206 0.24391 -0.128873 
[...]
POINT_DATA 1002
FIELD FieldData 4
_paraPhi 1 1002 double
6.2831853072 3.1415926536 6.2831853072 3.1415926536 4.7123889804 4.7123889804 1.5707963268 1.5707963268 3.6951670125 
5.7296109483 2.5880182947 0.5535743589 6.2831853072 6.2831853072 6.2831853072 6.2831853072 3.1415926536 3.1415926536 
3.1415926536 3.1415926536 3.1415926536 6.1053039672 5.898798347 5.6768734901 5.4599499503 5.2659633393 5.1032165617 
4.9713148346 4.8656852733 4.7809517865 0.17788134 0.38438696014 0.60631181711 0.82323535693 1.0172219679 1.1799687454 
1.3118704726 1.4175000338 1.5022335207 6.1892828907 6.1070320098 6.035312792 5.9728339911 5.9183214791 5.8706119594 
5.8286879411 5.7916808611 5.7588591896 0.093902416448 0.17615329733 0.2478725152 0.31035131605 0.36486382811 0.41257334776 
0.45449736604 0.4915044461 0.52432611754 3.3194739936 3.5259796137 3.7479044707 3.9648280105 4.1588146215 4.321561399 
4.4534631262 4.5590926874 4.6438261743 2.9637113136 2.7572056934 2.5352808365 2.3183572967 2.1243706857 1.9616239082 
1.829722181 1.7240926197 1.6393591329 3.23549507 3.3177459509 3.3894651688 3.4519439696 3.5064564817 3.5541660013 
3.5960900196 3.6330970997 3.6659187711 3.0476902371 2.9654393563 2.8937201384 2.8312413375 2.7767288255 2.7290193058 
2.6870952876 2.6500882075 2.617266536 6.2831853072 6.2831853072 6.2831853072 6.2831853072 3.1415926536 3.1415926536 
3.1415926536 3.1415926536 3.1415926536 6.1053039672 5.898798347 5.6768734901 5.4599499503 5.2659633393 5.1032165617 
4.9713148346 4.8656852733 4.7809517865 0.17788134 0.38438696014 0.60631181711 0.82323535693 1.0172219679 1.1799687454 
1.3118704726 1.4175000338 1.5022335207 6.1892828907 6.1070320098 6.035312792 5.9728339911 5.9183214791 5.8706119594 
5.8286879411 5.7916808611 5.7588591896 0.093902416448 0.17615329733 0.2478725152 0.31035131605 0.36486382811 0.41257334776 
0.45449736604 0.4915044461 0.52432611754 3.3194739936 3.5259796137 3.7479044707 3.9648280105 4.1588146215 4.321561399 
4.4534631262 4.5590926874 4.6438261743 2.9637113136 2.7572056934 2.5352808365 2.3183572967 2.1243706857 1.9616239082 
1.829722181 1.7240926197 1.6393591329 3.23549507 3.3177459509 3.3894651688 3.4519439696 3.5064564817 3.5541660013 
3.5960900196 3.6330970997 3.6659187711 3.0476902371 2.9654393563 2.8937201384 2.8312413375 2.7767288255 2.7290193058 
2.6870952876 2.6500882075 2.617266536 4.7123889804 4.7123889804 4.7123889804 4.7123889804 4.7123889804 4.7123889804 
4.7123889804 4.7123889804 4.7123889804 4.6087898617 4.4991390697 4.3857031936 4.2712800401 4.1588146215 4.0509635631 
3.94975894 3.8564636551 3.7716124825 4.8159880991 4.9256388911 5.0390747672 5.1534979207 5.2659633393 5.3738143976 
5.4750190208 5.5683143056 5.6531654782 4.6087898617 4.4991390697 4.3857031936 4.2712800401 4.1588146215 4.0509635631 
3.94975894 3.8564636551 3.7716124825 4.8159880991 4.9256388911 5.0390747672 5.1534979207 5.2659633393 5.3738143976 
5.4750190208 5.5683143056 5.6531654782 1.5707963268 1.5707963268 1.5707963268 1.5707963268 1.5707963268 1.5707963268 
1.5707963268 1.5707963268 1.5707963268 1.6743954455 1.7840462375 1.8974821136 2.0119052671 2.1243706857 2.232221744 
2.3334263672 2.426721652 2.5115728246 1.4671972081 1.3575464161 1.24411054 1.1296873865 1.0172219679 0.90937090954 
0.80816628637 0.71487100155 0.63001982895 1.6743954455 1.7840462375 1.8974821136 2.0119052671 2.1243706857 2.232221744 
2.3334263672 2.426721652 2.5115728246 1.4671972081 1.3575464161 1.24411054 1.1296873865 1.0172219679 0.90937090954 
0.80816628637 0.71487100155 0.63001982895 3.6007720849 3.4966939854 3.3839471039 3.2645756454 3.1415926536 3.0186096618 
2.8992382033 2.7864913217 2.6824132222 5.8240058758 5.9280839753 6.0408308569 6.1602023154 6.2831853072 0.12298299178 
0.2423544503 0.35510133185 0.45917943135 6.0560271438 5.7885595667 5.9702140275 5.5125918794 5.6029703303 5.7885595667 
5.2659633393 5.2659633393 5.2659633393 5.2659633393 5.0674903122 5.0120975802 4.9155579264 4.7123889804 4.1588146215 
4.9155579264 4.8353719722 4.7123889804 4.5092200343 4.1588146215 3.6362183941 4.8004512023 4.7123889804 4.5894059886 
4.4126803806 4.1588146215 3.8218076305 3.4545639333 4.7123889804 4.6243267584 4.5092200343 4.3572876485 4.1588146215 
3.9121860814 3.6362183941 3.368750817 6.0174235957 5.9434319871 5.8263323547 5.8809213739 5.7674481418 5.6279784266 
5.8278025282 5.718968232 5.5891129425 5.4372443565 5.7823484065 5.678536687 5.5575666702 5.4192596322 5.2659633393 
5.743164462 5.6444075337 5.5314983644 5.4046708639 5.2659633393 5.1195510325 5.7091357773 5.6152775188 5.5096229709 
5.3926039573 5.2659633393 5.1329233157 4.9978930058 5.6793730533 5.5901633916 5.4910209005 5.3824597928 5.2659633393 
5.1440684722 5.0201624502 4.8979782167 5.5683143056 5.4750190208 5.4750190208 5.3738143976 5.3738143976 5.3738143976 
5.2659633393 5.2659633393 5.2659633393 5.2659633393 5.1534979207 5.1534979207 5.1534979207 5.1534979207 5.1534979207 
5.0390747672 5.0390747672 5.0390747672 5.0390747672 5.0390747672 5.0390747672 4.9256388911 4.9256388911 4.9256388911 
4.9256388911 4.9256388911 4.9256388911 4.9256388911 4.8159880991 4.8159880991 4.8159880991 4.8159880991 4.8159880991 
4.8159880991 4.8159880991 4.8159880991 4.6087898617 4.6087898617 4.4991390697 4.6087898617 4.4991390697 4.3857031936 
4.6087898617 4.4991390697 4.3857031936 4.2712800401 4.6087898617 4.4991390697 4.3857031936 4.2712800401 4.1588146215 
4.6087898617 4.4991390697 4.3857031936 4.2712800401 4.1588146215 4.0509635631 4.6087898617 4.4991390697 4.3857031936 
4.2712800401 4.1588146215 4.0509635631 3.94975894 4.6087898617 4.4991390697 4.3857031936 4.2712800401 4.1588146215 
4.0509635631 3.94975894 3.8564636551 4.526799744 4.4046155105 4.426884955 4.2807094886 4.2918546451 4.3052269283 
4.1588146215 4.1588146215 4.1588146215 4.1588146215 4.042318168 4.0321740035 4.0201070968 4.0055183285 3.9875336042 
3.9337570603 3.9151549899 3.8932795963 3.8672112905 3.8356650183 3.7967995342 3.8346145692 3.809500442 3.7803704271 
3.7462412737 3.7058097288 3.657329819 3.5984456061 3.7454049075 3.7156421835 3.6816134988 3.6424295543 3.5969754326 
3.5438565869 3.4813459737 3.4073543651 3.5642842451 3.4524645613 3.5233842518 3.3320300872 3.403123212 3.4773852225 
3.20576226 3.2746326772 3.348015857 3.4255060145 3.0774230472 3.1415926536 3.2112816139 3.2864685043 3.3668817272 
2.95115522 3.00855263 3.0719036933 3.1415926536 3.2178377658 3.3005964304 2.8307207459 2.8800620952 2.9351694502 
2.9967168029 3.0653475414 3.1415926536 3.225752376 2.718901062 2.7598010554 2.8058000847 2.8576792927 2.91630358 
2.9825888767 3.0574329311 3.1415926536 3.5642842451 3.5233842518 3.4524645613 3.4773852225 3.403123212 3.3320300872 
3.4255060145 3.348015857 3.2746326772 3.20576226 3.3668817272 3.2864685043 3.2112816139 3.1415926536 3.0774230472 
3.3005964304 3.2178377658 3.1415926536 3.0719036933 3.00855263 2.95115522 3.225752376 3.1415926536 3.0653475414 
2.9967168029 2.9351694502 2.8800620952 2.8307207459 3.1415926536 3.0574329311 2.9825888767 2.91630358 2.8576792927 
2.8058000847 2.7598010554 2.718901062 4.526799744 4.426884955 4.4046155105 4.3052269283 4.2918546451 4.2807094886 
4.1588146215 4.1588146215 4.1588146215 4.1588146215 3.9875336042 4.0055183285 4.0201070968 4.0321740035 4.042318168 
3.7967995342 3.8356650183 3.8672112905 3.8932795963 3.9151549899 3.9337570603 3.5984456061 3.657329819 3.7058097288 
3.7462412737 3.7803704271 3.809500442 3.8346145692 3.4073543651 3.4813459737 3.5438565869 3.5969754326 3.6424295543 
3.6816134988 3.7156421835 3.7454049075 4.7123889804 4.8004512023 4.6243267584 4.9155579264 4.7123889804 4.5092200343 
5.0674903122 4.8353719722 4.5894059886 4.3572876485 5.2659633393 5.0120975802 4.7123889804 4.4126803806 4.1588146215 
5.5125918794 5.2659633393 4.9155579264 4.5092200343 4.1588146215 3.9121860814 5.7885595667 5.6029703303 5.2659633393 
4.7123889804 4.1588146215 3.8218076305 3.6362183941 6.0560271438 5.9702140275 5.7885595667 5.2659633393 4.1588146215 
3.6362183941 3.4545639333 3.368750817 0.22715816343 0.49462574053 0.3129712797 0.77059342779 0.68021497688 0.49462574053 
1.0172219679 1.0172219679 1.0172219679 1.0172219679 1.2156949949 1.271087727 1.3676273807 1.5707963268 2.1243706857 
1.3676273807 1.447813335 1.5707963268 1.7739652728 2.1243706857 2.6469669131 1.4827341049 1.5707963268 1.6937793186 
1.8705049266 2.1243706857 2.4613776767 2.8286213739 1.5707963268 1.6588585487 1.7739652728 1.9258976586 2.1243706857 
2.3709992258 2.6469669131 2.9144344902 1.7563855631 1.8785697967 1.8563003522 2.0024758186 1.9913306621 1.9779583789 
2.1243706857 2.1243706857 2.1243706857 2.1243706857 2.2408671392 2.2510113037 2.2630782103 2.2776669786 2.295651703 
2.3494282469 2.3680303173 2.3899057108 2.4159740166 2.4475202889 2.486385773 2.448570738 2.4736848652 2.5028148801 
2.5369440334 2.5773755784 2.6258554882 2.6847397011 2.5377803997 2.5675431237 2.6015718084 2.6407557529 2.6862098746 
2.7393287203 2.8018393335 2.8758309421 1.6743954455 1.6743954455 1.7840462375 1.6743954455 1.7840462375 1.8974821136 
1.6743954455 1.7840462375 1.8974821136 2.0119052671 1.6743954455 1.7840462375 1.8974821136 2.0119052671 2.1243706857 
1.6743954455 1.7840462375 1.8974821136 2.0119052671 2.1243706857 2.232221744 1.6743954455 1.7840462375 1.8974821136 
2.0119052671 2.1243706857 2.232221744 2.3334263672 1.6743954455 1.7840462375 1.8974821136 2.0119052671 2.1243706857 
2.232221744 2.3334263672 2.426721652 1.4671972081 1.3575464161 1.4671972081 1.24411054 1.3575464161 1.4671972081 
1.1296873865 1.24411054 1.3575464161 1.4671972081 1.0172219679 1.1296873865 1.24411054 1.3575464161 1.4671972081 
0.90937090954 1.0172219679 1.1296873865 1.24411054 1.3575464161 1.4671972081 0.80816628637 0.90937090954 1.0172219679 
1.1296873865 1.24411054 1.3575464161 1.4671972081 0.71487100155 0.80816628637 0.90937090954 1.0172219679 1.1296873865 
1.24411054 1.3575464161 1.4671972081 0.60381225391 0.57404952988 0.69302191562 0.54002084522 0.66790778838 0.79216440667 
0.50083690068 0.63877777351 0.77356233629 0.90072551443 0.45538277901 0.60464862014 0.75168694275 0.89058134991 1.0172219679 
0.40226393329 0.56421707518 0.72561863695 0.87851444325 1.0172219679 1.139116835 0.33975332011 0.51573716537 0.69407236469 
0.86392567495 1.0172219679 1.1502619915 1.2630228569 0.26576171152 0.45685295248 0.6552068806 0.84594095064 1.0172219679 
1.1636342747 1.2852923014 1.3852070904 0.22715816343 0.3129712797 0.49462574053 0.49462574053 0.68021497688 0.77059342779 
1.0172219679 1.0172219679 1.0172219679 1.0172219679 2.1243706857 1.5707963268 1.3676273807 1.271087727 1.2156949949 
2.6469669131 2.1243706857 1.7739652728 1.5707963268 1.447813335 1.3676273807 2.8286213739 2.4613776767 2.1243706857 
1.8705049266 1.6937793186 1.5707963268 1.4827341049 2.9144344902 2.6469669131 2.3709992258 2.1243706857 1.9258976586 
1.7739652728 1.6588585487 1.5707963268 1.7563855631 1.8563003522 1.8785697967 1.9779583789 1.9913306621 2.0024758186 
2.1243706857 2.1243706857 2.1243706857 2.1243706857 2.295651703 2.2776669786 2.2630782103 2.2510113037 2.2408671392 
2.486385773 2.4475202889 2.4159740166 2.3899057108 2.3680303173 2.3494282469 2.6847397011 2.6258554882 2.5773755784 
2.5369440334 2.5028148801 2.4736848652 2.448570738 2.8758309421 2.8018393335 2.7393287203 2.6862098746 2.6407557529 
2.6015718084 2.5675431237 2.5377803997 5.8604937156 5.901393709 5.9723133995 5.9473927383 6.0216547488 6.0927478736 
5.9992719463 6.0767621038 6.1501452836 6.2190157008 6.0578962336 6.1383094565 6.2134963469 0 0.064169606361 
6.1241815303 6.206940195 6.2831853072 0.069688960264 0.13304002361 0.19043743361 6.1990255847 0 0.07624511221 
0.14487585072 0.20642320337 0.26153055843 0.3108719077 0 0.084159722458 0.15900377685 0.22528907359 0.28391336087 
0.3357925689 0.38179159818 0.42269159155 5.8604937156 5.9723133995 5.901393709 6.0927478736 6.0216547488 5.9473927383 
6.2190157008 6.1501452836 6.0767621038 5.9992719463 0.064169606361 0 6.2134963469 6.1383094565 6.0578962336 
0.19043743361 0.13304002361 0.069688960264 6.2831853072 6.206940195 6.1241815303 0.3108719077 0.26153055843 0.20642320337 
0.14487585072 0.07624511221 6.2831853072 6.1990255847 0.42269159155 0.38179159818 0.3357925689 0.28391336087 0.22528907359 
0.15900377685 0.084159722458 0 5.6793730533 5.7091357773 5.5901633916 5.743164462 5.6152775188 5.4910209005 
5.7823484065 5.6444075337 5.5096229709 5.3824597928 5.8278025282 5.678536687 5.5314983644 5.3926039573 5.2659633393 
5.8809213739 5.718968232 5.5575666702 5.4046708639 5.2659633393 5.1440684722 5.9434319871 5.7674481418 5.5891129425 
5.4192596322 5.2659633393 5.1329233157 5.0201624502 6.0174235957 5.8263323547 5.6279784266 5.4372443565 5.2659633393 
5.1195510325 4.9978930058 4.8979782167 1.3852070904 1.2852923014 1.2630228569 1.1636342747 1.1502619915 1.139116835 
1.0172219679 1.0172219679 1.0172219679 1.0172219679 0.84594095064 0.86392567495 0.87851444325 0.89058134991 0.90072551443 
0.6552068806 0.69407236469 0.72561863695 0.75168694275 0.77356233629 0.79216440667 0.45685295248 0.51573716537 0.56421707518 
0.60464862014 0.63877777351 0.66790778838 0.69302191562 0.26576171152 0.33975332011 0.40226393329 0.45538277901 0.50083690068 
0.54002084522 0.57404952988 0.60381225391 
_paraPhiHalf 1 1002 double
0 3.1415926536 0 3.1415926536 1.5707963268 1.5707963268 1.5707963268 1.5707963268 2.5880182947 
0.5535743589 2.5880182947 0.5535743589 0 0 0 0 3.1415926536 3.1415926536 
3.1415926536 3.1415926536 3.1415926536 0.17788134 0.38438696014 0.60631181711 0.82323535693 1.0172219679 1.1799687454 
1.3118704726 1.4175000338 1.5022335207 0.17788134 0.38438696014 0.60631181711 0.82323535693 1.0172219679 1.1799687454 
1.3118704726 1.4175000338 1.5022335207 0.093902416448 0.17615329733 0.2478725152 0.31035131605 0.36486382811 0.41257334776 
0.45449736604 0.4915044461 0.52432611754 0.093902416448 0.17615329733 0.2478725152 0.31035131605 0.36486382811 0.41257334776 
0.45449736604 0.4915044461 0.52432611754 2.9637113136 2.7572056934 2.5352808365 2.3183572967 2.1243706857 1.9616239082 
1.829722181 1.7240926197 1.6393591329 2.9637113136 2.7572056934 2.5352808365 2.3183572967 2.1243706857 1.9616239082 
1.829722181 1.7240926197 1.6393591329 3.0476902371 2.9654393563 2.8937201384 2.8312413375 2.7767288255 2.7290193058 
2.6870952876 2.6500882075 2.617266536 3.0476902371 2.9654393563 2.8937201384 2.8312413375 2.7767288255 2.7290193058 
2.6870952876 2.6500882075 2.617266536 0 0 0 0 3.1415926536 3.1415926536 
3.1415926536 3.1415926536 3.1415926536 0.17788134 0.38438696014 0.60631181711 0.82323535693 1.0172219679 1.1799687454 
1.3118704726 1.4175000338 1.5022335207 0.17788134 0.38438696014 0.60631181711 0.82323535693 1.0172219679 1.1799687454 
1.3118704726 1.4175000338 1.5022335207 0.093902416448 0.17615329733 0.2478725152 0.31035131605 0.36486382811 0.41257334776 
0.45449736604 0.4915044461 0.52432611754 0.093902416448 0.17615329733 0.2478725152 0.31035131605 0.36486382811 0.41257334776 
0.45449736604 0.4915044461 0.52432611754 2.9637113136 2.7572056934 2.5352808365 2.3183572967 2.1243706857 1.9616239082 
1.829722181 1.7240926197 1.6393591329 2.9637113136 2.7572056934 2.5352808365 2.3183572967 2.1243706857 1.9616239082 
1.829722181 1.7240926197 1.6393591329 3.0476902371 2.9654393563 2.8937201384 2.8312413375 2.7767288255 2.7290193058 
2.6870952876 2.6500882075 2.617266536 3.0476902371 2.9654393563 2.8937201384 2.8312413375 2.7767288255 2.7290193058 
2.6870952876 2.6500882075 2.617266536 1.5707963268 1.5707963268 1.5707963268 1.5707963268 1.5707963268 1.5707963268 
1.5707963268 1.5707963268 1.5707963268 1.6743954455 1.7840462375 1.8974821136 2.0119052671 2.1243706857 2.232221744 
2.3334263672 2.426721652 2.5115728246 1.4671972081 1.3575464161 1.24411054 1.1296873865 1.0172219679 0.90937090954 
0.80816628637 0.71487100155 0.63001982895 1.6743954455 1.7840462375 1.8974821136 2.0119052671 2.1243706857 2.232221744 
2.3334263672 2.426721652 2.5115728246 1.4671972081 1.3575464161 1.24411054 1.1296873865 1.0172219679 0.90937090954 
0.80816628637 0.71487100155 0.63001982895 1.5707963268 1.5707963268 1.5707963268 1.5707963268 1.5707963268 1.5707963268 
1.5707963268 1.5707963268 1.5707963268 1.6743954455 1.7840462375 1.8974821136 2.0119052671 2.1243706857 2.232221744 
2.3334263672 2.426721652 2.5115728246 1.4671972081 1.3575464161 1.24411054 1.1296873865 1.0172219679 0.90937090954 
0.80816628637 0.71487100155 0.63001982895 1.6743954455 1.7840462375 1.8974821136 2.0119052671 2.1243706857 2.232221744 
2.3334263672 2.426721652 2.5115728246 1.4671972081 1.3575464161 1.24411054 1.1296873865 1.0172219679 0.90937090954 
0.80816628637 0.71487100155 0.63001982895 2.6824132222 2.7864913217 2.8992382033 3.0186096618 3.1415926536 3.0186096618 
2.8992382033 2.7864913217 2.6824132222 0.45917943135 0.35510133185 0.2423544503 0.12298299178 0 0.12298299178 
0.2423544503 0.35510133185 0.45917943135 0.22715816343 0.49462574053 0.3129712797 0.77059342779 0.68021497688 0.49462574053 
1.0172219679 1.0172219679 1.0172219679 1.0172219679 1.2156949949 1.271087727 1.3676273807 1.5707963268 2.1243706857 
1.3676273807 1.447813335 1.5707963268 1.7739652728 2.1243706857 2.6469669131 1.4827341049 1.5707963268 1.6937793186 
1.8705049266 2.1243706857 2.4613776767 2.8286213739 1.5707963268 1.6588585487 1.7739652728 1.9258976586 2.1243706857 
2.3709992258 2.6469669131 2.9144344902 0.26576171152 0.33975332011 0.45685295248 0.40226393329 0.51573716537 0.6552068806 
0.45538277901 0.56421707518 0.69407236469 0.84594095064 0.50083690068 0.60464862014 0.72561863695 0.86392567495 1.0172219679 
0.54002084522 0.63877777351 0.75168694275 0.87851444325 1.0172219679 1.1636342747 0.57404952988 0.66790778838 0.77356233629 
0.89058134991 1.0172219679 1.1502619915 1.2852923014 0.60381225391 0.69302191562 0.79216440667 0.90072551443 1.0172219679 
1.139116835 1.2630228569 1.3852070904 0.71487100155 0.80816628637 0.80816628637 0.90937090954 0.90937090954 0.90937090954 
1.0172219679 1.0172219679 1.0172219679 1.0172219679 1.1296873865 1.1296873865 1.1296873865 1.1296873865 1.1296873865 
1.24411054 1.24411054 1.24411054 1.24411054 1.24411054 1.24411054 1.3575464161 1.3575464161 1.3575464161 
1.3575464161 1.3575464161 1.3575464161 1.3575464161 1.4671972081 1.4671972081 1.4671972081 1.4671972081 1.4671972081 
1.4671972081 1.4671972081 1.4671972081 1.6743954455 1.6743954455 1.7840462375 1.6743954455 1.7840462375 1.8974821136 
1.6743954455 1.7840462375 1.8974821136 2.0119052671 1.6743954455 1.7840462375 1.8974821136 2.0119052671 2.1243706857 
1.6743954455 1.7840462375 1.8974821136 2.0119052671 2.1243706857 2.232221744 1.6743954455 1.7840462375 1.8974821136 
2.0119052671 2.1243706857 2.232221744 2.3334263672 1.6743954455 1.7840462375 1.8974821136 2.0119052671 2.1243706857 
2.232221744 2.3334263672 2.426721652 1.7563855631 1.8785697967 1.8563003522 2.0024758186 1.9913306621 1.9779583789 
2.1243706857 2.1243706857 2.1243706857 2.1243706857 2.2408671392 2.2510113037 2.2630782103 2.2776669786 2.295651703 
2.3494282469 2.3680303173 2.3899057108 2.4159740166 2.4475202889 2.486385773 2.448570738 2.4736848652 2.5028148801 
2.5369440334 2.5773755784 2.6258554882 2.6847397011 2.5377803997 2.5675431237 2.6015718084 2.6407557529 2.6862098746 
2.7393287203 2.8018393335 2.8758309421 2.718901062 2.8307207459 2.7598010554 2.95115522 2.8800620952 2.8058000847 
3.0774230472 3.00855263 2.9351694502 2.8576792927 3.0774230472 3.1415926536 3.0719036933 2.9967168029 2.91630358 
2.95115522 3.00855263 3.0719036933 3.1415926536 3.0653475414 2.9825888767 2.8307207459 2.8800620952 2.9351694502 
2.9967168029 3.0653475414 3.1415926536 3.0574329311 2.718901062 2.7598010554 2.8058000847 2.8576792927 2.91630358 
2.9825888767 3.0574329311 3.1415926536 2.718901062 2.7598010554 2.8307207459 2.8058000847 2.8800620952 2.95115522 
2.8576792927 2.9351694502 3.00855263 3.0774230472 2.91630358 2.9967168029 3.0719036933 3.1415926536 3.0774230472 
2.9825888767 3.0653475414 3.1415926536 3.0719036933 3.00855263 2.95115522 3.0574329311 3.1415926536 3.0653475414 