# vtk DataFile Version 5.1
vtk output
ASCII
DATASET POLYDATA
POINTS 1002 float
-13.6806 0.695736 -1.95564 14.3654 -0.201813 -5.23291 -12.2501 1.88157 3.41536 
11.963 -0.662679 4.03537 1.05486 8.28722 -1.66352 0.343306 8.40837 3.02107 
0.904513 -1.87694 -0.519969 1.57871 -2.61534 2.22861 20.3042 2.83408 -1.30206 
-19.8491 1.13586 -1.77934 21.3064 -9.30227 -1.72877 -21.0868 -10.502 -0.330565 
-11.6521 1.50214 -1.48554 -9.46508 2.20459 -0.894684 -6.97538 2.78726 -0.361629 
-4.02559 3.17892 -0.0909667 -0.697777 3.25726 -0.264031 2.84498 2.93096 -1.10057 
6.49605 2.22009 -2.58015 9.92127 1.29888 -4.13936 12.6125 0.430235 -5.09237 
-12.8012 1.49835 -1.71802 -11.9251 2.37014 -1.31696 -10.9954 3.31894 -0.784763 
-9.75524 4.26349 -0.333952 -8.00406 5.1273 -0.211061 -5.90949 5.94204 -0.438888 
-3.84153 6.7251 -0.830478 -1.99541 7.39309 -1.20632 -0.370453 7.89654 -1.48672 
-13.2821 0.459405 -1.82951 -12.7216 0.244097 -1.5764 -11.8904 0.0475548 -1.26781 
-10.7376 -0.10073 -1.00617 -9.34241 -0.186331 -0.75943 -7.78558 -0.257253 -0.401554 
-5.99291 -0.404759 -0.00390064 -3.8622 -0.713314 0.156775 -1.4803 -1.21631 -0.0594742 
-15.1359 0.307687 -2.17781 -16.5542 -0.094389 -2.32401 -17.6899 -0.484047 -2.59156 
-18.4004 -0.754784 -3.17578 -18.8491 -0.691684 -3.90397 -19.3168 -0.234355 -4.27418 
-19.8326 0.334557 -3.99949 -20.1744 0.713624 -3.27818 -20.1697 0.916319 -2.47515 
-15.5069 -0.498643 -2.29765 -17.3382 -2.09016 -2.69775 -18.8886 -3.966 -3.1772 
-20.0188 -5.86947 -3.61148 -20.7408 -7.648 -3.8629 -21.092 -9.27727 -3.80099 
-21.1745 -10.5887 -3.2332 -21.1604 -11.2734 -2.1863 -21.1385 -11.1953 -1.07913 
13.6651 0.791261 -5.23382 12.8833 1.81593 -5.29197 12.0476 2.78682 -5.40576 
10.971 3.72652 -5.30594 9.44423 4.68852 -4.73149 7.59991 5.64184 -3.85662 
5.79652 6.51694 -3.10789 4.17425 7.26997 -2.61524 2.62195 7.86467 -2.1859 
14.0642 -0.796468 -5.26226 13.4575 -1.26301 -5.03617 12.4335 -1.58095 -4.51856 
11.0656 -1.80336 -3.84786 9.5613 -1.9359 -3.15307 7.99339 -1.92116 -2.44142 
6.27129 -1.80692 -1.75885 4.41501 -1.74476 -1.22216 2.59089 -1.79182 -0.842135 
15.1892 -0.0133848 -4.85262 15.8964 0.332422 -4.2505 16.711 0.675756 -3.76063 
17.6968 0.886699 -3.6023 18.7406 1.04589 -3.67448 19.7291 1.3401 -3.66966 
20.5401 1.78059 -3.36432 20.966 2.21878 -2.76223 20.8647 2.56568 -2.02008 
15.4105 -1.06375 -4.88903 16.1047 -1.85912 -4.11779 16.6463 -2.70075 -3.10532 
17.3955 -3.7428 -2.27635 18.4196 -4.88464 -2.00241 19.4098 -5.89462 -2.22296 
20.1774 -6.80282 -2.51067 20.7909 -7.7599 -2.52793 21.2254 -8.67265 -2.23367 
-10.0435 2.30303 3.77553 -7.82719 2.6639 4.37705 -5.3758 2.75454 4.81557 
-2.35444 2.47041 4.546 1.12671 1.93044 3.62953 4.44311 1.3094 2.83411 
7.09364 0.696496 2.7324 9.0686 0.147974 3.17226 10.6172 -0.299467 3.69933 
-11.3135 2.48355 3.61764 -10.278 3.19934 3.93259 -9.20408 4.01164 4.36719 
-8.11236 4.84186 4.80413 -6.89679 5.6188 5.03251 -5.47669 6.34692 4.95011 
-3.94916 7.03789 4.62594 -2.44274 7.63511 4.15296 -0.998818 8.08401 3.59218 
-11.7012 1.57075 3.37323 -10.9803 1.22951 3.31232 -10.0687 0.867691 3.28958 
-9.00658 0.538827 3.38572 -7.7741 0.240503 3.55791 -6.18868 -0.123848 3.55348 
-4.17751 -0.610014 3.20123 -2.02119 -1.18935 2.69487 -0.0706156 -1.85205 2.34711 
-13.9905 1.83098 3.2997 -15.7929 1.78456 3.08381 -17.4266 1.66231 2.66525 
-18.7162 1.41356 2.06638 -19.6207 1.10913 1.30666 -20.1465 0.817108 0.386064 
-20.3076 0.541906 -0.518623 -20.2143 0.400658 -1.16169 -20.0356 0.590981 -1.52722 
-14.3187 1.26412 3.28169 -16.6534 0.52584 3.29002 -18.9859 -0.544932 3.17014 
-20.8476 -2.10374 2.55877 -21.8276 -3.94279 1.425 -21.9819 -5.66235 0.274876 
-21.7912 -7.15206 -0.329576 -21.6065 -8.52371 -0.365397 -21.4075 -9.71381 -0.249329 
11.4675 0.181478 3.7882 10.8159 1.04878 3.36875 9.92273 1.97924 2.9051 
8.78093 3.05319 2.57562 7.44658 4.25959 2.47637 5.9713 5.44921 2.56345 
4.42901 6.47485 2.72125 2.93789 7.29502 2.85955 1.57715 7.93001 2.95366 
11.5919 -1.32004 3.97525 11.1245 -1.98158 3.85125 10.4722 -2.54541 3.76994 
9.63068 -2.98614 3.64802 8.71008 -3.31739 3.31019 7.75842 -3.4952 2.81775 
6.64629 -3.47237 2.42243 5.22139 -3.27491 2.23545 3.48406 -2.96441 2.19471 
13.0632 -0.484348 4.037 14.3409 -0.310701 3.74089 15.6884 -0.0901779 3.22188 
16.9123 0.259466 2.71609 17.9631 0.718236 2.27941 18.9551 1.18047 1.69113 
19.8408 1.60659 0.883697 20.3801 2.02596 0.0659135 20.4846 2.44261 -0.640029 
13.1189 -1.43425 4.15104 14.4493 -2.32366 4.03449 15.8159 -3.33128 3.7973 
16.9763 -4.40886 3.57926 17.9523 -5.47256 3.25171 19.0308 -6.47799 2.54376 
20.1989 -7.42592 1.49043 21.0572 -8.27237 0.366183 21.3789 -8.91983 -0.702532 
0.853018 8.74697 -1.3282 0.523342 9.27254 -0.869323 0.0466537 9.86066 -0.281594 
-0.493088 10.4162 0.46947 -0.839633 10.7307 1.33441 -0.744875 10.6152 2.06512 
-0.294944 10.1082 2.44909 0.14781 9.45825 2.59425 0.346288 8.87752 2.75447 
3.38863 8.38635 -2.11936 5.71212 8.32662 -2.47373 7.97789 8.03425 -2.70826 
10.3437 7.57728 -2.87291 12.9263 7.12072 -3.03492 15.3705 6.64475 -3.11874 
17.1367 5.92797 -2.91675 18.2496 4.90741 -2.39664 19.2102 3.79597 -1.78982 
-1.53546 8.34934 -0.917953 -4.39551 8.31408 -0.139395 -7.25296 8.16902 0.350978 
-9.97734 7.82902 0.360785 -12.6252 7.27438 0.0396991 -15.0845 6.56266 -0.352395 
-17.0056 5.60611 -0.735848 -18.2595 4.25774 -1.12672 -19.1039 2.64865 -1.49156 
2.43151 8.37396 2.37465 4.64867 8.21889 1.67793 6.90715 7.97937 1.11457 
9.14044 7.67644 0.808873 11.3 7.27411 0.636621 13.3226 6.67576 0.374888 
15.1898 5.80543 -0.013572 16.9784 4.74264 -0.441068 18.7246 3.69941 -0.873408 
-1.73494 8.55901 3.38837 -4.00781 8.51635 3.65613 -6.43311 8.29262 3.80295 
-8.98449 7.91615 3.76404 -11.5768 7.32764 3.36522 -13.9901 6.41514 2.50099 
-16.0028 5.17607 1.32865 -17.5833 3.75959 0.131424 -18.8386 2.3639 -0.915294 
1.31692 -2.34659 -0.570347 1.65085 -2.73813 -0.471989 1.87837 -3.05886 -0.269434 
2.03021 -3.38653 -0.0106845 2.05348 -3.70154 0.40618 1.83545 -3.824 1.06276 
1.4759 -3.6492 1.74188 1.26753 -3.29459 2.14144 1.34388 -2.92938 2.24001 
4.33396 -2.75545 -1.34107 7.69533 -4.0358 -2.137 10.5285 -5.52734 -2.48428 
12.819 -6.9768 -2.41394 15.0109 -8.32919 -2.56113 17.2729 -9.59063 -3.24704 
19.1606 -10.4768 -3.85584 20.2988 -10.6353 -3.6883 20.8781 -10.1166 -2.8094 
-2.28134 -1.60985 0.0419993 -5.65086 -1.60026 0.370357 -9.02825 -1.98486 0.355802 
-12.1841 -2.89213 -0.0293992 -14.8079 -4.27269 -0.609742 -16.7249 -5.91356 -0.993954 
-18.1093 -7.60929 -0.920189 -19.2581 -9.12205 -0.5636 -20.2705 -10.1419 -0.304112 
4.28352 -3.81288 2.18339 6.82652 -5.21945 2.17037 9.10199 -6.58053 2.08534 
11.1737 -7.78989 1.8802 13.2134 -8.9105 1.53423 15.3607 -9.9074 0.903658 
17.532 -10.5478 -0.0647467 19.3938 -10.6265 -1.04389 20.6534 -10.1494 -1.62235 
-1.58796 -1.88935 2.34163 -5.14477 -1.63792 2.4536 -8.6973 -2.06708 2.51913 
-11.9182 -2.90935 2.4873 -14.6529 -3.70288 2.18892 -16.8525 -4.50363 1.54265 
-18.517 -5.77073 0.841404 -19.6984 -7.52878 0.405966 -20.5066 -9.25943 0.126301 
21.9673 1.90789 -1.29874 23.4713 1.08442 -1.20518 24.3296 0.133927 -0.889797 
24.4423 -1.22198 -0.410733 24.1981 -2.92173 -0.0434543 23.8789 -4.56113 0.0585631 
23.3702 -5.88264 -0.0503699 22.6315 -7.01114 -0.38912 21.893 -8.15217 -1.00354 
-20.9534 -0.381428 -2.37678 -22.1316 -1.79818 -2.89845 -23.1017 -3.19964 -3.3623 
-23.6188 -4.83274 -3.7916 -23.7137 -6.69288 -4.09552 -23.5478 -8.41554 -3.98645 
-23.1595 -9.71761 -3.24556 -22.5541 -10.5455 -2.09108 -21.8317 -10.829 -1.01775 
-10.754 2.25943 -1.11236 -9.86246 3.10761 -0.543062 -8.52218 2.975 -0.399154 
-8.71743 3.99365 -0.0318414 -7.42216 3.8085 0.115559 -5.81173 3.54565 0.0452699 
-6.97272 4.78923 0.0239749 -5.77065 4.5433 0.180406 -4.24605 4.22182 0.110175 
-2.46772 3.75645 -0.085957 -4.70368 5.49307 -0.454215 -3.46187 5.09701 -0.441594 
-2.0351 4.65708 -0.531524 -0.392944 4.1017 -0.698918 1.27449 3.51771 -0.869811 
-2.41254 6.20813 -1.12199 -0.997097 5.6338 -1.35872 0.491453 4.98649 -1.62207 
2.09439 4.26938 -1.87753 3.65484 3.58759 -2.0478 5.08928 2.95273 -2.23239 
-0.442294 6.90122 -1.65864 1.10416 6.25969 -2.05697 2.71622 5.46618 -2.51497 
4.43803 4.56892 -3.02425 6.06664 3.71886 -3.38848 7.43523 2.98408 -3.57499 
8.67245 2.21764 -3.79073 1.21193 7.45595 -1.99826 2.78761 6.84101 -2.43488 
4.44006 6.04519 -2.95693 6.25488 5.10156 -3.67036 8.03348 4.12706 -4.34463 
9.47002 3.2411 -4.68977 10.5874 2.39146 -4.79032 11.616 1.44841 -4.90739 
-14.2234 1.30482 -1.92712 -15.6014 1.14403 -2.04306 -13.2543 2.39358 -1.5659 
-16.6774 0.985078 -2.23193 -14.4994 2.48331 -1.7056 -12.1798 3.53147 -1.08941 
-17.353 0.912088 -2.66816 -15.4445 2.53791 -1.83988 -13.2464 3.80286 -1.26127 
-10.8039 4.60688 -0.616942 -17.867 1.15273 -3.19815 -16.1031 2.64099 -2.13559 
-14.0674 3.99667 -1.36775 -11.76 4.97921 -0.740824 -9.02026 5.57963 -0.328282 
-18.4659 1.71067 -3.38346 -16.7702 3.02923 -2.46762 -14.7708 4.23055 -1.56441 
-12.5564 5.2655 -0.801758 -10.0048 6.02686 -0.292959 -7.00483 6.48652 -0.304046 
-19.0337 2.24614 -3.00218 -17.5517 3.62855 -2.44122 -15.6149 4.70499 -1.69575 
-13.3485 5.60209 -0.903489 -10.878 6.3971 -0.249314 -8.09612 6.97377 -0.0613497 
-5.02095 7.28274 -0.476674 -19.2778 2.52499 -2.2639 -18.146 4.08338 -1.90991 
-16.4957 5.26392 -1.42201 -14.2724 6.09796 -0.829743 -11.7427 6.80581 -0.214677 
-9.07297 7.39072 0.146269 -6.19418 7.74543 -0.045478 -3.19031 7.89285 -0.713346 
-18.0783 3.9421 -0.444623 -16.6478 5.26212 0.760455 -17.1189 5.48621 0.0556783 
-14.683 6.48525 1.9745 -15.36 6.62847 1.30534 -15.581 6.72447 0.441562 
-12.2279 7.49183 2.92789 -12.9604 7.65873 2.3673 -13.458 7.77302 1.56517 
-13.3165 7.65252 0.67037 -9.54347 8.21446 3.4247 -10.2196 8.51751 3.0175 
-10.8427 8.73836 2.39007 -11.0146 8.69195 1.55372 -10.6274 8.32682 0.803664 
-6.87843 8.68318 3.52397 -7.4777 9.12963 3.25507 -8.12566 9.50566 2.82809 
-8.47726 9.57119 2.13946 -8.32328 9.23459 1.36684 -7.82973 8.68844 0.758704 
-4.31599 8.95462 3.40237 -4.82773 9.48324 3.21934 -5.47069 9.98676 2.94419 
[...]
POINT_DATA 1002
FIELD FieldData 4
_paraPhi 1 1002 double
6.2831853072 3.1415926536 6.2831853072 3.1415926536 4.7123889804 4.7123889804 1.5707963268 1.5707963268 3.6951670125 
5.7296109483 2.5880182947 0.5535743589 6.2831853072 6.2831853072 6.2831853072 6.2831853072 3.1415926536 3.1415926536 
3.1415926536 3.1415926536 3.1415926536 6.1053039672 5.898798347 5.6768734901 5.4599499503 5.2659633393 5.1032165617 
4.9713148346 4.8656852733 4.7809517865 0.17788134 0.38438696014 0.60631181711 0.82323535693 1.0172219679 1.1799687454 
1.3118704726 1.4175000338 1.5022335207 6.1892828907 6.1070320098 6.035312792 5.9728339911 5.9183214791 5.8706119594 
5.8286879411 5.7916808611 5.7588591896 0.093902416448 0.17615329733 0.2478725152 0.31035131605 0.36486382811 0.41257334776 
0.45449736604 0.4915044461 0.52432611754 3.3194739936 3.5259796137 3.7479044707 3.9648280105 4.1588146215 4.321561399 
4.4534631262 4.5590926874 4.6438261743 2.9637113136 2.7572056934 2.5352808365 2.3183572967 2.1243706857 1.9616239082 
1.829722181 1.7240926197 1.6393591329 3.23549507 3.3177459509 3.3894651688 3.4519439696 3.5064564817 3.5541660013 
3.5960900196 3.6330970997 3.6659187711 3.0476902371 2.9654393563 2.8937201384 2.8312413375 2.7767288255 2.7290193058 
2.6870952876 2.6500882075 2.617266536 6.2831853072 6.2831853072 6.2831853072 6.2831853072 3.1415926536 3.1415926536 
3.1415926536 3.1415926536 3.1415926536 6.1053039672 5.898798347 5.6768734901 5.4599499503 5.2659633393 5.1032165617 
4.9713148346 4.8656852733 4.7809517865 0.17788134 0.38438696014 0.60631181711 0.82323535693 1.0172219679 1.1799687454 
1.3118704726 1.4175000338 1.5022335207 6.1892828907 6.1070320098 6.035312792 5.9728339911 5.9183214791 5.8706119594 
5.8286879411 5.7916808611 5.7588591896 0.093902416448 0.17615329733 0.2478725152 0.31035131605 0.36486382811 0.41257334776 
0.45449736604 0.4915044461 0.52432611754 3.3194739936 3.5259796137 3.7479044707 3.9648280105 4.1588146215 4.321561399 
4.4534631262 4.5590926874 4.6438261743 2.9637113136 2.7572056934 2.5352808365 2.3183572967 2.1243706857 1.9616239082 
1.829722181 1.7240926197 1.6393591329 3.23549507 3.3177459509 3.3894651688 3.4519439696 3.5064564817 3.5541660013 
3.5960900196 3.6330970997 3.6659187711 3.0476902371 2.9654393563 2.8937201384 2.8312413375 2.7767288255 2.7290193058 
2.6870952876 2.6500882075 2.617266536 4.7123889804 4.7123889804 4.7123889804 4.7123889804 4.7123889804 4.7123889804 
4.7123889804 4.7123889804 4.7123889804 4.6087898617 4.4991390697 4.3857031936 4.2712800401 4.1588146215 4.0509635631 
3.94975894 3.8564636551 3.7716124825 4.8159880991 4.9256388911 5.0390747672 5.1534979207 5.2659633393 5.3738143976 
5.4750190208 5.5683143056 5.6531654782 4.6087898617 4.4991390697 4.3857031936 4.2712800401 4.1588146215 4.0509635631 
3.94975894 3.8564636551 3.7716124825 4.8159880991 4.9256388911 5.0390747672 5.1534979207 5.2659633393 5.3738143976 
5.4750190208 5.5683143056 5.6531654782 1.5707963268 1.5707963268 1.5707963268 1.5707963268 1.5707963268 1.5707963268 
1.5707963268 1.5707963268 1.5707963268 1.6743954455 1.7840462375 1.8974821136 2.0119052671 2.1243706857 2.232221744 
2.3334263672 2.426721652 2.5115728246 1.4671972081 1.3575464161 1.24411054 1.1296873865 1.0172219679 0.90937090954 
0.80816628637 0.71487100155 0.63001982895 1.6743954455 1.7840462375 1.8974821136 2.0119052671 2.1243706857 2.232221744 
2.3334263672 2.426721652 2.5115728246 1.4671972081 1.3575464161 1.24411054 1.1296873865 1.0172219679 0.90937090954 
0.80816628637 0.71487100155 0.63001982895 3.6007720849 3.4966939854 3.3839471039 3.2645756454 3.1415926536 3.0186096618 
2.8992382033 2.7864913217 2.6824132222 5.8240058758 5.9280839753 6.0408308569 6.1602023154 6.2831853072 0.12298299178 
0.2423544503 0.35510133185 0.45917943135 6.0560271438 5.7885595667 5.9702140275 5.5125918794 5.6029703303 5.7885595667 
5.2659633393 5.2659633393 5.2659633393 5.2659633393 5.0674903122 5.0120975802 4.9155579264 4.7123889804 4.1588146215 
4.9155579264 4.8353719722 4.7123889804 4.5092200343 4.1588146215 3.6362183941 4.8004512023 4.7123889804 4.5894059886 
4.4126803806 4.1588146215 3.8218076305 3.4545639333 4.7123889804 4.6243267584 4.5092200343 4.3572876485 4.1588146215 
3.9121860814 3.6362183941 3.368750817 6.0174235957 5.9434319871 5.8263323547 5.8809213739 5.7674481418 5.6279784266 
5.8278025282 5.718968232 5.5891129425 5.4372443565 5.7823484065 5.678536687 5.5575666702 5.4192596322 5.2659633393 
5.743164462 5.6444075337 5.5314983644 5.4046708639 5.2659633393 5.1195510325 5.7091357773 5.6152775188 5.5096229709 
5.3926039573 5.2659633393 5.1329233157 4.9978930058 5.6793730533 5.5901633916 5.4910209005 5.3824597928 5.2659633393 
5.1440684722 5.0201624502 4.8979782167 5.5683143056 5.4750190208 5.4750190208 5.3738143976 5.3738143976 5.3738143976 
5.2659633393 5.2659633393 5.2659633393 5.2659633393 5.1534979207 5.1534979207 5.1534979207 5.1534979207 5.1534979207 
5.0390747672 5.0390747672 5.0390747672 5.0390747672 5.0390747672 5.0390747672 4.9256388911 4.9256388911 4.9256388911 
4.9256388911 4.9256388911 4.9256388911 4.9256388911 4.8159880991 4.8159880991 4.8159880991 4.8159880991 4.8159880991 
4.8159880991 4.8159880991 4.8159880991 4.6087898617 4.6087898617 4.4991390697 4.6087898617 4.4991390697 4.3857031936 
4.6087898617 4.4991390697 4.3857031936 4.2712800401 4.6087898617 4.4991390697 4.3857031936 4.2712800401 4.1588146215 
4.6087898617 4.4991390697 4.3857031936 4.2712800401 4.1588146215 4.0509635631 4.6087898617 4.4991390697 4.3857031936 
4.2712800401 4.1588146215 4.0509635631 3.94975894 4.6087898617 4.4991390697 4.3857031936 4.2712800401 4.1588146215 
4.0509635631 3.94975894 3.8564636551 4.526799744 4.4046155105 4.426884955 4.2807094886 4.2918546451 4.3052269283 
4.1588146215 4.1588146215 4.1588146215 4.1588146215 4.042318168 4.0321740035 4.0201070968 4.0055183285 3.9875336042 
3.9337570603 3.9151549899 3.8932795963 3.8672112905 3.8356650183 3.7967995342 3.8346145692 3.809500442 3.7803704271 
3.7462412737 3.7058097288 3.657329819 3.5984456061 3.7454049075 3.7156421835 3.6816134988 3.6424295543 3.5969754326 
3.5438565869 3.4813459737 3.4073543651 3.5642842451 3.4524645613 3.5233842518 3.3320300872 3.403123212 3.4773852225 
3.20576226 3.2746326772 3.348015857 3.4255060145 3.0774230472 3.1415926536 3.2112816139 3.2864685043 3.3668817272 
2.95115522 3.00855263 3.0719036933 3.1415926536 3.2178377658 3.3005964304 2.8307207459 2.8800620952 2.9351694502 
2.9967168029 3.0653475414 3.1415926536 3.225752376 2.718901062 2.7598010554 2.8058000847 2.8576792927 2.91630358 
2.9825888767 3.0574329311 3.1415926536 3.5642842451 3.5233842518 3.4524645613 3.4773852225 3.403123212 3.3320300872 
3.4255060145 3.348015857 3.2746326772 3.20576226 3.3668817272 3.2864685043 3.2112816139 3.1415926536 3.0774230472 
3.3005964304 3.2178377658 3.1415926536 3.0719036933 3.00855263 2.95115522 3.225752376 3.1415926536 3.0653475414 
2.9967168029 2.9351694502 2.8800620952 2.8307207459 3.1415926536 3.0574329311 2.9825888767 2.91630358 2.8576792927 
2.8058000847 2.7598010554 2.718901062 4.526799744 4.426884955 4.4046155105 4.3052269283 4.2918546451 4.2807094886 
4.1588146215 4.1588146215 4.1588146215 4.1588146215 3.9875336042 4.0055183285 4.0201070968 4.0321740035 4.042318168 
3.7967995342 3.8356650183 3.8672112905 3.8932795963 3.9151549899 3.9337570603 3.5984456061 3.657329819 3.7058097288 
3.7462412737 3.7803704271 3.809500442 3.8346145692 3.4073543651 3.4813459737 3.5438565869 3.5969754326 3.6424295543 
3.6816134988 3.7156421835 3.7454049075 4.7123889804 4.8004512023 4.6243267584 4.9155579264 4.7123889804 4.5092200343 
5.0674903122 4.8353719722 4.5894059886 4.3572876485 5.2659633393 5.0120975802 4.7123889804 4.4126803806 4.1588146215 
5.5125918794 5.2659633393 4.9155579264 4.5092200343 4.1588146215 3.9121860814 5.7885595667 5.6029703303 5.2659633393 
4.7123889804 4.1588146215 3.8218076305 3.6362183941 6.0560271438 5.9702140275 5.7885595667 5.2659633393 4.1588146215 
3.6362183941 3.4545639333 3.368750817 0.22715816343 0.49462574053 0.3129712797 0.77059342779 0.68021497688 0.49462574053 
1.0172219679 1.0172219679 1.0172219679 1.0172219679 1.2156949949 1.271087727 1.3676273807 1.5707963268 2.1243706857 
1.3676273807 1.447813335 1.5707963268 1.7739652728 2.1243706857 2.6469669131 1.4827341049 1.5707963268 1.6937793186 
1.8705049266 2.1243706857 2.4613776767 2.8286213739 1.5707963268 1.6588585487 1.7739652728 1.9258976586 2.1243706857 
2.3709992258 2.6469669131 2.9144344902 1.7563855631 1.8785697967 1.8563003522 2.0024758186 1.9913306621 1.9779583789 
2.1243706857 2.1243706857 2.1243706857 2.1243706857 2.2408671392 2.2510113037 2.2630782103 2.2776669786 2.295651703 
2.3494282469 2.3680303173 2.3899057108 2.4159740166 2.4475202889 2.486385773 2.448570738 2.4736848652 2.5028148801 
2.5369440334 2.5773755784 2.6258554882 2.6847397011 2.5377803997 2.5675431237 2.6015718084 2.6407557529 2.6862098746 
2.7393287203 2.8018393335 2.8758309421 1.6743954455 1.6743954455 1.7840462375 1.6743954455 1.7840462375 1.8974821136 
1.6743954455 1.7840462375 1.8974821136 2.0119052671 1.6743954455 1.7840462375 1.8974821136 2.0119052671 2.1243706857 
1.6743954455 1.7840462375 1.8974821136 2.0119052671 2.1243706857 2.232221744 1.6743954455 1.7840462375 1.8974821136 
2.0119052671 2.1243706857 2.232221744 2.3334263672 1.6743954455 1.7840462375 1.8974821136 2.0119052671 2.1243706857 
2.232221744 2.3334263672 2.426721652 1.4671972081 1.3575464161 1.4671972081 1.24411054 1.3575464161 1.4671972081 
1.1296873865 1.24411054 1.3575464161 1.4671972081 1.0172219679 1.1296873865 1.24411054 1.3575464161 1.4671972081 
0.90937090954 1.0172219679 1.1296873865 1.24411054 1.3575464161 1.4671972081 0.80816628637 0.90937090954 1.0172219679 
1.1296873865 1.24411054 1.3575464161 1.4671972081 0.71487100155 0.80816628637 0.90937090954 1.0172219679 1.1296873865 
1.24411054 1.3575464161 1.4671972081 0.60381225391 0.57404952988 0.69302191562 0.54002084522 0.66790778838 0.79216440667 
0.50083690068 0.63877777351 0.77356233629 0.90072551443 0.45538277901 0.60464862014 0.75168694275 0.89058134991 1.0172219679 
0.40226393329 0.56421707518 0.72561863695 0.87851444325 1.0172219679 1.139116835 0.33975332011 0.51573716537 0.69407236469 
0.86392567495 1.0172219679 1.1502619915 1.2630228569 0.26576171152 0.45685295248 0.6552068806 0.84594095064 1.0172219679 
1.1636342747 1.2852923014 1.3852070904 0.22715816343 0.3129712797 0.49462574053 0.49462574053 0.68021497688 0.77059342779 
1.0172219679 1.0172219679 1.0172219679 1.0172219679 2.1243706857 1.5707963268 1.3676273807 1.271087727 1.2156949949 
2.6469669131 2.1243706857 1.7739652728 1.5707963268 1.447813335 1.3676273807 2.8286213739 2.4613776767 2.1243706857 
1.8705049266 1.6937793186 1.5707963268 1.4827341049 2.9144344902 2.6469669131 2.3709992258 2.1243706857 1.9258976586 
1.7739652728 1.6588585487 1.5707963268 1.7563855631 1.8563003522 1.8785697967 1.9779583789 1.9913306621 2.0024758186 
2.1243706857 2.1243706857 2.1243706857 2.1243706857 2.295651703 2.2776669786 2.2630782103 2.2510113037 2.2408671392 
2.486385773 2.4475202889 2.4159740166 2.3899057108 2.3680303173 2.3494282469 2.6847397011 2.6258554882 2.5773755784 
2.5369440334 2.5028148801 2.4736848652 2.448570738 2.8758309421 2.8018393335 2.7393287203 2.6862098746 2.6407557529 
2.6015718084 2.5675431237 2.5377803997 5.8604937156 5.901393709 5.9723133995 5.9473927383 6.0216547488 6.0927478736 
5.9992719463 6.0767621038 6.1501452836 6.2190157008 6.0578962336 6.1383094565 6.2134963469 0 0.064169606361 
6.1241815303 6.206940195 6.2831853072 0.069688960264 0.13304002361 0.19043743361 6.1990255847 0 0.07624511221 
0.14487585072 0.20642320337 0.26153055843 0.3108719077 0 0.084159722458 0.15900377685 0.22528907359 0.28391336087 
0.3357925689 0.38179159818 0.42269159155 5.8604937156 5.9723133995 5.901393709 6.0927478736 6.0216547488 5.9473927383 
6.2190157008 6.1501452836 6.0767621038 5.9992719463 0.064169606361 0 6.2134963469 6.1383094565 6.0578962336 
0.19043743361 0.13304002361 0.069688960264 6.2831853072 6.206940195 6.1241815303 0.3108719077 0.26153055843 0.20642320337 
0.14487585072 0.07624511221 6.2831853072 6.1990255847 0.42269159155 0.38179159818 0.3357925689 0.28391336087 0.22528907359 
0.15900377685 0.084159722458 0 5.6793730533 5.7091357773 5.5901633916 5.743164462 5.6152775188 5.4910209005 
5.7823484065 5.6444075337 5.5096229709 5.3824597928 5.8278025282 5.678536687 5.5314983644 5.3926039573 5.2659633393 
5.8809213739 5.718968232 5.5575666702 5.4046708639 5.2659633393 5.1440684722 5.9434319871 5.7674481418 5.5891129425 
5.4192596322 5.2659633393 5.1329233157 5.0201624502 6.0174235957 5.8263323547 5.6279784266 5.4372443565 5.2659633393 
5.1195510325 4.9978930058 4.8979782167 1.3852070904 1.2852923014 1.2630228569 1.1636342747 1.1502619915 1.139116835 
1.0172219679 1.0172219679 1.0172219679 1.0172219679 0.84594095064 0.86392567495 0.87851444325 0.89058134991 0.90072551443 
0.6552068806 0.69407236469 0.72561863695 0.75168694275 0.77356233629 0.79216440667 0.45685295248 0.51573716537 0.56421707518 
0.60464862014 0.63877777351 0.66790778838 0.69302191562 0.26576171152 0.33975332011 0.40226393329 0.45538277901 0.50083690068 
0.54002084522 0.57404952988 0.60381225391 
_paraPhiHalf 1 1002 double
0 3.1415926536 0 3.1415926536 1.5707963268 1.5707963268 1.5707963268 1.5707963268 2.5880182947 
0.5535743589 2.5880182947 0.5535743589 0 0 0 0 3.1415926536 3.1415926536 
3.1415926536 3.1415926536 3.1415926536 0.17788134 0.38438696014 0.60631181711 0.82323535693 1.0172219679 1.1799687454 
1.3118704726 1.4175000338 1.5022335207 0.17788134 0.38438696014 0.60631181711 0.82323535693 1.0172219679 1.1799687454 
1.3118704726 1.4175000338 1.5022335207 0.093902416448 0.17615329733 0.2478725152 0.31035131605 0.36486382811 0.41257334776 
0.45449736604 0.4915044461 0.52432611754 0.093902416448 0.17615329733 0.2478725152 0.31035131605 0.36486382811 0.41257334776 
0.45449736604 0.4915044461 0.52432611754 2.9637113136 2.7572056934 2.5352808365 2.3183572967 2.1243706857 1.9616239082 
1.829722181 1.7240926197 1.6393591329 2.9637113136 2.7572056934 2.5352808365 2.3183572967 2.1243706857 1.9616239082 
1.829722181 1.7240926197 1.6393591329 3.0476902371 2.9654393563 2.8937201384 2.8312413375 2.7767288255 2.7290193058 
2.6870952876 2.6500882075 2.617266536 3.0476902371 2.9654393563 2.8937201384 2.8312413375 2.7767288255 2.7290193058 
2.6870952876 2.6500882075 2.617266536 0 0 0 0 3.1415926536 3.1415926536 
3.1415926536 3.1415926536 3.1415926536 0.17788134 0.38438696014 0.60631181711 0.82323535693 1.0172219679 1.1799687454 
1.3118704726 1.4175000338 1.5022335207 0.17788134 0.38438696014 0.60631181711 0.82323535693 1.0172219679 1.1799687454 
1.3118704726 1.4175000338 1.5022335207 0.093902416448 0.17615329733 0.2478725152 0.31035131605 0.36486382811 0.41257334776 
0.45449736604 0.4915044461 0.52432611754 0.093902416448 0.17615329733 0.2478725152 0.31035131605 0.36486382811 0.41257334776 
0.45449736604 0.4915044461 0.52432611754 2.9637113136 2.7572056934 2.5352808365 2.3183572967 2.1243706857 1.9616239082 
1.829722181 1.7240926197 1.6393591329 2.9637113136 2.7572056934 2.5352808365 2.3183572967 2.1243706857 1.9616239082 
1.829722181 1.7240926197 1.6393591329 3.0476902371 2.9654393563 2.8937201384 2.8312413375 2.7767288255 2.7290193058 
2.6870952876 2.6500882075 2.617266536 3.0476902371 2.9654393563 2.8937201384 2.8312413375 2.7767288255 2.7290193058 
2.6870952876 2.6500882075 2.617266536 1.5707963268 1.5707963268 1.5707963268 1.5707963268 1.5707963268 1.5707963268 
1.5707963268 1.5707963268 1.5707963268 1.6743954455 1.7840462375 1.8974821136 2.0119052671 2.1243706857 2.232221744 
2.3334263672 2.426721652 2.5115728246 1.4671972081 1.3575464161 1.24411054 1.1296873865 1.0172219679 0.90937090954 
0.80816628637 0.71487100155 0.63001982895 1.6743954455 1.7840462375 1.8974821136 2.0119052671 2.1243706857 2.232221744 
2.3334263672 2.426721652 2.5115728246 1.4671972081 1.3575464161 1.24411054 1.1296873865 1.0172219679 0.90937090954 
0.80816628637 0.71487100155 0.63001982895 1.5707963268 1.5707963268 1.5707963268 1.5707963268 1.5707963268 1.5707963268 
1.5707963268 1.5707963268 1.5707963268 1.6743954455 1.7840462375 1.8974821136 2.0119052671 2.1243706857 2.232221744 
2.3334263672 2.426721652 2.5115728246 1.4671972081 1.3575464161 1.24411054 1.1296873865 1.0172219679 0.90937090954 
0.80816628637 0.71487100155 0.63001982895 1.6743954455 1.7840462375 1.8974821136 2.0119052671 2.1243706857 2.232221744 
2.3334263672 2.426721652 2.5115728246 1.4671972081 1.3575464161 1.24411054 1.1296873865 1.0172219679 0.90937090954 
0.80816628637 0.71487100155 0.63001982895 2.6824132222 2.7864913217 2.8992382033 3.0186096618 3.1415926536 3.0186096618 
2.8992382033 2.7864913217 2.6824132222 0.45917943135 0.35510133185 0.2423544503 0.12298299178 0 0.12298299178 
0.2423544503 0.35510133185 0.45917943135 0.22715816343 0.49462574053 0.3129712797 0.77059342779 0.68021497688 0.49462574053 
1.0172219679 1.0172219679 1.0172219679 1.0172219679 1.2156949949 1.271087727 1.3676273807 1.5707963268 2.1243706857 
1.3676273807 1.447813335 1.5707963268 1.7739652728 2.1243706857 2.6469669131 1.4827341049 1.5707963268 1.6937793186 
1.8705049266 2.1243706857 2.4613776767 2.8286213739 1.5707963268 1.6588585487 1.7739652728 1.9258976586 2.1243706857 
2.3709992258 2.6469669131 2.9144344902 0.26576171152 0.33975332011 0.45685295248 0.40226393329 0.51573716537 0.6552068806 
0.45538277901 0.56421707518 0.69407236469 0.84594095064 0.50083690068 0.60464862014 0.72561863695 0.86392567495 1.0172219679 
0.54002084522 0.63877777351 0.75168694275 0.87851444325 1.0172219679 1.1636342747 0.57404952988 0.66790778838 0.77356233629 
0.89058134991 1.0172219679 1.1502619915 1.2852923014 0.60381225391 0.69302191562 0.79216440667 0.90072551443 1.0172219679 
1.139116835 1.2630228569 1.3852070904 0.71487100155 0.80816628637 0.80816628637 0.90937090954 0.90937090954 0.90937090954 
1.0172219679 1.0172219679 1.0172219679 1.0172219679 1.1296873865 1.1296873865 1.1296873865 1.1296873865 1.1296873865 
1.24411054 1.24411054 1.24411054 1.24411054 1.24411054 1.24411054 1.3575464161 1.3575464161 1.3575464161 
1.3575464161 1.3575464161 1.3575464161 1.3575464161 1.4671972081 1.4671972081 1.4671972081 1.4671972081 1.4671972081 
1.4671972081 1.4671972081 1.4671972081 1.6743954455 1.6743954455 1.7840462375 1.6743954455 1.7840462375 1.8974821136 
1.6743954455 1.7840462375 1.8974821136 2.0119052671 1.6743954455 1.7840462375 1.8974821136 2.0119052671 2.1243706857 
1.6743954455 1.7840462375 1.8974821136 2.0119052671 2.1243706857 2.232221744 1.6743954455 1.7840462375 1.8974821136 
2.0119052671 2.1243706857 2.232221744 2.3334263672 1.6743954455 1.7840462375 1.8974821136 2.0119052671 2.1243706857 
2.232221744 2.3334263672 2.426721652 1.7563855631 1.8785697967 1.8563003522 2.0024758186 1.9913306621 1.9779583789 
2.1243706857 2.1243706857 2.1243706857 2.1243706857 2.2408671392 2.2510113037 2.2630782103 2.2776669786 2.295651703 
2.3494282469 2.3680303173 2.3899057108 2.4159740166 2.4475202889 2.486385773 2.448570738 2.4736848652 2.5028148801 
2.5369440334 2.5773755784 2.6258554882 2.6847397011 2.5377803997 2.5675431237 2.6015718084 2.6407557529 2.6862098746 
2.7393287203 2.8018393335 2.8758309421 2.718901062 2.8307207459 2.7598010554 2.95115522 2.8800620952 2.8058000847 
3.0774230472 3.00855263 2.9351694502 2.8576792927 3.0774230472 3.1415926536 3.0719036933 2.9967168029 2.91630358 
2.95115522 3.00855263 3.0719036933 3.1415926536 3.0653475414 2.9825888767 2.8307207459 2.8800620952 2.9351694502 
2.9967168029 3.0653475414 3.1415926536 3.0574329311 2.718901062 2.7598010554 2.8058000847 2.8576792927 2.91630358 
2.9825888767 3.0574329311 3.1415926536 2.718901062 2.7598010554 2.8307207459 2.8058000847 2.8800620952 2.95115522 
2.8576792927 2.9351694502 3.00855263 3.0774230472 2.91630358 2.9967168029 3.0719036933 3.1415926536 3.0774230472 
2.9825888767 3.0653475414 3.1415926536 3.0719036933 3.00855263 2.95115522 3.0574329311 3.1415926536 3.0653475414 