# vtk DataFile Version 5.1
vtk output
ASCII
DATASET POLYDATA
POINTS 100 float
0.451326 0.83237 0.745674 0.451497 0.831381 0.745739 0.451905 0.828268 0.74602 
0.45232 0.823271 0.74636 0.45239 0.816764 0.746515 0.451683 0.809209 0.746184 
0.449743 0.801108 0.745043 0.446143 0.792949 0.742773 0.440539 0.785152 0.739104 
0.432711 0.778029 0.733834 0.422592 0.771757 0.726853 0.410274 0.766366 0.718151 
0.396 0.761747 0.707816 0.380139 0.757674 0.696023 0.363137 0.753839 0.68301 
0.345479 0.749894 0.669051 0.327628 0.745495 0.654427 0.309984 0.740343 0.639397 
0.292844 0.734212 0.62417 0.276379 0.726969 0.60889 0.260628 0.718578 0.593625 
0.245507 0.709093 0.578369 0.230831 0.698632 0.563049 0.216349 0.687352 0.547539 
0.201782 0.675417 0.531688 0.186869 0.662968 0.515337 0.171392 0.650097 0.498344 
0.15521 0.636831 0.480606 0.13827 0.623131 0.462065 0.120603 0.608897 0.442721 
0.102319 0.59398 0.422627 0.0835806 0.578208 0.401885 0.064575 0.561409 0.380627 
0.0454876 0.543435 0.359005 0.0264738 0.524174 0.337169 0.00764071 0.50357 0.315253 
-0.010962 0.481613 0.293361 -0.0293397 0.45834 0.271564 -0.0475404 0.433812 0.249888 
-0.0656324 0.408099 0.22833 -0.0836777 0.381258 0.206855 -0.101703 0.353316 0.185415 
-0.119676 0.324256 0.163958 -0.137486 0.294019 0.142442 -0.154934 0.262508 0.120847 
-0.171741 0.229608 0.0991827 -0.187561 0.195206 0.0774884 -0.202007 0.159222 0.0558343 
-0.214684 0.121636 0.0343152 -0.225225 0.08251 0.013041 -0.23333 0.0420037 -0.00787359 
-0.238794 0.000378166 -0.0283207 -0.241525 -0.0420136 -0.0482092 -0.241559 -0.0847479 -0.0674728 
-0.239056 -0.127361 -0.0860743 -0.234281 -0.169389 -0.104006 -0.227583 -0.210404 -0.121288 
-0.219361 -0.250052 -0.137961 -0.210029 -0.288086 -0.154079 -0.19998 -0.324375 -0.1697 
-0.189558 -0.358915 -0.184878 -0.179035 -0.391816 -0.199656 -0.168597 -0.423276 -0.21406 
-0.158347 -0.453551 -0.2281 -0.148307 -0.482911 -0.241766 -0.138436 -0.511605 -0.255037 
-0.128655 -0.539826 -0.267883 -0.118863 -0.56768 -0.280272 -0.108967 -0.59518 -0.292176 
-0.0988987 -0.622239 -0.30358 -0.0886252 -0.648691 -0.31448 -0.0781601 -0.674314 -0.324889 
-0.0675611 -0.698861 -0.334838 -0.0569249 -0.722101 -0.344369 -0.046376 -0.743853 -0.353533 
-0.0360544 -0.764012 -0.362387 -0.0261014 -0.78257 -0.370985 -0.0166482 -0.799618 -0.379376 
-0.00780617 -0.815343 -0.387595 0.000337958 -0.830005 -0.395666 0.007724 -0.843907 -0.403598 
0.0143164 -0.857363 -0.411385 0.0200999 -0.870664 -0.419007 0.0250747 -0.884042 -0.426437 
0.029251 -0.897646 -0.433637 0.0326457 -0.911535 -0.440568 0.0352804 -0.925666 -0.44719 
0.0371826 -0.93991 -0.453462 0.0383877 -0.954064 -0.459349 0.0389434 -0.967881 -0.464815 
0.0389132 -0.981095 -0.469833 0.0383794 -0.993443 -0.474375 0.0374444 -1.0047 -0.478419 
0.0362282 -1.01467 -0.481943 0.0348643 -1.02322 -0.484929 0.0334914 -1.03026 -0.487362 
0.0322437 -1.03575 -0.489229 0.0312409 -1.03968 -0.490521 0.0305769 -1.04205 -0.491233 
0.0303124 -1.04286 -0.491365 
LINES 2 100
OFFSETS vtktypeint64
0 100 
CONNECTIVITY vtktypeint64
0 1 2 3 4 5 6 7 8 
9 10 11 12 13 14 15 16 17 
18 19 20 21 22 23 24 25 26 
27 28 29 30 31 32 33 34 35 
36 37 38 39 40 41 42 43 44 
45 46 47 48 49 50 51 52 53 
54 55 56 57 58 59 60 61 62 
63 64 65 66 67 68 69 70 71 
72 73 74 75 76 77 78 79 80 
81 82 83 84 85 86 87 88 89 
90 91 92 93 94 95 96 97 98 
99 
POINT_DATA 100
FIELD FieldData 3
_theta 1 100 double
0 0.031733259127 0.063466518254 0.095199777382 0.12693303651 0.15866629564 0.19039955476 0.22213281389 0.25386607302 
0.28559933214 0.31733259127 0.3490658504 0.38079910953 0.41253236865 0.44426562778 0.47599888691 0.50773214603 0.53946540516 
0.57119866429 0.60293192342 0.63466518254 0.66639844167 0.6981317008 0.72986495992 0.76159821905 0.79333147818 0.82506473731 
0.85679799643 0.88853125556 0.92026451469 0.95199777382 0.98373103294 1.0154642921 1.0471975512 1.0789308103 1.1106640695 
1.1423973286 1.1741305877 1.2058638468 1.237597106 1.2693303651 1.3010636242 1.3327968833 1.3645301425 1.3962634016 
1.4279966607 1.4597299198 1.491463179 1.5231964381 1.5549296972 1.5866629564 1.6183962155 1.6501294746 1.6818627337 
1.7135959929 1.745329252 1.7770625111 1.8087957702 1.8405290294 1.8722622885 1.9039955476 1.9357288068 1.9674620659 
1.999195325 2.0309285841 2.0626618433 2.0943951024 2.1261283615 2.1578616206 2.1895948798 2.2213281389 2.253061398 
2.2847946572 2.3165279163 2.3482611754 2.3799944345 2.4117276937 2.4434609528 2.4751942119 2.506927471 2.5386607302 
2.5703939893 2.6021272484 2.6338605076 2.6655937667 2.6973270258 2.7290602849 2.7607935441 2.7925268032 2.8242600623 
2.8559933214 2.8877265806 2.9194598397 2.9511930988 2.982926358 3.0146596171 3.0463928762 3.0781261353 3.1098593945 
3.1415926536 
_radius 1 100 double
2.4043442601e-15 0.017967281187 0.035964097188 0.053961594843 0.071848931761 0.089423667303 0.10640804463 0.12248655077 0.13735397793 
0.15076142888 0.16255034618 0.17266946753 0.18117461325 0.18821558844 0.19401730285 0.19886129208 0.20306790847 0.20697229339 
0.21088648247 0.21504916616 0.21957743627 0.22443975061 0.22946130908 0.23435904369 0.23879412933 0.24242906311 0.24498035048 
0.24626164845 0.24621353315 0.24491580361 0.24257887254 0.23951403952 0.23608787235 0.23267101819 0.22959296002 0.22710937881 
0.22538061118 0.22445570131 0.22426143678 0.22460414121 0.225193455 0.22568899675 0.22576035377 0.22514680112 0.22370598871 
0.22144513532 0.21853025441 0.21527008214 0.21207577747 0.20940615168 0.20771478672 0.20740971619 0.20881976507 0.2121553909 
0.21746701077 0.22461613584 0.2332704076 0.2429284422 0.25297575426 0.26276304982 0.27168982378 0.27927650168 0.28521471463 
0.28939175091 0.29188934893 0.29295934947 0.2929802862 0.29240019452 0.29167180559 0.29118687808 0.29121693334 0.29186834088 
0.29305991791 0.29452924427 0.29586870982 0.29658542847 0.29617379338 0.29418773669 0.29030139879 0.28435025072 0.27634831541 
0.2664803912 0.25507108944 0.24253525389 0.22931700317 0.21582686218 0.20238725557 0.18919491061 0.17630443937 0.16363246566 
0.15097874538 0.13806049434 0.12455675324 0.11015904398 0.094622667675 0.077811241259 0.059726941715 0.040520835269 0.020481008552 
1.7076112827e-15 
_area 1 100 double
0 0.00092672713497 0.0037622429026 0.0086448670943 0.015717223739 0.02500289415 0.036274194209 0.049003373212 0.062440466585 
0.075770448085 0.088284924566 0.099513610796 0.10927677299 0.11765330681 0.12489838458 0.13135526753 0.13738496686 0.14331634921 
0.14941101785 0.1558361671 0.16264037732 0.16973244322 0.176870714 0.18367264069 0.18965017323 0.19427312568 0.19705822872 
0.19767050219 0.19601019385 0.19225608506 0.18685227237 0.18045048617 0.17383147307 0.16781456092 0.16312887371 0.16020942051 
0.15901421633 0.15910657136 0.15993490879 0.1609900822 0.16186711281 0.1623158041 0.16226717836 0.16180483959 0.1610815066 
0.16021229348 0.15918821782 0.15793253886 0.15649483985 0.15514925053 0.15430372088 0.15433194213 0.15555577797 0.15826655132 
0.16263733755 0.16869958885 0.17639618057 0.18558561772 0.19592816255 0.2070035979 0.21802785994 0.22824688435 0.23713645877 
0.24421107221 0.24904469027 0.25146716316 0.25164582506 0.25003721928 0.24731330187 0.24429279682 0.2418287626 0.24059955815 
0.24085124452 0.24223883485 0.24386361439 0.24448493668 0.24282793855 0.23789384643 0.22918459512 0.21679173215 0.20135562421 
0.18392891363 0.16576809279 0.14807781743 0.13176221468 0.11726215297 0.10454761614 0.093266957617 0.082957997516 0.073205396824 
0.063706804538 0.054282108707 0.044870002672 0.035533984078 0.026476154661 0.018041328345 0.010691391356 0.0049412680745 0.001265619687 
2.237793284e-16 
