# vtk DataFile Version 5.1
vtk output
ASCII
DATASET POLYDATA
POINTS 1002 float
-0.677801 -0.046428 -0.171719 0.602961 0.00878628 -0.187179 -0.68935 0.0105643 0.129721 
0.65391 -0.0312941 0.150934 -0.0340474 -0.00164566 -0.140408 -0.0318983 -0.0405132 0.00352915 
0.00395452 -0.438879 -0.139218 0.0104257 -0.433892 0.116594 0.917401 0.659672 0.0546448 
-0.993269 0.398972 -0.0137337 1.00981 -0.12434 0.00868023 -0.903751 0.0346224 0.0843724 
-0.571427 -0.0800109 -0.167855 -0.454367 -0.129631 -0.179597 -0.318579 -0.183139 -0.199431 
-0.149907 -0.209817 -0.203321 0.0420463 -0.192298 -0.184646 0.217511 -0.148645 -0.169082 
0.348072 -0.105312 -0.175196 0.443004 -0.0677208 -0.18967 0.524897 -0.0299385 -0.194167 
-0.650999 -0.0282758 -0.173896 -0.616537 -0.0118354 -0.173007 -0.570637 -0.00328376 -0.168896 
-0.514341 -0.00448045 -0.169813 -0.455759 -0.0109274 -0.184183 -0.396366 -0.0180194 -0.202258 
-0.32454 -0.0238374 -0.204042 -0.233497 -0.0251621 -0.186245 -0.132272 -0.0179534 -0.16191 
-0.635422 -0.0812905 -0.164993 -0.582152 -0.118685 -0.16224 -0.516288 -0.162734 -0.163796 
-0.440413 -0.218662 -0.169548 -0.357628 -0.282022 -0.176281 -0.269288 -0.336418 -0.176229 
-0.182928 -0.372285 -0.167011 -0.109849 -0.397051 -0.155926 -0.0506412 -0.419599 -0.147801 
-0.764919 -0.00685549 -0.185494 -0.85133 0.0414524 -0.199731 -0.927564 0.103479 -0.203566 
-0.983132 0.176704 -0.192453 -1.01382 0.253964 -0.171901 -1.02639 0.325908 -0.147838 
-1.03097 0.378605 -0.119849 -1.02952 0.402477 -0.0866588 -1.01745 0.404085 -0.050315 
-0.755117 -0.0411688 -0.17485 -0.824739 -0.0328142 -0.170402 -0.876509 -0.0168612 -0.151754 
-0.916527 0.000404366 -0.121109 -0.958235 0.00664995 -0.0861837 -0.992466 0.00401761 -0.0507602 
-0.993302 0.00975873 -0.0135036 -0.960152 0.0283249 0.024952 -0.922439 0.0422865 0.05929 
0.583713 0.0313245 -0.183996 0.56175 0.051367 -0.177951 0.533092 0.0665793 -0.169477 
0.49561 0.075835 -0.156233 0.448598 0.0752815 -0.137722 0.384777 0.0584885 -0.121916 
0.293758 0.0278924 -0.118449 0.179817 -0.000636001 -0.126256 0.0639791 -0.0114831 -0.13593 
0.575389 -0.0396731 -0.191852 0.544683 -0.0925013 -0.191774 0.501193 -0.149309 -0.19177 
0.443277 -0.20684 -0.192471 0.385003 -0.258153 -0.183324 0.333492 -0.298898 -0.157705 
0.27215 -0.333517 -0.130129 0.187127 -0.369373 -0.120068 0.0904047 -0.406658 -0.127823 
0.672694 0.0651546 -0.171952 0.750393 0.129786 -0.149638 0.822618 0.199872 -0.125588 
0.876167 0.270543 -0.104087 0.915319 0.341538 -0.0811844 0.948948 0.418853 -0.0531243 
0.965805 0.502462 -0.0265331 0.954445 0.57953 -0.00521565 0.930361 0.634542 0.0195454 
0.663237 0.0173889 -0.18058 0.721843 0.0216104 -0.174203 0.771586 0.0164084 -0.169218 
0.814869 -0.00204702 -0.16215 0.861116 -0.0326578 -0.149865 0.910893 -0.0668437 -0.133135 
0.954053 -0.0932601 -0.110577 0.984372 -0.107994 -0.0775095 1.00278 -0.116262 -0.0348858 
-0.59324 -0.0320836 0.118624 -0.479036 -0.0784952 0.106997 -0.348688 -0.125689 0.0967468 
-0.195402 -0.16831 0.0920018 -0.0197015 -0.196676 0.0949155 0.155327 -0.198663 0.103969 
0.306204 -0.170768 0.115133 0.433776 -0.124195 0.125618 0.549276 -0.0747344 0.136817 
-0.665001 0.0267485 0.127634 -0.637653 0.0371321 0.118131 -0.604176 0.0380098 0.0965182 
-0.550917 0.0313658 0.0710907 -0.468928 0.0246925 0.0595158 -0.372929 0.0213032 0.0648836 
-0.286066 0.014066 0.067308 -0.209503 -0.00395046 0.0508804 -0.12727 -0.0268665 0.0235058 
-0.652184 -0.0353162 0.12406 -0.603661 -0.0868905 0.11657 -0.546514 -0.140148 0.103956 
-0.479924 -0.191508 0.0885457 -0.399269 -0.24068 0.0793287 -0.304698 -0.287687 0.0821956 
-0.205867 -0.330138 0.0933543 -0.115701 -0.367205 0.105381 -0.0429377 -0.401347 0.113726 
-0.755895 0.0635778 0.142534 -0.810658 0.120079 0.158832 -0.859202 0.18219 0.17399 
-0.907461 0.251755 0.182274 -0.947174 0.321484 0.179895 -0.968002 0.376041 0.162561 
-0.977727 0.406033 0.126746 -0.988468 0.414542 0.0775549 -0.996937 0.409974 0.0275492 
-0.752658 0.0251833 0.140216 -0.799105 0.0415549 0.165613 -0.824283 0.0524678 0.208557 
-0.851838 0.0424725 0.245448 -0.902591 0.0126914 0.247495 -0.952677 -0.00735663 0.217762 
-0.965058 0.00323434 0.180579 -0.943495 0.0285054 0.14709 -0.917757 0.0416933 0.115147 
0.633515 -0.0116196 0.150787 0.606508 0.00430993 0.148034 0.574646 0.0160528 0.14893 
0.529478 0.0207272 0.147471 0.458896 0.0130483 0.127563 0.366289 -0.00659932 0.0894283 
0.265957 -0.0293679 0.0528631 0.164339 -0.0456276 0.0293818 0.0629274 -0.0498939 0.0146273 
0.606601 -0.0794798 0.139232 0.556606 -0.13129 0.134396 0.508875 -0.182468 0.142872 
0.460304 -0.229873 0.159346 0.39943 -0.275683 0.166728 0.321777 -0.322455 0.158587 
0.237629 -0.365769 0.146865 0.157717 -0.398724 0.139642 0.0828519 -0.42019 0.131493 
0.741974 0.0242596 0.171858 0.818214 0.0845717 0.188838 0.865891 0.149122 0.182803 
0.888237 0.217526 0.152563 0.906087 0.288928 0.124581 0.929639 0.366208 0.11988 
0.947395 0.45411 0.125188 0.947736 0.545627 0.116276 0.934177 0.619957 0.0888742 
0.721548 -0.022246 0.155679 0.781154 -0.0162173 0.155652 0.832424 -0.012842 0.153595 
0.883257 -0.0155927 0.150142 0.938718 -0.0249918 0.142221 0.988397 -0.0355264 0.127515 
1.01721 -0.0464539 0.106364 1.02437 -0.0647272 0.0787532 1.01977 -0.0928212 0.0450068 
-0.0252678 0.0228604 -0.125096 -0.00974317 0.0431258 -0.103311 0.00883424 0.0503913 -0.0788854 
0.0240068 0.0429959 -0.0570993 0.0282223 0.0265298 -0.0434223 0.0183381 0.00658568 -0.0390625 
0.0007467 -0.0124416 -0.0365743 -0.0146491 -0.0261951 -0.0272833 -0.0245681 -0.0342589 -0.0116861 
0.122566 0.0235216 -0.120794 0.29137 0.0889071 -0.0979655 0.458034 0.190269 -0.0654408 
0.602801 0.299285 -0.0301417 0.706579 0.390124 -0.0090201 0.767694 0.471301 -0.00360095 
0.806875 0.561061 0.00242674 0.844763 0.642564 0.0179781 0.883953 0.679391 0.0376143 
-0.17598 0.01982 -0.153991 -0.30448 0.0667069 -0.163664 -0.414279 0.124874 -0.161873 
-0.512663 0.187045 -0.146343 -0.607115 0.25444 -0.121134 -0.696653 0.316905 -0.0909887 
-0.780647 0.355266 -0.0624084 -0.861588 0.369449 -0.0427927 -0.935583 0.379268 -0.0302457 
0.14642 -0.0254398 0.0196865 0.345675 0.0612999 0.0850855 0.503129 0.190777 0.162335 
0.587336 0.293626 0.187192 0.649451 0.352001 0.157574 0.74317 0.423871 0.133644 
0.838883 0.535807 0.133953 0.888853 0.636623 0.123735 0.903074 0.676974 0.0904204 
-0.174785 0.000216356 0.012879 -0.298636 0.0652166 0.0292902 -0.41489 0.117414 0.0267045 
-0.536296 0.156499 0.0105303 -0.647664 0.225464 0.0166657 -0.727967 0.325691 0.0485607 
-0.789237 0.394691 0.065585 -0.855579 0.403594 0.0475594 -0.928037 0.391725 0.014044 
-0.00648123 -0.46666 -0.136207 -0.0103706 -0.491978 -0.125898 -0.0132327 -0.508697 -0.104747 
-0.0262896 -0.517473 -0.0746414 -0.050039 -0.523783 -0.039713 -0.0665078 -0.526077 -0.000696185 
-0.0601387 -0.516123 0.0405691 -0.0361836 -0.492346 0.0766573 -0.00978137 -0.462321 0.101647 
0.120294 -0.428437 -0.116922 0.254677 -0.406723 -0.0937472 0.378134 -0.390106 -0.0904111 
0.475848 -0.379405 -0.103767 0.576851 -0.353661 -0.101853 0.70953 -0.307293 -0.0716335 
0.846224 -0.261178 -0.0375653 0.940698 -0.223089 -0.0181574 0.987004 -0.179421 -0.00618787 
-0.100468 -0.444168 -0.144907 -0.194913 -0.419198 -0.126804 -0.302271 -0.375396 -0.101718 
-0.438899 -0.335076 -0.0953133 -0.576971 -0.292883 -0.0936664 -0.68115 -0.225407 -0.0621004 
-0.757776 -0.140435 -0.00892053 -0.823803 -0.0667685 0.032941 -0.874328 -0.0118094 0.0591202 
0.0982487 -0.454417 0.122665 0.194995 -0.457509 0.119217 0.320059 -0.430265 0.111276 
0.475413 -0.375901 0.102006 0.63471 -0.318306 0.09113 0.770234 -0.277824 0.0818849 
0.874498 -0.248854 0.0755373 0.948065 -0.214514 0.0635357 0.991008 -0.170595 0.0393446 
-0.100173 -0.422018 0.0921135 -0.23456 -0.406419 0.0608237 -0.380402 -0.389664 0.0362721 
-0.514883 -0.366516 0.0280947 -0.627091 -0.327573 0.0339294 -0.722886 -0.267355 0.0467597 
-0.802105 -0.188243 0.0622191 -0.855187 -0.101616 0.0760665 -0.883904 -0.0236857 0.0838988 
0.953423 0.590446 0.0481595 1.00218 0.500475 0.0508267 1.06071 0.415552 0.0573063 
1.11474 0.334845 0.0541435 1.14495 0.246405 0.0401292 1.13889 0.160001 0.0267652 
1.10324 0.087314 0.0173365 1.06106 0.0185024 0.00871733 1.03013 -0.0547497 0.00440574 
-1.05396 0.440633 -0.00470571 -1.09996 0.488079 0.0221192 -1.13078 0.488427 0.050019 
-1.14824 0.419475 0.0629717 -1.13891 0.329571 0.0731015 -1.08871 0.268364 0.0969086 
-1.01716 0.22232 0.119303 -0.960355 0.163391 0.119251 -0.927884 0.0960601 0.102201 
-0.539964 -0.0685644 -0.173608 -0.501418 -0.0624717 -0.180878 -0.417314 -0.124465 -0.192203 
-0.449971 -0.0653278 -0.188567 -0.368371 -0.123794 -0.204988 -0.265499 -0.174174 -0.210142 
-0.385058 -0.0713946 -0.196206 -0.300324 -0.125732 -0.210773 -0.194175 -0.16397 -0.213347 
-0.0736016 -0.18456 -0.201254 -0.3114 -0.0714868 -0.199173 -0.214197 -0.118693 -0.202438 
-0.103511 -0.146971 -0.202479 0.016515 -0.153827 -0.191168 0.128788 -0.150169 -0.176277 
-0.228394 -0.0647916 -0.189893 -0.116442 -0.0967176 -0.179567 -0.000343559 -0.113252 -0.176873 
0.113385 -0.1126 -0.174223 0.215244 -0.103291 -0.169021 0.293853 -0.0986848 -0.168499 
-0.133113 -0.0544073 -0.170256 -0.0128243 -0.0675267 -0.152802 0.106361 -0.0661966 -0.146906 
0.210739 -0.0574303 -0.15336 0.297202 -0.0483328 -0.162602 0.363458 -0.0451131 -0.170952 
0.409696 -0.0519813 -0.180523 -0.0319154 -0.0379062 -0.150733 0.0888225 -0.0367381 -0.134763 
0.207138 -0.0182643 -0.126619 0.303402 0.00263201 -0.134618 0.375657 0.0137942 -0.15246 
0.43025 0.0139116 -0.168799 0.470339 0.00548324 -0.180574 0.499817 -0.0100478 -0.189264 
-0.739706 0.0176105 -0.187846 -0.829076 0.0701243 -0.204075 -0.699522 0.0408293 -0.17828 
-0.904706 0.132816 -0.210413 -0.781547 0.0982088 -0.185949 -0.642231 0.055348 -0.16065 
-0.950314 0.202329 -0.199834 -0.847597 0.160522 -0.187379 -0.712755 0.116119 -0.158424 
-0.579048 0.0572787 -0.157978 -0.963832 0.269639 -0.174988 -0.882335 0.222733 -0.176282 
-0.770078 0.175918 -0.158599 -0.64366 0.117769 -0.157397 -0.52269 0.0487028 -0.182865 
[...]
POINT_DATA 1002
FIELD FieldData 4
_paraPhi 1 1002 double
6.2831853072 3.1415926536 6.2831853072 3.1415926536 4.7123889804 4.7123889804 1.5707963268 1.5707963268 3.6951670125 
5.7296109483 2.5880182947 0.5535743589 6.2831853072 6.2831853072 6.2831853072 6.2831853072 3.1415926536 3.1415926536 
3.1415926536 3.1415926536 3.1415926536 6.1053039672 5.898798347 5.6768734901 5.4599499503 5.2659633393 5.1032165617 
4.9713148346 4.8656852733 4.7809517865 0.17788134 0.38438696014 0.60631181711 0.82323535693 1.0172219679 1.1799687454 
1.3118704726 1.4175000338 1.5022335207 6.1892828907 6.1070320098 6.035312792 5.9728339911 5.9183214791 5.8706119594 
5.8286879411 5.7916808611 5.7588591896 0.093902416448 0.17615329733 0.2478725152 0.31035131605 0.36486382811 0.41257334776 
0.45449736604 0.4915044461 0.52432611754 3.3194739936 3.5259796137 3.7479044707 3.9648280105 4.1588146215 4.321561399 
4.4534631262 4.5590926874 4.6438261743 2.9637113136 2.7572056934 2.5352808365 2.3183572967 2.1243706857 1.9616239082 
1.829722181 1.7240926197 1.6393591329 3.23549507 3.3177459509 3.3894651688 3.4519439696 3.5064564817 3.5541660013 
3.5960900196 3.6330970997 3.6659187711 3.0476902371 2.9654393563 2.8937201384 2.8312413375 2.7767288255 2.7290193058 
2.6870952876 2.6500882075 2.617266536 6.2831853072 6.2831853072 6.2831853072 6.2831853072 3.1415926536 3.1415926536 
3.1415926536 3.1415926536 3.1415926536 6.1053039672 5.898798347 5.6768734901 5.4599499503 5.2659633393 5.1032165617 
4.9713148346 4.8656852733 4.7809517865 0.17788134 0.38438696014 0.60631181711 0.82323535693 1.0172219679 1.1799687454 
1.3118704726 1.4175000338 1.5022335207 6.1892828907 6.1070320098 6.035312792 5.9728339911 5.9183214791 5.8706119594 
5.8286879411 5.7916808611 5.7588591896 0.093902416448 0.17615329733 0.2478725152 0.31035131605 0.36486382811 0.41257334776 
0.45449736604 0.4915044461 0.52432611754 3.3194739936 3.5259796137 3.7479044707 3.9648280105 4.1588146215 4.321561399 
4.4534631262 4.5590926874 4.6438261743 2.9637113136 2.7572056934 2.5352808365 2.3183572967 2.1243706857 1.9616239082 
1.829722181 1.7240926197 1.6393591329 3.23549507 3.3177459509 3.3894651688 3.4519439696 3.5064564817 3.5541660013 
3.5960900196 3.6330970997 3.6659187711 3.0476902371 2.9654393563 2.8937201384 2.8312413375 2.7767288255 2.7290193058 
2.6870952876 2.6500882075 2.617266536 4.7123889804 4.7123889804 4.7123889804 4.7123889804 4.7123889804 4.7123889804 
4.7123889804 4.7123889804 4.7123889804 4.6087898617 4.4991390697 4.3857031936 4.2712800401 4.1588146215 4.0509635631 
3.94975894 3.8564636551 3.7716124825 4.8159880991 4.9256388911 5.0390747672 5.1534979207 5.2659633393 5.3738143976 
5.4750190208 5.5683143056 5.6531654782 4.6087898617 4.4991390697 4.3857031936 4.2712800401 4.1588146215 4.0509635631 
3.94975894 3.8564636551 3.7716124825 4.8159880991 4.9256388911 5.0390747672 5.1534979207 5.2659633393 5.3738143976 
5.4750190208 5.5683143056 5.6531654782 1.5707963268 1.5707963268 1.5707963268 1.5707963268 1.5707963268 1.5707963268 
1.5707963268 1.5707963268 1.5707963268 1.6743954455 1.7840462375 1.8974821136 2.0119052671 2.1243706857 2.232221744 
2.3334263672 2.426721652 2.5115728246 1.4671972081 1.3575464161 1.24411054 1.1296873865 1.0172219679 0.90937090954 
0.80816628637 0.71487100155 0.63001982895 1.6743954455 1.7840462375 1.8974821136 2.0119052671 2.1243706857 2.232221744 
2.3334263672 2.426721652 2.5115728246 1.4671972081 1.3575464161 1.24411054 1.1296873865 1.0172219679 0.90937090954 
0.80816628637 0.71487100155 0.63001982895 3.6007720849 3.4966939854 3.3839471039 3.2645756454 3.1415926536 3.0186096618 
2.8992382033 2.7864913217 2.6824132222 5.8240058758 5.9280839753 6.0408308569 6.1602023154 6.2831853072 0.12298299178 
0.2423544503 0.35510133185 0.45917943135 6.0560271438 5.7885595667 5.9702140275 5.5125918794 5.6029703303 5.7885595667 
5.2659633393 5.2659633393 5.2659633393 5.2659633393 5.0674903122 5.0120975802 4.9155579264 4.7123889804 4.1588146215 
4.9155579264 4.8353719722 4.7123889804 4.5092200343 4.1588146215 3.6362183941 4.8004512023 4.7123889804 4.5894059886 
4.4126803806 4.1588146215 3.8218076305 3.4545639333 4.7123889804 4.6243267584 4.5092200343 4.3572876485 4.1588146215 
3.9121860814 3.6362183941 3.368750817 6.0174235957 5.9434319871 5.8263323547 5.8809213739 5.7674481418 5.6279784266 
5.8278025282 5.718968232 5.5891129425 5.4372443565 5.7823484065 5.678536687 5.5575666702 5.4192596322 5.2659633393 
5.743164462 5.6444075337 5.5314983644 5.4046708639 5.2659633393 5.1195510325 5.7091357773 5.6152775188 5.5096229709 
5.3926039573 5.2659633393 5.1329233157 4.9978930058 5.6793730533 5.5901633916 5.4910209005 5.3824597928 5.2659633393 
5.1440684722 5.0201624502 4.8979782167 5.5683143056 5.4750190208 5.4750190208 5.3738143976 5.3738143976 5.3738143976 
5.2659633393 5.2659633393 5.2659633393 5.2659633393 5.1534979207 5.1534979207 5.1534979207 5.1534979207 5.1534979207 
5.0390747672 5.0390747672 5.0390747672 5.0390747672 5.0390747672 5.0390747672 4.9256388911 4.9256388911 4.9256388911 
4.9256388911 4.9256388911 4.9256388911 4.9256388911 4.8159880991 4.8159880991 4.8159880991 4.8159880991 4.8159880991 
4.8159880991 4.8159880991 4.8159880991 4.6087898617 4.6087898617 4.4991390697 4.6087898617 4.4991390697 4.3857031936 
4.6087898617 4.4991390697 4.3857031936 4.2712800401 4.6087898617 4.4991390697 4.3857031936 4.2712800401 4.1588146215 
4.6087898617 4.4991390697 4.3857031936 4.2712800401 4.1588146215 4.0509635631 4.6087898617 4.4991390697 4.3857031936 
4.2712800401 4.1588146215 4.0509635631 3.94975894 4.6087898617 4.4991390697 4.3857031936 4.2712800401 4.1588146215 
4.0509635631 3.94975894 3.8564636551 4.526799744 4.4046155105 4.426884955 4.2807094886 4.2918546451 4.3052269283 
4.1588146215 4.1588146215 4.1588146215 4.1588146215 4.042318168 4.0321740035 4.0201070968 4.0055183285 3.9875336042 
3.9337570603 3.9151549899 3.8932795963 3.8672112905 3.8356650183 3.7967995342 3.8346145692 3.809500442 3.7803704271 
3.7462412737 3.7058097288 3.657329819 3.5984456061 3.7454049075 3.7156421835 3.6816134988 3.6424295543 3.5969754326 
3.5438565869 3.4813459737 3.4073543651 3.5642842451 3.4524645613 3.5233842518 3.3320300872 3.403123212 3.4773852225 
3.20576226 3.2746326772 3.348015857 3.4255060145 3.0774230472 3.1415926536 3.2112816139 3.2864685043 3.3668817272 
2.95115522 3.00855263 3.0719036933 3.1415926536 3.2178377658 3.3005964304 2.8307207459 2.8800620952 2.9351694502 
2.9967168029 3.0653475414 3.1415926536 3.225752376 2.718901062 2.7598010554 2.8058000847 2.8576792927 2.91630358 
2.9825888767 3.0574329311 3.1415926536 3.5642842451 3.5233842518 3.4524645613 3.4773852225 3.403123212 3.3320300872 
3.4255060145 3.348015857 3.2746326772 3.20576226 3.3668817272 3.2864685043 3.2112816139 3.1415926536 3.0774230472 
3.3005964304 3.2178377658 3.1415926536 3.0719036933 3.00855263 2.95115522 3.225752376 3.1415926536 3.0653475414 
2.9967168029 2.9351694502 2.8800620952 2.8307207459 3.1415926536 3.0574329311 2.9825888767 2.91630358 2.8576792927 
2.8058000847 2.7598010554 2.718901062 4.526799744 4.426884955 4.4046155105 4.3052269283 4.2918546451 4.2807094886 
4.1588146215 4.1588146215 4.1588146215 4.1588146215 3.9875336042 4.0055183285 4.0201070968 4.0321740035 4.042318168 
3.7967995342 3.8356650183 3.8672112905 3.8932795963 3.9151549899 3.9337570603 3.5984456061 3.657329819 3.7058097288 
3.7462412737 3.7803704271 3.809500442 3.8346145692 3.4073543651 3.4813459737 3.5438565869 3.5969754326 3.6424295543 
3.6816134988 3.7156421835 3.7454049075 4.7123889804 4.8004512023 4.6243267584 4.9155579264 4.7123889804 4.5092200343 
5.0674903122 4.8353719722 4.5894059886 4.3572876485 5.2659633393 5.0120975802 4.7123889804 4.4126803806 4.1588146215 
5.5125918794 5.2659633393 4.9155579264 4.5092200343 4.1588146215 3.9121860814 5.7885595667 5.6029703303 5.2659633393 
4.7123889804 4.1588146215 3.8218076305 3.6362183941 6.0560271438 5.9702140275 5.7885595667 5.2659633393 4.1588146215 
3.6362183941 3.4545639333 3.368750817 0.22715816343 0.49462574053 0.3129712797 0.77059342779 0.68021497688 0.49462574053 
1.0172219679 1.0172219679 1.0172219679 1.0172219679 1.2156949949 1.271087727 1.3676273807 1.5707963268 2.1243706857 
1.3676273807 1.447813335 1.5707963268 1.7739652728 2.1243706857 2.6469669131 1.4827341049 1.5707963268 1.6937793186 
1.8705049266 2.1243706857 2.4613776767 2.8286213739 1.5707963268 1.6588585487 1.7739652728 1.9258976586 2.1243706857 
2.3709992258 2.6469669131 2.9144344902 1.7563855631 1.8785697967 1.8563003522 2.0024758186 1.9913306621 1.9779583789 
2.1243706857 2.1243706857 2.1243706857 2.1243706857 2.2408671392 2.2510113037 2.2630782103 2.2776669786 2.295651703 
2.3494282469 2.3680303173 2.3899057108 2.4159740166 2.4475202889 2.486385773 2.448570738 2.4736848652 2.5028148801 
2.5369440334 2.5773755784 2.6258554882 2.6847397011 2.5377803997 2.5675431237 2.6015718084 2.6407557529 2.6862098746 
2.7393287203 2.8018393335 2.8758309421 1.6743954455 1.6743954455 1.7840462375 1.6743954455 1.7840462375 1.8974821136 
1.6743954455 1.7840462375 1.8974821136 2.0119052671 1.6743954455 1.7840462375 1.8974821136 2.0119052671 2.1243706857 
1.6743954455 1.7840462375 1.8974821136 2.0119052671 2.1243706857 2.232221744 1.6743954455 1.7840462375 1.8974821136 
2.0119052671 2.1243706857 2.232221744 2.3334263672 1.6743954455 1.7840462375 1.8974821136 2.0119052671 2.1243706857 
2.232221744 2.3334263672 2.426721652 1.4671972081 1.3575464161 1.4671972081 1.24411054 1.3575464161 1.4671972081 
1.1296873865 1.24411054 1.3575464161 1.4671972081 1.0172219679 1.1296873865 1.24411054 1.3575464161 1.4671972081 
0.90937090954 1.0172219679 1.1296873865 1.24411054 1.3575464161 1.4671972081 0.80816628637 0.90937090954 1.0172219679 
1.1296873865 1.24411054 1.3575464161 1.4671972081 0.71487100155 0.80816628637 0.90937090954 1.0172219679 1.1296873865 
1.24411054 1.3575464161 1.4671972081 0.60381225391 0.57404952988 0.69302191562 0.54002084522 0.66790778838 0.79216440667 
0.50083690068 0.63877777351 0.77356233629 0.90072551443 0.45538277901 0.60464862014 0.75168694275 0.89058134991 1.0172219679 
0.40226393329 0.56421707518 0.72561863695 0.87851444325 1.0172219679 1.139116835 0.33975332011 0.51573716537 0.69407236469 
0.86392567495 1.0172219679 1.1502619915 1.2630228569 0.26576171152 0.45685295248 0.6552068806 0.84594095064 1.0172219679 
1.1636342747 1.2852923014 1.3852070904 0.22715816343 0.3129712797 0.49462574053 0.49462574053 0.68021497688 0.77059342779 
1.0172219679 1.0172219679 1.0172219679 1.0172219679 2.1243706857 1.5707963268 1.3676273807 1.271087727 1.2156949949 
2.6469669131 2.1243706857 1.7739652728 1.5707963268 1.447813335 1.3676273807 2.8286213739 2.4613776767 2.1243706857 
1.8705049266 1.6937793186 1.5707963268 1.4827341049 2.9144344902 2.6469669131 2.3709992258 2.1243706857 1.9258976586 
1.7739652728 1.6588585487 1.5707963268 1.7563855631 1.8563003522 1.8785697967 1.9779583789 1.9913306621 2.0024758186 
2.1243706857 2.1243706857 2.1243706857 2.1243706857 2.295651703 2.2776669786 2.2630782103 2.2510113037 2.2408671392 
2.486385773 2.4475202889 2.4159740166 2.3899057108 2.3680303173 2.3494282469 2.6847397011 2.6258554882 2.5773755784 
2.5369440334 2.5028148801 2.4736848652 2.448570738 2.8758309421 2.8018393335 2.7393287203 2.6862098746 2.6407557529 
2.6015718084 2.5675431237 2.5377803997 5.8604937156 5.901393709 5.9723133995 5.9473927383 6.0216547488 6.0927478736 
5.9992719463 6.0767621038 6.1501452836 6.2190157008 6.0578962336 6.1383094565 6.2134963469 0 0.064169606361 
6.1241815303 6.206940195 6.2831853072 0.069688960264 0.13304002361 0.19043743361 6.1990255847 0 0.07624511221 
0.14487585072 0.20642320337 0.26153055843 0.3108719077 0 0.084159722458 0.15900377685 0.22528907359 0.28391336087 
0.3357925689 0.38179159818 0.42269159155 5.8604937156 5.9723133995 5.901393709 6.0927478736 6.0216547488 5.9473927383 
6.2190157008 6.1501452836 6.0767621038 5.9992719463 0.064169606361 0 6.2134963469 6.1383094565 6.0578962336 
0.19043743361 0.13304002361 0.069688960264 6.2831853072 6.206940195 6.1241815303 0.3108719077 0.26153055843 0.20642320337 
0.14487585072 0.07624511221 6.2831853072 6.1990255847 0.42269159155 0.38179159818 0.3357925689 0.28391336087 0.22528907359 
0.15900377685 0.084159722458 0 5.6793730533 5.7091357773 5.5901633916 5.743164462 5.6152775188 5.4910209005 
5.7823484065 5.6444075337 5.5096229709 5.3824597928 5.8278025282 5.678536687 5.5314983644 5.3926039573 5.2659633393 
5.8809213739 5.718968232 5.5575666702 5.4046708639 5.2659633393 5.1440684722 5.9434319871 5.7674481418 5.5891129425 
5.4192596322 5.2659633393 5.1329233157 5.0201624502 6.0174235957 5.8263323547 5.6279784266 5.4372443565 5.2659633393 
5.1195510325 4.9978930058 4.8979782167 1.3852070904 1.2852923014 1.2630228569 1.1636342747 1.1502619915 1.139116835 
1.0172219679 1.0172219679 1.0172219679 1.0172219679 0.84594095064 0.86392567495 0.87851444325 0.89058134991 0.90072551443 
0.6552068806 0.69407236469 0.72561863695 0.75168694275 0.77356233629 0.79216440667 0.45685295248 0.51573716537 0.56421707518 
0.60464862014 0.63877777351 0.66790778838 0.69302191562 0.26576171152 0.33975332011 0.40226393329 0.45538277901 0.50083690068 
0.54002084522 0.57404952988 0.60381225391 
_paraPhiHalf 1 1002 double
0 3.1415926536 0 3.1415926536 1.5707963268 1.5707963268 1.5707963268 1.5707963268 2.5880182947 
0.5535743589 2.5880182947 0.5535743589 0 0 0 0 3.1415926536 3.1415926536 
3.1415926536 3.1415926536 3.1415926536 0.17788134 0.38438696014 0.60631181711 0.82323535693 1.0172219679 1.1799687454 
1.3118704726 1.4175000338 1.5022335207 0.17788134 0.38438696014 0.60631181711 0.82323535693 1.0172219679 1.1799687454 
1.3118704726 1.4175000338 1.5022335207 0.093902416448 0.17615329733 0.2478725152 0.31035131605 0.36486382811 0.41257334776 
0.45449736604 0.4915044461 0.52432611754 0.093902416448 0.17615329733 0.2478725152 0.31035131605 0.36486382811 0.41257334776 
0.45449736604 0.4915044461 0.52432611754 2.9637113136 2.7572056934 2.5352808365 2.3183572967 2.1243706857 1.9616239082 
1.829722181 1.7240926197 1.6393591329 2.9637113136 2.7572056934 2.5352808365 2.3183572967 2.1243706857 1.9616239082 
1.829722181 1.7240926197 1.6393591329 3.0476902371 2.9654393563 2.8937201384 2.8312413375 2.7767288255 2.7290193058 
2.6870952876 2.6500882075 2.617266536 3.0476902371 2.9654393563 2.8937201384 2.8312413375 2.7767288255 2.7290193058 
2.6870952876 2.6500882075 2.617266536 0 0 0 0 3.1415926536 3.1415926536 
3.1415926536 3.1415926536 3.1415926536 0.17788134 0.38438696014 0.60631181711 0.82323535693 1.0172219679 1.1799687454 
1.3118704726 1.4175000338 1.5022335207 0.17788134 0.38438696014 0.60631181711 0.82323535693 1.0172219679 1.1799687454 
1.3118704726 1.4175000338 1.5022335207 0.093902416448 0.17615329733 0.2478725152 0.31035131605 0.36486382811 0.41257334776 
0.45449736604 0.4915044461 0.52432611754 0.093902416448 0.17615329733 0.2478725152 0.31035131605 0.36486382811 0.41257334776 
0.45449736604 0.4915044461 0.52432611754 2.9637113136 2.7572056934 2.5352808365 2.3183572967 2.1243706857 1.9616239082 
1.829722181 1.7240926197 1.6393591329 2.9637113136 2.7572056934 2.5352808365 2.3183572967 2.1243706857 1.9616239082 
1.829722181 1.7240926197 1.6393591329 3.0476902371 2.9654393563 2.8937201384 2.8312413375 2.7767288255 2.7290193058 
2.6870952876 2.6500882075 2.617266536 3.0476902371 2.9654393563 2.8937201384 2.8312413375 2.7767288255 2.7290193058 
2.6870952876 2.6500882075 2.617266536 1.5707963268 1.5707963268 1.5707963268 1.5707963268 1.5707963268 1.5707963268 
1.5707963268 1.5707963268 1.5707963268 1.6743954455 1.7840462375 1.8974821136 2.0119052671 2.1243706857 2.232221744 
2.3334263672 2.426721652 2.5115728246 1.4671972081 1.3575464161 1.24411054 1.1296873865 1.0172219679 0.90937090954 
0.80816628637 0.71487100155 0.63001982895 1.6743954455 1.7840462375 1.8974821136 2.0119052671 2.1243706857 2.232221744 
2.3334263672 2.426721652 2.5115728246 1.4671972081 1.3575464161 1.24411054 1.1296873865 1.0172219679 0.90937090954 
0.80816628637 0.71487100155 0.63001982895 1.5707963268 1.5707963268 1.5707963268 1.5707963268 1.5707963268 1.5707963268 
1.5707963268 1.5707963268 1.5707963268 1.6743954455 1.7840462375 1.8974821136 2.0119052671 2.1243706857 2.232221744 
2.3334263672 2.426721652 2.5115728246 1.4671972081 1.3575464161 1.24411054 1.1296873865 1.0172219679 0.90937090954 
0.80816628637 0.71487100155 0.63001982895 1.6743954455 1.7840462375 1.8974821136 2.0119052671 2.1243706857 2.232221744 
2.3334263672 2.426721652 2.5115728246 1.4671972081 1.3575464161 1.24411054 1.1296873865 1.0172219679 0.90937090954 
0.80816628637 0.71487100155 0.63001982895 2.6824132222 2.7864913217 2.8992382033 3.0186096618 3.1415926536 3.0186096618 
2.8992382033 2.7864913217 2.6824132222 0.45917943135 0.35510133185 0.2423544503 0.12298299178 0 0.12298299178 
0.2423544503 0.35510133185 0.45917943135 0.22715816343 0.49462574053 0.3129712797 0.77059342779 0.68021497688 0.49462574053 
1.0172219679 1.0172219679 1.0172219679 1.0172219679 1.2156949949 1.271087727 1.3676273807 1.5707963268 2.1243706857 
1.3676273807 1.447813335 1.5707963268 1.7739652728 2.1243706857 2.6469669131 1.4827341049 1.5707963268 1.6937793186 
1.8705049266 2.1243706857 2.4613776767 2.8286213739 1.5707963268 1.6588585487 1.7739652728 1.9258976586 2.1243706857 
2.3709992258 2.6469669131 2.9144344902 0.26576171152 0.33975332011 0.45685295248 0.40226393329 0.51573716537 0.6552068806 
0.45538277901 0.56421707518 0.69407236469 0.84594095064 0.50083690068 0.60464862014 0.72561863695 0.86392567495 1.0172219679 
0.54002084522 0.63877777351 0.75168694275 0.87851444325 1.0172219679 1.1636342747 0.57404952988 0.66790778838 0.77356233629 
0.89058134991 1.0172219679 1.1502619915 1.2852923014 0.60381225391 0.69302191562 0.79216440667 0.90072551443 1.0172219679 
1.139116835 1.2630228569 1.3852070904 0.71487100155 0.80816628637 0.80816628637 0.90937090954 0.90937090954 0.90937090954 
1.0172219679 1.0172219679 1.0172219679 1.0172219679 1.1296873865 1.1296873865 1.1296873865 1.1296873865 1.1296873865 
1.24411054 1.24411054 1.24411054 1.24411054 1.24411054 1.24411054 1.3575464161 1.3575464161 1.3575464161 
1.3575464161 1.3575464161 1.3575464161 1.3575464161 1.4671972081 1.4671972081 1.4671972081 1.4671972081 1.4671972081 
1.4671972081 1.4671972081 1.4671972081 1.6743954455 1.6743954455 1.7840462375 1.6743954455 1.7840462375 1.8974821136 
1.6743954455 1.7840462375 1.8974821136 2.0119052671 1.6743954455 1.7840462375 1.8974821136 2.0119052671 2.1243706857 
1.6743954455 1.7840462375 1.8974821136 2.0119052671 2.1243706857 2.232221744 1.6743954455 1.7840462375 1.8974821136 
2.0119052671 2.1243706857 2.232221744 2.3334263672 1.6743954455 1.7840462375 1.8974821136 2.0119052671 2.1243706857 
2.232221744 2.3334263672 2.426721652 1.7563855631 1.8785697967 1.8563003522 2.0024758186 1.9913306621 1.9779583789 
2.1243706857 2.1243706857 2.1243706857 2.1243706857 2.2408671392 2.2510113037 2.2630782103 2.2776669786 2.295651703 
2.3494282469 2.3680303173 2.3899057108 2.4159740166 2.4475202889 2.486385773 2.448570738 2.4736848652 2.5028148801 
2.5369440334 2.5773755784 2.6258554882 2.6847397011 2.5377803997 2.5675431237 2.6015718084 2.6407557529 2.6862098746 
2.7393287203 2.8018393335 2.8758309421 2.718901062 2.8307207459 2.7598010554 2.95115522 2.8800620952 2.8058000847 
3.0774230472 3.00855263 2.9351694502 2.8576792927 3.0774230472 3.1415926536 3.0719036933 2.9967168029 2.91630358 
2.95115522 3.00855263 3.0719036933 3.1415926536 3.0653475414 2.9825888767 2.8307207459 2.8800620952 2.9351694502 
2.9967168029 3.0653475414 3.1415926536 3.0574329311 2.718901062 2.7598010554 2.8058000847 2.8576792927 2.91630358 
2.9825888767 3.0574329311 3.1415926536 2.718901062 2.7598010554 2.8307207459 2.8058000847 2.8800620952 2.95115522 
2.8576792927 2.9351694502 3.00855263 3.0774230472 2.91630358 2.9967168029 3.0719036933 3.1415926536 3.0774230472 
2.9825888767 3.0653475414 3.1415926536 3.0719036933 3.00855263 2.95115522 3.0574329311 3.1415926536 3.0653475414 