# vtk DataFile Version 5.1
vtk output
ASCII
DATASET POLYDATA
POINTS 100 float
-115.769 -94.3605 121.496 -115.777 -94.3723 121.464 -115.801 -94.4017 121.368 
-115.842 -94.4479 121.21 -115.9 -94.51 120.997 -115.977 -94.5871 120.734 
-116.074 -94.6784 120.431 -116.192 -94.7839 120.097 -116.332 -94.9042 119.74 
-116.494 -95.0408 119.37 -116.679 -95.1957 118.993 -116.884 -95.3718 118.615 
-117.11 -95.572 118.241 -117.353 -95.7993 117.873 -117.611 -96.0558 117.512 
-117.882 -96.3429 117.157 -118.161 -96.6604 116.806 -118.447 -97.0067 116.456 
-118.736 -97.3785 116.104 -119.027 -97.7708 115.746 -119.32 -98.1776 115.379 
-119.613 -98.592 115 -119.907 -99.0066 114.607 -120.205 -99.4145 114.199 
-120.509 -99.8095 113.776 -120.821 -100.187 113.336 -121.145 -100.542 112.882 
-121.485 -100.875 112.412 -121.842 -101.185 111.928 -122.219 -101.474 111.43 
-122.617 -101.745 110.918 -123.036 -102.002 110.391 -123.474 -102.249 109.85 
-123.93 -102.493 109.293 -124.397 -102.738 108.721 -124.872 -102.989 108.133 
-125.348 -103.253 107.531 -125.818 -103.533 106.916 -126.276 -103.834 106.29 
-126.714 -104.162 105.657 -127.126 -104.52 105.022 -127.506 -104.913 104.389 
-127.85 -105.346 103.764 -128.154 -105.821 103.152 -128.414 -106.341 102.559 
-128.631 -106.909 101.988 -128.804 -107.523 101.443 -128.935 -108.182 100.926 
-129.024 -108.881 100.436 -129.075 -109.614 99.9722 -129.091 -110.373 99.5322 
-129.076 -111.147 99.1122 -129.032 -111.927 98.7075 -128.965 -112.701 98.3135 
-128.877 -113.458 97.9254 -128.771 -114.189 97.539 -128.652 -114.885 97.1512 
-128.523 -115.543 96.7599 -128.385 -116.158 96.364 -128.242 -116.731 95.9638 
-128.097 -117.265 95.5605 -127.952 -117.764 95.1562 -127.808 -118.234 94.7533 
-127.667 -118.682 94.3543 -127.532 -119.114 93.9615 -127.403 -119.535 93.5767 
-127.282 -119.95 93.2011 -127.168 -120.362 92.835 -127.064 -120.771 92.4782 
-126.968 -121.179 92.1298 -126.881 -121.582 91.7886 -126.803 -121.98 91.4532 
-126.733 -122.371 91.1224 -126.672 -122.754 90.7954 -126.619 -123.13 90.4717 
-126.574 -123.498 90.1515 -126.538 -123.863 89.8354 -126.51 -124.226 89.5245 
-126.491 -124.591 89.2198 -126.481 -124.963 88.9226 -126.481 -125.344 88.6338 
-126.49 -125.735 88.3537 -126.51 -126.136 88.0821 -126.539 -126.545 87.8184 
-126.578 -126.956 87.5612 -126.626 -127.363 87.3089 -126.682 -127.759 87.0599 
-126.744 -128.136 86.8126 -126.812 -128.485 86.5664 -126.883 -128.8 86.3212 
-126.955 -129.074 86.0784 -127.027 -129.306 85.8404 -127.096 -129.495 85.6108 
-127.161 -129.642 85.3945 -127.219 -129.751 85.1969 -127.268 -129.829 85.0239 
-127.308 -129.88 84.8814 -127.337 -129.911 84.7744 -127.355 -129.927 84.7071 
-127.36 -129.931 84.6821 
LINES 2 100
OFFSETS vtktypeint64
0 100 
CONNECTIVITY vtktypeint64
0 1 2 3 4 5 6 7 8 
9 10 11 12 13 14 15 16 17 
18 19 20 21 22 23 24 25 26 
27 28 29 30 31 32 33 34 35 
36 37 38 39 40 41 42 43 44 
45 46 47 48 49 50 51 52 53 
54 55 56 57 58 59 60 61 62 
63 64 65 66 67 68 69 70 71 
72 73 74 75 76 77 78 79 80 
81 82 83 84 85 86 87 88 89 
90 91 92 93 94 95 96 97 98 
99 
POINT_DATA 100
FIELD FieldData 3
_theta 1 100 double
0 0.031733259127 0.063466518254 0.095199777382 0.12693303651 0.15866629564 0.19039955476 0.22213281389 0.25386607302 
0.28559933214 0.31733259127 0.3490658504 0.38079910953 0.41253236865 0.44426562778 0.47599888691 0.50773214603 0.53946540516 
0.57119866429 0.60293192342 0.63466518254 0.66639844167 0.6981317008 0.72986495992 0.76159821905 0.79333147818 0.82506473731 
0.85679799643 0.88853125556 0.92026451469 0.95199777382 0.98373103294 1.0154642921 1.0471975512 1.0789308103 1.1106640695 
1.1423973286 1.1741305877 1.2058638468 1.237597106 1.2693303651 1.3010636242 1.3327968833 1.3645301425 1.3962634016 
1.4279966607 1.4597299198 1.491463179 1.5231964381 1.5549296972 1.5866629564 1.6183962155 1.6501294746 1.6818627337 
1.7135959929 1.745329252 1.7770625111 1.8087957702 1.8405290294 1.8722622885 1.9039955476 1.9357288068 1.9674620659 
1.999195325 2.0309285841 2.0626618433 2.0943951024 2.1261283615 2.1578616206 2.1895948798 2.2213281389 2.253061398 
2.2847946572 2.3165279163 2.3482611754 2.3799944345 2.4117276937 2.4434609528 2.4751942119 2.506927471 2.5386607302 
2.5703939893 2.6021272484 2.6338605076 2.6655937667 2.6973270258 2.7290602849 2.7607935441 2.7925268032 2.8242600623 
2.8559933214 2.8877265806 2.9194598397 2.9511930988 2.982926358 3.0146596171 3.0463928762 3.0781261353 3.1098593945 
3.1415926536 
_radius 1 100 double
1.1189638192e-13 0.38646732719 0.76457507814 1.1263646277 1.4652293079 1.776337996 2.0568310346 2.3058370666 2.5243826198 
2.7152353994 2.8826563672 3.0319768653 3.1689213703 3.2987320654 3.4254070061 3.5514585801 3.6782389899 3.8064280414 
3.9362940673 4.0676572966 4.1996971132 4.3307781511 4.4584171302 4.5794350499 4.6902678417 4.7873641625 4.8675902822 
4.9285790162 4.9689834917 4.9886146675 4.9884534741 4.9705406785 4.9377650983 4.8935907363 4.8417733022 4.7861022994 
4.7301731611 4.67718776 4.6298335424 4.5903348403 4.5606899613 4.5429505128 4.5393457216 4.5521438773 4.5832651646 
4.6337554473 4.7033096819 4.790066388 4.890803668 5.0014678097 5.1178135306 5.2359425212 5.3526373732 5.4654888782 
5.5728611638 5.6737478049 5.7675697092 5.853963613 5.9326053623 6.0030981317 6.0649316659 6.1174927722 6.1600923865 
6.1919787943 6.2123267718 6.2202153315 6.214618997 6.1944347068 6.158554227 6.1059793975 6.0359697337 5.9482074752 
5.8429593503 5.7212045379 5.5846890407 5.4358688425 5.2777263483 5.1134814584 4.9462512117 4.7787223203 4.6128870263 
4.4498682048 4.2898409303 4.132049341 3.9749087242 3.8161642389 3.6530629028 3.4825058555 3.3011791256 3.105686962 
2.8927174358 2.6592605131 2.4028812969 2.1220271485 1.8163215361 1.4867823242 1.135909308 0.76761353885 0.38699496728 
2.9808940331e-13 
_area 1 100 double
0 0.46041369523 1.8095138916 3.9520207048 6.733965427 9.9527576307 13.374672769 16.759805217 19.893230517 
22.619788165 24.876274514 26.710737286 28.278058859 29.80509027 31.528130033 33.623530522 36.170284934 39.164969256 
42.559900606 46.288803514 50.274505127 54.427893936 58.644514461 62.801343787 66.757771318 70.364724213 73.480087157 
75.982485396 77.775388994 78.78694056 78.982241927 78.386573201 77.101137724 75.302904473 73.230931619 71.160854037 
69.365196917 68.060507194 67.357906638 67.244481683 67.609468919 68.305275276 69.213306111 70.282439686 71.530819022 
73.025396346 74.862158846 77.148520559 79.930175914 83.019302133 86.226294347 89.424540591 92.533567555 95.512247165 
98.348894948 101.04525192 103.60019406 106.00099793 108.2258827 110.25413113 112.07192583 113.66385631 115.00224126 
116.05153985 116.77399958 117.12791268 117.06400541 116.52306942 115.43887184 113.74766994 111.40143653 108.38038599 
104.70160004 100.42255185 95.639460504 90.480506153 85.094224205 79.634840958 74.247864954 69.058710877 64.164266481 
59.624864572 55.455386793 51.619942042 48.038443894 44.605518239 41.211344881 37.757462824 34.168796063 30.403746097 
26.461512908 22.385116633 18.25967407 14.206554127 10.374308299 6.9269860068 4.0302125833 1.8357201968 0.46582143698 
0 
