# vtk DataFile Version 5.1
vtk output
ASCII
DATASET POLYDATA
POINTS 100 float
-111.841 -87.8652 101.199 -111.849 -87.8871 101.195 -111.874 -87.9495 101.18 
-111.919 -88.05 101.153 -111.986 -88.1849 101.113 -112.078 -88.3497 101.057 
-112.2 -88.5388 100.985 -112.353 -88.7468 100.895 -112.54 -88.9682 100.785 
-112.76 -89.1983 100.656 -113.013 -89.433 100.508 -113.295 -89.6694 100.341 
-113.603 -89.9059 100.157 -113.932 -90.1418 99.9565 -114.275 -90.3779 99.7428 
-114.629 -90.6155 99.5175 -114.987 -90.857 99.2821 -115.347 -91.1048 99.0382 
-115.706 -91.3618 98.7865 -116.062 -91.6307 98.5272 -116.415 -91.9138 98.2601 
-116.766 -92.2134 97.9846 -117.116 -92.5307 97.6997 -117.466 -92.8671 97.4044 
-117.816 -93.2229 97.0979 -118.167 -93.5985 96.7796 -118.515 -93.9938 96.4497 
-118.86 -94.4084 96.1086 -119.198 -94.8419 95.7574 -119.525 -95.294 95.3976 
-119.839 -95.7645 95.0313 -120.135 -96.253 94.6605 -120.411 -96.7597 94.2873 
-120.667 -97.2849 93.9135 -120.903 -97.8288 93.5405 -121.121 -98.3922 93.1694 
-121.324 -98.9758 92.8005 -121.516 -99.5805 92.434 -121.7 -100.207 92.0693 
-121.881 -100.856 91.7059 -122.06 -101.529 91.3433 -122.239 -102.225 90.9812 
-122.416 -102.944 90.6195 -122.588 -103.686 90.259 -122.751 -104.448 89.9007 
-122.898 -105.229 89.5464 -123.022 -106.026 89.1984 -123.116 -106.833 88.8592 
-123.174 -107.647 88.5314 -123.191 -108.461 88.2177 -123.162 -109.271 87.92 
-123.088 -110.069 87.64 -122.971 -110.851 87.3785 -122.814 -111.611 87.1353 
-122.623 -112.345 86.9096 -122.406 -113.049 86.6997 -122.17 -113.721 86.5033 
-121.923 -114.36 86.3176 -121.673 -114.965 86.1397 -121.424 -115.539 85.9667 
-121.182 -116.082 85.7959 -120.947 -116.598 85.625 -120.721 -117.09 85.4525 
-120.502 -117.56 85.2772 -120.289 -118.011 85.0988 -120.08 -118.446 84.9175 
-119.872 -118.867 84.7337 -119.664 -119.274 84.5485 -119.454 -119.669 84.3629 
-119.244 -120.052 84.178 -119.034 -120.424 83.995 -118.826 -120.787 83.8147 
-118.624 -121.139 83.6379 -118.428 -121.483 83.465 -118.243 -121.821 83.2964 
-118.068 -122.152 83.1323 -117.906 -122.48 82.9726 -117.756 -122.805 82.8176 
-117.617 -123.128 82.6674 -117.487 -123.449 82.522 -117.364 -123.767 82.382 
-117.247 -124.08 82.2476 -117.134 -124.384 82.1192 -117.023 -124.676 81.9974 
-116.914 -124.95 81.8826 -116.808 -125.201 81.7753 -116.707 -125.424 81.6757 
-116.613 -125.614 81.584 -116.528 -125.769 81.5005 -116.453 -125.887 81.425 
-116.391 -125.969 81.3574 -116.343 -126.015 81.2976 -116.308 -126.032 81.2454 
-116.286 -126.025 81.2004 -116.275 -126 81.1624 -116.271 -125.966 81.1313 
-116.272 -125.931 81.1067 -116.275 -125.9 81.0887 -116.278 -125.879 81.0771 
-116.279 -125.872 81.0719 
LINES 2 100
OFFSETS vtktypeint64
0 100 
CONNECTIVITY vtktypeint64
0 1 2 3 4 5 6 7 8 
9 10 11 12 13 14 15 16 17 
18 19 20 21 22 23 24 25 26 
27 28 29 30 31 32 33 34 35 
36 37 38 39 40 41 42 43 44 
45 46 47 48 49 50 51 52 53 
54 55 56 57 58 59 60 61 62 
63 64 65 66 67 68 69 70 71 
72 73 74 75 76 77 78 79 80 
81 82 83 84 85 86 87 88 89 
90 91 92 93 94 95 96 97 98 
99 
POINT_DATA 100
FIELD FieldData 3
_theta 1 100 double
0 0.031733259127 0.063466518254 0.095199777382 0.12693303651 0.15866629564 0.19039955476 0.22213281389 0.25386607302 
0.28559933214 0.31733259127 0.3490658504 0.38079910953 0.41253236865 0.44426562778 0.47599888691 0.50773214603 0.53946540516 
0.57119866429 0.60293192342 0.63466518254 0.66639844167 0.6981317008 0.72986495992 0.76159821905 0.79333147818 0.82506473731 
0.85679799643 0.88853125556 0.92026451469 0.95199777382 0.98373103294 1.0154642921 1.0471975512 1.0789308103 1.1106640695 
1.1423973286 1.1741305877 1.2058638468 1.237597106 1.2693303651 1.3010636242 1.3327968833 1.3645301425 1.3962634016 
1.4279966607 1.4597299198 1.491463179 1.5231964381 1.5549296972 1.5866629564 1.6183962155 1.6501294746 1.6818627337 
1.7135959929 1.745329252 1.7770625111 1.8087957702 1.8405290294 1.8722622885 1.9039955476 1.9357288068 1.9674620659 
1.999195325 2.0309285841 2.0626618433 2.0943951024 2.1261283615 2.1578616206 2.1895948798 2.2213281389 2.253061398 
2.2847946572 2.3165279163 2.3482611754 2.3799944345 2.4117276937 2.4434609528 2.4751942119 2.506927471 2.5386607302 
2.5703939893 2.6021272484 2.6338605076 2.6655937667 2.6973270258 2.7290602849 2.7607935441 2.7925268032 2.8242600623 
2.8559933214 2.8877265806 2.9194598397 2.9511930988 2.982926358 3.0146596171 3.0463928762 3.0781261353 3.1098593945 
3.1415926536 
_radius 1 100 double
3.0412557179e-13 0.43178933885 0.85452092205 1.2599829889 1.6413811261 1.9938267199 2.3146028135 2.6031846138 2.8610303099 
3.0911879055 3.2977733656 3.4853692164 3.6583910269 3.8204838363 3.9740281162 4.1198328538 4.2570679117 4.3834528334 
4.4956848788 4.5900538828 4.6631540735 4.7125727855 4.7374308047 4.7386794996 4.719116307 4.6831370196 4.6362777891 
4.5846092167 4.5340490322 4.4896754621 4.4551330519 4.4321980444 4.4205352922 4.4176856135 4.4193538586 4.4200426083 
4.4139714224 4.396113018 4.3631415882 4.3141257782 4.2508674264 4.1778516472 4.1018202207 4.0310156614 3.9741868878 
3.9394975895 3.933492738 3.9602469787 4.0208305719 4.1133075769 4.2334162553 4.3757100704 4.5345318772 4.7042792953 
4.8791240859 5.0529467378 5.2199052332 5.3752531033 5.515829724 5.6400526057 5.7475842468 5.8388979081 5.9148802379 
5.9765194697 6.0246770945 6.0599281693 6.0824668548 6.0920901361 6.0882766246 6.0703608423 6.0377716638 5.9902726807 
5.9281302858 5.8521518451 5.7635767148 5.6638505366 5.5543484301 5.4361224127 5.309732496 5.1751904317 5.0320133779 
4.8793600129 4.716206838 4.541519486 4.354383627 4.154078902 3.9400992237 3.7121360938 3.4700456932 3.2138184026 
2.9435655243 2.6595329946 2.3621431744 2.0520535354 1.7302118146 1.3978886849 1.0566808217 0.70848889543 0.35547554941 
1.9411821296e-13 
_area 1 100 double
0 0.39205206203 1.544745029 3.3899642916 5.8228009486 8.7166313841 11.943449213 15.390409674 18.967305102 
22.616809731 26.329077922 30.140895835 34.108774118 38.265542168 42.58206917 46.953145047 51.21177472 55.162279562 
58.616852756 61.42062208 63.459459199 64.662278402 65.011613106 64.558309013 63.429315024 61.823806215 59.996438175 
58.226370856 56.774171954 55.839592445 55.534003719 55.861643082 56.717164701 57.916899189 59.23724358 60.441820845 
61.307588222 61.654165177 61.371447853 60.440589769 58.94477459 57.066139774 55.065849496 53.245490773 51.888581052 
51.19302158 51.237037173 52.013952332 53.503554383 55.705088746 58.568938839 61.92120706 65.542411674 69.272499891 
73.059475755 76.991375463 81.253721393 85.895241802 90.736499597 95.561527694 100.18038114 104.42351595 108.14138931 
111.20989873 113.53655304 115.06364426 115.76747874 115.65520318 114.76133467 113.14280267 110.86395659 107.97450622 
104.52021587 100.58031009 96.277546285 91.758972855 87.168360452 82.622710457 78.198101476 73.925134387 69.790828848 
65.744084249 61.70540545 57.583326303 53.295853668 48.790276227 44.055483203 39.125278442 34.074192609 29.008041931 
24.051186726 19.332433091 14.971879572 11.07086653 7.7062193086 4.9288053028 2.7657557775 1.2256268647 0.30570157587 
0 
