# vtk DataFile Version 5.1
vtk output
ASCII
DATASET POLYDATA
POINTS 100 float
-115.323 -105.462 95.2084 -115.339 -105.48 95.2009 -115.388 -105.533 95.1821 
-115.468 -105.617 95.1514 -115.58 -105.728 95.108 -115.723 -105.859 95.0511 
-115.896 -106.003 94.9802 -116.097 -106.155 94.8948 -116.326 -106.309 94.7952 
-116.58 -106.459 94.6823 -116.859 -106.602 94.5574 -117.159 -106.739 94.4226 
-117.478 -106.87 94.2803 -117.814 -106.997 94.133 -118.165 -107.126 93.9832 
-118.527 -107.261 93.8328 -118.899 -107.407 93.6835 -119.278 -107.571 93.5362 
-119.663 -107.757 93.3909 -120.051 -107.968 93.2474 -120.441 -108.208 93.1048 
-120.833 -108.475 92.9619 -121.226 -108.771 92.8177 -121.62 -109.093 92.6714 
-122.014 -109.439 92.5229 -122.41 -109.807 92.3727 -122.807 -110.196 92.2216 
-123.205 -110.603 92.0716 -123.604 -111.03 91.9247 -124.004 -111.477 91.783 
-124.404 -111.948 91.6487 -124.802 -112.447 91.5231 -125.197 -112.978 91.4071 
-125.586 -113.545 91.3006 -125.966 -114.154 91.2024 -126.334 -114.805 91.1104 
-126.687 -115.501 91.0221 -127.02 -116.241 90.9342 -127.329 -117.02 90.8438 
-127.61 -117.832 90.7483 -127.86 -118.669 90.6456 -128.076 -119.521 90.5349 
-128.255 -120.376 90.4165 -128.395 -121.224 90.2917 -128.496 -122.054 90.1629 
-128.558 -122.856 90.0332 -128.583 -123.623 89.9059 -128.573 -124.351 89.7842 
-128.532 -125.037 89.6706 -128.463 -125.683 89.567 -128.372 -126.292 89.4737 
-128.264 -126.869 89.3901 -128.144 -127.421 89.314 -128.017 -127.954 89.2426 
-127.889 -128.475 89.1721 -127.762 -128.99 89.0988 -127.642 -129.502 89.019 
-127.528 -130.013 88.9298 -127.424 -130.523 88.8292 -127.33 -131.032 88.7165 
-127.245 -131.534 88.5922 -127.167 -132.028 88.458 -127.096 -132.508 88.3165 
-127.029 -132.97 88.171 -126.965 -133.414 88.0246 -126.901 -133.836 87.8806 
-126.836 -134.237 87.7415 -126.77 -134.621 87.6088 -126.701 -134.99 87.4833 
-126.631 -135.348 87.3648 -126.561 -135.701 87.2522 -126.492 -136.054 87.144 
-126.426 -136.411 87.0383 -126.364 -136.774 86.9336 -126.31 -137.143 86.8287 
-126.264 -137.519 86.7231 -126.229 -137.897 86.6169 -126.203 -138.274 86.5112 
-126.189 -138.642 86.4077 -126.184 -138.994 86.3082 -126.188 -139.325 86.2148 
-126.199 -139.628 86.1292 -126.214 -139.897 86.0527 -126.231 -140.13 85.9856 
-126.247 -140.324 85.9275 -126.26 -140.481 85.8771 -126.268 -140.601 85.8325 
-126.269 -140.69 85.7913 -126.262 -140.751 85.7511 -126.247 -140.79 85.7098 
-126.225 -140.813 85.6658 -126.196 -140.824 85.6186 -126.163 -140.828 85.5684 
-126.127 -140.828 85.5168 -126.091 -140.827 85.4659 -126.057 -140.825 85.4187 
-126.028 -140.823 85.3781 -126.005 -140.822 85.3473 -125.99 -140.822 85.3285 
-125.985 -140.821 85.3235 
LINES 2 100
OFFSETS vtktypeint64
0 100 
CONNECTIVITY vtktypeint64
0 1 2 3 4 5 6 7 8 
9 10 11 12 13 14 15 16 17 
18 19 20 21 22 23 24 25 26 
27 28 29 30 31 32 33 34 35 
36 37 38 39 40 41 42 43 44 
45 46 47 48 49 50 51 52 53 
54 55 56 57 58 59 60 61 62 
63 64 65 66 67 68 69 70 71 
72 73 74 75 76 77 78 79 80 
81 82 83 84 85 86 87 88 89 
90 91 92 93 94 95 96 97 98 
99 
POINT_DATA 100
FIELD FieldData 3
_theta 1 100 double
0 0.031733259127 0.063466518254 0.095199777382 0.12693303651 0.15866629564 0.19039955476 0.22213281389 0.25386607302 
0.28559933214 0.31733259127 0.3490658504 0.38079910953 0.41253236865 0.44426562778 0.47599888691 0.50773214603 0.53946540516 
0.57119866429 0.60293192342 0.63466518254 0.66639844167 0.6981317008 0.72986495992 0.76159821905 0.79333147818 0.82506473731 
0.85679799643 0.88853125556 0.92026451469 0.95199777382 0.98373103294 1.0154642921 1.0471975512 1.0789308103 1.1106640695 
1.1423973286 1.1741305877 1.2058638468 1.237597106 1.2693303651 1.3010636242 1.3327968833 1.3645301425 1.3962634016 
1.4279966607 1.4597299198 1.491463179 1.5231964381 1.5549296972 1.5866629564 1.6183962155 1.6501294746 1.6818627337 
1.7135959929 1.745329252 1.7770625111 1.8087957702 1.8405290294 1.8722622885 1.9039955476 1.9357288068 1.9674620659 
1.999195325 2.0309285841 2.0626618433 2.0943951024 2.1261283615 2.1578616206 2.1895948798 2.2213281389 2.253061398 
2.2847946572 2.3165279163 2.3482611754 2.3799944345 2.4117276937 2.4434609528 2.4751942119 2.506927471 2.5386607302 
2.5703939893 2.6021272484 2.6338605076 2.6655937667 2.6973270258 2.7290602849 2.7607935441 2.7925268032 2.8242600623 
2.8559933214 2.8877265806 2.9194598397 2.9511930988 2.982926358 3.0146596171 3.0463928762 3.0781261353 3.1098593945 
3.1415926536 
_radius 1 100 double
1.3481600519e-13 0.41776123664 0.83142096992 1.2373339624 1.6323955778 2.0141414357 2.3807133072 2.7307186776 3.0630379319 
3.3766408908 3.6704642586 3.9433778774 4.194236551 4.4219847895 4.6257663552 4.8049989473 4.9594061861 5.0890364736 
5.1943113572 5.2761169583 5.3359001272 5.3756999851 5.3980603805 5.4058162327 5.4017959969 5.3885109297 5.3679027846 
5.3412009981 5.3089110015 5.270928554 5.226755628 5.1757806031 5.1175790119 5.0521952504 4.9803898248 4.903881867 
4.825644316 4.7502461777 4.6840752486 4.6351397498 4.6121832637 4.6231005029 4.6730410249 4.7629170065 4.8889936577 
5.0437586735 5.2176656552 5.4010487771 5.5856185921 5.7652686058 5.9361976913 6.096484971 6.2453087003 6.3820806274 
6.5058419464 6.6151614845 6.7084773683 6.7846012565 6.8431156437 6.8845243638 6.9101348939 6.9217289125 6.9211239504 
6.9097478879 6.8883373829 6.8568329374 6.8144875952 6.7601487455 6.6926291117 6.6110665884 6.5151878836 6.4054294572 
6.2829124559 6.1492995783 6.0065752266 5.8567880238 5.7017820808 5.5429304597 5.3808845674 5.2153718942 5.0450991516 
4.8678252336 4.6806429026 4.4804541058 4.2645623629 4.03126091 3.780282343 3.5129959162 3.2322845107 2.9420954798 
2.6467324822 2.3500332262 2.054643802 1.7616175629 1.4704928254 1.1798340927 0.88802713598 0.59401515416 0.29771384082 
3.5640642307e-13 
_area 1 100 double
0 0.30717187234 1.2317185589 2.7799869432 4.9540161193 7.7400772714 11.095399038 14.939469116 19.157253132 
23.613341549 28.169470465 32.69939984 37.098579119 41.287355157 45.207960065 48.819110005 52.093807413 55.022595042 
57.619388858 59.924152004 61.996895218 63.900527362 65.676399887 67.324206329 68.798512309 70.022928695 70.912984368 
71.399818574 71.452201637 71.096327262 70.42800599 69.602976623 68.791987771 68.116974096 67.61510705 67.253506131 
66.97430369 66.741283346 66.571332441 66.544225165 66.79318246 67.482332921 68.767239767 70.735844255 73.376486205 
76.620604969 80.466158578 84.946429236 89.817014496 94.75999812 99.58408161 104.21780223 108.67826788 113.02956036 
117.31810067 121.49200284 125.37727396 128.75165201 131.42550674 133.27948671 134.28003755 134.47948816 133.99688825 
132.98642045 131.60024153 129.94581768 128.05067943 125.86548222 123.30263138 120.28254441 116.76700396 112.77550716 
108.38533216 103.71375959 98.891387203 94.042905391 89.28391942 84.725186546 80.45575706 76.466965686 72.583505982 
68.554753428 64.188653159 59.392205447 54.165630809 48.587554369 42.795353117 36.960968054 31.264731523 25.870791584 
20.907814595 16.458444781 12.559739833 9.2137468843 6.4037870572 4.1103317766 2.3214830893 1.035956028 0.25974918507 
0 
