# vtk DataFile Version 5.1
vtk output
ASCII
DATASET POLYDATA
POINTS 1002 float
-124.52 -105.364 79.4951 -127.072 -87.2854 89.1743 -127.367 -110.568 86.9596 
-126.268 -88.7371 95.4007 -133.756 -95.5419 84.8385 -134.809 -99.9609 89.1096 
-122.147 -101.687 85.7849 -124.59 -103.1 89.2557 -125.925 -82.0517 94.4378 
-129.158 -113.864 81.079 -113.62 -84.0536 98.3633 -118.514 -114.467 83.7201 
-124.773 -104.164 80.018 -125.134 -103.045 80.7356 -125.773 -102.088 81.6829 
-126.622 -101.018 82.8618 -127.316 -99.3363 84.1593 -127.656 -96.9341 85.3429 
-127.809 -94.2417 86.2892 -127.866 -91.6659 87.1378 -127.661 -89.3279 88.0898 
-125.279 -104.783 79.4791 -126.269 -104.12 79.6897 -127.379 -103.482 80.1742 
-128.411 -102.905 80.9194 -129.355 -102.18 81.8198 -130.377 -101.067 82.6865 
-131.469 -99.6441 83.3818 -132.43 -98.1844 83.9255 -133.168 -96.8181 84.4022 
-124.063 -105.164 79.9672 -123.597 -104.978 80.5894 -122.999 -104.695 81.2245 
-122.33 -104.13 81.7631 -121.808 -103.306 82.2953 -121.519 -102.553 82.9931 
-121.394 -102.124 83.8245 -121.43 -101.95 84.6013 -121.687 -101.844 85.2378 
-124.719 -106.3 79.0341 -125.056 -107.338 78.6702 -125.562 -108.453 78.3344 
-126.166 -109.745 77.9832 -126.731 -111.197 77.8154 -127.197 -112.453 78.0964 
-127.626 -113.186 78.7694 -128.099 -113.515 79.5601 -128.629 -113.719 80.3282 
-123.913 -106.433 79.3332 -123.185 -107.493 79.2461 -122.398 -108.57 79.2503 
-121.699 -109.727 79.4618 -121.144 -110.895 80.0103 -120.631 -111.954 80.84 
-120.077 -112.897 81.7106 -119.5 -113.711 82.453 -118.957 -114.261 83.0931 
-127.719 -87.9793 88.4926 -128.437 -88.7616 87.8332 -129.182 -89.6187 87.2781 
-129.868 -90.4385 86.8015 -130.501 -91.1311 86.3106 -131.188 -91.8163 85.8111 
-131.954 -92.67 85.4143 -132.691 -93.656 85.1645 -133.296 -94.6274 84.9947 
-126.944 -87.8002 89.1139 -126.801 -88.4139 88.9801 -126.573 -89.3425 88.7575 
-126.298 -90.832 88.4349 -126.071 -92.8869 87.9846 -125.814 -95.2551 87.4014 
-125.278 -97.6044 86.7728 -124.369 -99.5898 86.2442 -123.251 -100.954 85.9122 
-126.609 -85.8248 89.944 -126.064 -84.4544 90.7871 -125.545 -83.3962 91.6023 
-125.081 -82.7466 92.3154 -124.686 -82.3317 92.9389 -124.484 -81.9938 93.4875 
-124.59 -81.814 93.9043 -124.949 -81.8498 94.1589 -125.424 -81.9703 94.313 
-125.988 -85.7455 90.3652 -124.391 -84.4655 91.6518 -122.329 -83.6833 92.9116 
-120.073 -83.2096 94.0781 -117.982 -82.6636 95.0698 -116.286 -82.2221 95.8167 
-115.011 -82.4211 96.4275 -114.126 -83.1812 97.0888 -113.656 -83.8539 97.7933 
-127.954 -109.96 87.7918 -128.419 -109.159 88.8312 -128.837 -107.777 89.7752 
-129.344 -105.178 90.2176 -129.765 -101.314 90.2873 -129.707 -97.3131 90.7374 
-129.119 -94.3774 91.973 -128.277 -92.4395 93.5124 -127.335 -90.6796 94.7022 
-128.315 -110.597 87.4548 -129.378 -110.119 87.9398 -130.472 -109.241 88.3325 
-131.473 -108.311 88.6184 -132.348 -107.472 88.8385 -133.127 -106.465 89.01 
-133.773 -105.057 89.107 -134.239 -103.352 89.1244 -134.561 -101.601 89.1073 
-126.872 -109.85 86.9211 -126.361 -109.006 86.9145 -125.771 -108.361 87.0309 
-125.101 -107.941 87.2957 -124.477 -107.345 87.6011 -124.053 -106.387 87.8459 
-123.898 -105.416 88.1001 -123.986 -104.688 88.4738 -124.247 -104.003 88.9116 
-127.307 -111.221 86.5277 -127.331 -111.771 86.0283 -127.493 -112.311 85.4574 
-127.748 -112.972 84.8977 -128.012 -113.62 84.3684 -128.271 -113.987 83.7605 
-128.543 -114.079 83.0347 -128.798 -114.081 82.296 -129.003 -114.035 81.6371 
-126.344 -110.695 86.2802 -125.206 -110.839 85.7422 -124.106 -111.354 85.3579 
-123.168 -112.401 85.1051 -122.337 -113.59 84.979 -121.414 -114.368 84.9213 
-120.349 -114.665 84.7844 -119.375 -114.754 84.4868 -118.754 -114.726 84.0975 
-127.307 -89.5758 95.0762 -128.331 -90.3628 94.5507 -129.279 -91.063 93.7969 
-130.251 -91.8385 92.9406 -131.347 -92.9797 92.1948 -132.441 -94.5865 91.6114 
-133.318 -96.369 91.0373 -133.946 -97.9164 90.3769 -134.422 -99.0758 89.704 
-125.995 -89.1769 95.2499 -125.854 -89.694 94.9003 -125.904 -90.2609 94.331 
-126.099 -90.9026 93.5952 -126.371 -91.8129 92.7325 -126.668 -93.3641 91.7029 
-126.813 -95.7664 90.5784 -126.529 -98.6564 89.6684 -125.729 -101.28 89.2412 
-125.678 -87.2186 95.7203 -124.974 -85.7583 96.0543 -124.351 -84.5293 96.5044 
-124.035 -83.4952 96.9325 -123.988 -82.5747 97.0771 -124.005 -81.8788 96.8737 
-124.109 -81.5716 96.447 -124.494 -81.6107 95.8763 -125.164 -81.812 95.1847 
-124.788 -86.9006 95.8719 -123.033 -85.2156 96.4683 -121.109 -84.2651 97.3647 
-119.101 -84.1596 98.506 -117.065 -84.3369 99.5834 -115.149 -84.2614 100.248 
-113.671 -84.0023 100.331 -112.942 -83.8644 99.907 -113.008 -83.9151 99.1899 
-134.389 -95.3707 85.015 -135.128 -95.2795 85.2308 -135.864 -95.3052 85.5123 
-136.346 -95.5723 85.9525 -136.41 -96.2375 86.6278 -136.172 -97.2221 87.4177 
-135.85 -98.1924 88.0702 -135.523 -98.9274 88.4926 -135.171 -99.4774 88.7993 
-134.004 -93.641 85.3309 -134.121 -91.6562 85.7993 -134.022 -89.8987 86.3806 
-133.576 -88.5153 87.3139 -132.725 -87.3199 88.6105 -131.593 -86.1037 89.9446 
-130.36 -84.866 91.0944 -129.048 -83.6913 92.1741 -127.572 -82.7038 93.3093 
-133.731 -97.3054 84.3761 -133.503 -99.3238 83.8663 -133.081 -101.596 83.4301 
-132.555 -103.957 83.0538 -132.024 -106.246 82.531 -131.519 -108.475 81.8165 
-131.019 -110.589 81.2139 -130.478 -112.289 80.9702 -129.857 -113.349 80.9943 
-134.768 -97.7463 89.491 -134.551 -95.2428 89.9335 -134.064 -92.555 90.5012 
-133.308 -89.9019 91.207 -132.382 -87.5484 91.9099 -131.359 -85.68 92.4644 
-130.218 -84.2997 92.914 -128.918 -83.2785 93.3793 -127.464 -82.5292 93.8947 
-134.989 -101.8 88.5102 -135.12 -103.789 87.8357 -135.117 -105.804 87.0988 
-134.746 -107.554 86.2842 -133.878 -108.959 85.3653 -132.767 -110.3 84.3913 
-131.777 -111.712 83.4587 -130.945 -112.908 82.6037 -130.093 -113.607 81.8119 
-121.867 -101.898 86.1522 -121.692 -102.2 86.667 -121.652 -102.473 87.2756 
-121.734 -102.502 87.8656 -121.921 -102.331 88.4099 -122.248 -102.319 88.9524 
-122.75 -102.637 89.4094 -123.378 -103.032 89.6028 -124.016 -103.203 89.5016 
-123.414 -100.678 86.4349 -124.517 -98.1192 87.4145 -124.773 -94.0067 88.8281 
-123.705 -89.8836 90.4767 -121.629 -87.6057 91.9977 -119.487 -87.1003 93.3194 
-117.855 -86.7213 94.6519 -116.519 -85.6835 96.044 -115.099 -84.5877 97.3227 
-120.794 -102.027 85.4648 -119.677 -102.424 85.1909 -118.922 -103.717 84.9499 
-118.355 -105.811 84.7483 -117.767 -107.753 84.516 -117.281 -109.184 84.2094 
-117.182 -110.629 83.9422 -117.488 -112.258 83.8145 -117.985 -113.627 83.7706 
-125.62 -100.56 89.4388 -126.114 -96.8218 89.9256 -125.538 -92.7694 91.1021 
-123.859 -89.6309 92.8742 -121.68 -87.7376 94.5542 -119.647 -86.425 95.6872 
-117.902 -85.2653 96.5298 -116.305 -84.4699 97.3687 -114.834 -84.1565 98.0515 
-123.028 -104.601 89.2744 -121.548 -105.452 89.0895 -120.433 -106.79 88.5482 
-119.4 -109.236 87.9781 -118.086 -111.764 87.7002 -116.861 -113.079 87.4039 
-116.444 -113.391 86.633 -116.909 -113.629 85.521 -117.738 -114.065 84.4958 
-123.64 -81.8094 95.534 -120.885 -82.0939 96.8209 -117.985 -82.4384 98.2949 
-115.365 -82.1841 99.6991 -113.234 -81.681 100.468 -111.646 -81.9939 100.338 
-110.824 -83.0689 99.7705 -111.028 -83.8454 99.2948 -112.126 -83.9894 98.9021 
-127.999 -114.055 80.64 -126.714 -114.205 80.1749 -125.598 -114.595 79.8939 
-124.787 -115.413 79.9537 -123.957 -116.333 80.324 -122.733 -116.662 80.9372 
-121.304 -116.232 81.7396 -120.123 -115.552 82.5587 -119.266 -114.992 83.2184 
-125.572 -103.501 80.1268 -126.62 -102.849 80.5221 -126.058 -102.404 81.0523 
-127.764 -102.238 81.1993 -127.191 -101.787 81.6614 -126.831 -101.462 82.2307 
-128.815 -101.504 82.0461 -128.318 -101.024 82.4461 -127.95 -100.689 82.981 
-127.643 -100.16 83.5599 -129.819 -100.411 82.8865 -129.31 -99.8524 83.2098 
-128.928 -99.4659 83.7165 -128.574 -98.9374 84.3031 -128.126 -98.0111 84.8391 
-130.884 -98.9796 83.5834 -130.267 -98.287 83.8366 -129.757 -97.7172 84.2739 
-129.337 -97.1794 84.8732 -128.849 -96.3553 85.4247 -128.286 -95.2726 85.8577 
-131.893 -97.4587 84.1276 -131.221 -96.6352 84.3421 -130.551 -95.8209 84.6913 
-129.995 -95.1379 85.236 -129.478 -94.4282 85.8055 -128.896 -93.5299 86.2471 
-128.32 -92.5639 86.649 -132.691 -95.9986 84.5863 -132.045 -95.0889 84.7794 
-131.302 -94.1324 85.0664 -130.609 -93.2971 85.5248 -130.02 -92.5893 86.0624 
-129.433 -91.8331 86.53 -128.793 -90.9851 86.9586 -128.182 -90.1391 87.4744 
-125.706 -105.715 79.0833 -126.253 -106.714 78.8261 -126.865 -105.003 79.3724 
-126.822 -107.804 78.6547 -127.44 -105.961 79.2467 -127.966 -104.343 79.9406 
-127.331 -109.144 78.5689 -127.864 -107.085 79.2927 -128.4 -105.33 79.9356 
-128.901 -103.762 80.7707 -127.797 -110.638 78.7023 -128.233 -108.505 79.4719 
-128.705 -106.526 80.138 -129.283 -104.743 80.8257 -129.866 -102.932 81.7257 
-128.286 -111.85 79.1102 -128.729 -109.967 79.7395 -129.135 -107.907 80.4264 
-129.698 -105.863 81.0532 -130.373 -103.75 81.759 -130.999 -101.622 82.5916 
-128.817 -112.588 79.674 -129.354 -111.066 80.0496 -129.782 -109.133 80.6681 
-130.287 -106.997 81.3363 -130.924 -104.672 81.9434 -131.58 -102.276 82.5788 
-132.111 -100.084 83.2759 -129.357 -113.044 80.3032 -129.966 -111.783 80.4351 
-130.464 -109.981 80.8816 -130.95 -107.871 81.5765 -131.501 -105.567 82.233 
-132.097 -103.111 82.7447 -132.637 -100.725 83.2622 -133.012 -98.6324 83.8486 
-130.76 -112.862 81.7093 -131.63 -111.884 82.5735 -131.372 -111.4 81.7497 
-132.598 -110.476 83.5761 -132.309 -110.041 82.7646 -131.946 -109.239 82.1506 
-133.723 -108.977 84.595 -133.387 -108.471 83.8528 -132.952 -107.604 83.2517 
-132.492 -106.836 82.8369 -134.732 -107.497 85.5288 -134.488 -106.971 84.7979 
-134.068 -106.033 84.2145 -133.559 -105.151 83.7943 -133.043 -104.525 83.4284 
-135.289 -105.746 86.4129 -135.271 -105.338 85.6683 -135.083 -104.472 85.0009 
-134.712 -103.505 84.516 -134.183 -102.771 84.1482 -133.608 -102.179 83.7792 
-135.412 -103.629 87.2957 -135.597 -103.279 86.6468 -135.702 -102.534 85.9193 
-135.669 -101.559 85.2606 -135.352 -100.752 84.7836 -134.76 -100.191 84.4289 
[...]
POINT_DATA 1002
FIELD FieldData 4
_paraPhi 1 1002 double
6.2831853072 3.1415926536 6.2831853072 3.1415926536 4.7123889804 4.7123889804 1.5707963268 1.5707963268 3.6951670125 
5.7296109483 2.5880182947 0.5535743589 6.2831853072 6.2831853072 6.2831853072 6.2831853072 3.1415926536 3.1415926536 
3.1415926536 3.1415926536 3.1415926536 6.1053039672 5.898798347 5.6768734901 5.4599499503 5.2659633393 5.1032165617 
4.9713148346 4.8656852733 4.7809517865 0.17788134 0.38438696014 0.60631181711 0.82323535693 1.0172219679 1.1799687454 
1.3118704726 1.4175000338 1.5022335207 6.1892828907 6.1070320098 6.035312792 5.9728339911 5.9183214791 5.8706119594 
5.8286879411 5.7916808611 5.7588591896 0.093902416448 0.17615329733 0.2478725152 0.31035131605 0.36486382811 0.41257334776 
0.45449736604 0.4915044461 0.52432611754 3.3194739936 3.5259796137 3.7479044707 3.9648280105 4.1588146215 4.321561399 
4.4534631262 4.5590926874 4.6438261743 2.9637113136 2.7572056934 2.5352808365 2.3183572967 2.1243706857 1.9616239082 
1.829722181 1.7240926197 1.6393591329 3.23549507 3.3177459509 3.3894651688 3.4519439696 3.5064564817 3.5541660013 
3.5960900196 3.6330970997 3.6659187711 3.0476902371 2.9654393563 2.8937201384 2.8312413375 2.7767288255 2.7290193058 
2.6870952876 2.6500882075 2.617266536 6.2831853072 6.2831853072 6.2831853072 6.2831853072 3.1415926536 3.1415926536 
3.1415926536 3.1415926536 3.1415926536 6.1053039672 5.898798347 5.6768734901 5.4599499503 5.2659633393 5.1032165617 
4.9713148346 4.8656852733 4.7809517865 0.17788134 0.38438696014 0.60631181711 0.82323535693 1.0172219679 1.1799687454 
1.3118704726 1.4175000338 1.5022335207 6.1892828907 6.1070320098 6.035312792 5.9728339911 5.9183214791 5.8706119594 
5.8286879411 5.7916808611 5.7588591896 0.093902416448 0.17615329733 0.2478725152 0.31035131605 0.36486382811 0.41257334776 
0.45449736604 0.4915044461 0.52432611754 3.3194739936 3.5259796137 3.7479044707 3.9648280105 4.1588146215 4.321561399 
4.4534631262 4.5590926874 4.6438261743 2.9637113136 2.7572056934 2.5352808365 2.3183572967 2.1243706857 1.9616239082 
1.829722181 1.7240926197 1.6393591329 3.23549507 3.3177459509 3.3894651688 3.4519439696 3.5064564817 3.5541660013 
3.5960900196 3.6330970997 3.6659187711 3.0476902371 2.9654393563 2.8937201384 2.8312413375 2.7767288255 2.7290193058 
2.6870952876 2.6500882075 2.617266536 4.7123889804 4.7123889804 4.7123889804 4.7123889804 4.7123889804 4.7123889804 
4.7123889804 4.7123889804 4.7123889804 4.6087898617 4.4991390697 4.3857031936 4.2712800401 4.1588146215 4.0509635631 
3.94975894 3.8564636551 3.7716124825 4.8159880991 4.9256388911 5.0390747672 5.1534979207 5.2659633393 5.3738143976 
5.4750190208 5.5683143056 5.6531654782 4.6087898617 4.4991390697 4.3857031936 4.2712800401 4.1588146215 4.0509635631 
3.94975894 3.8564636551 3.7716124825 4.8159880991 4.9256388911 5.0390747672 5.1534979207 5.2659633393 5.3738143976 
5.4750190208 5.5683143056 5.6531654782 1.5707963268 1.5707963268 1.5707963268 1.5707963268 1.5707963268 1.5707963268 
1.5707963268 1.5707963268 1.5707963268 1.6743954455 1.7840462375 1.8974821136 2.0119052671 2.1243706857 2.232221744 
2.3334263672 2.426721652 2.5115728246 1.4671972081 1.3575464161 1.24411054 1.1296873865 1.0172219679 0.90937090954 
0.80816628637 0.71487100155 0.63001982895 1.6743954455 1.7840462375 1.8974821136 2.0119052671 2.1243706857 2.232221744 
2.3334263672 2.426721652 2.5115728246 1.4671972081 1.3575464161 1.24411054 1.1296873865 1.0172219679 0.90937090954 
0.80816628637 0.71487100155 0.63001982895 3.6007720849 3.4966939854 3.3839471039 3.2645756454 3.1415926536 3.0186096618 
2.8992382033 2.7864913217 2.6824132222 5.8240058758 5.9280839753 6.0408308569 6.1602023154 6.2831853072 0.12298299178 
0.2423544503 0.35510133185 0.45917943135 6.0560271438 5.7885595667 5.9702140275 5.5125918794 5.6029703303 5.7885595667 
5.2659633393 5.2659633393 5.2659633393 5.2659633393 5.0674903122 5.0120975802 4.9155579264 4.7123889804 4.1588146215 
4.9155579264 4.8353719722 4.7123889804 4.5092200343 4.1588146215 3.6362183941 4.8004512023 4.7123889804 4.5894059886 
4.4126803806 4.1588146215 3.8218076305 3.4545639333 4.7123889804 4.6243267584 4.5092200343 4.3572876485 4.1588146215 
3.9121860814 3.6362183941 3.368750817 6.0174235957 5.9434319871 5.8263323547 5.8809213739 5.7674481418 5.6279784266 
5.8278025282 5.718968232 5.5891129425 5.4372443565 5.7823484065 5.678536687 5.5575666702 5.4192596322 5.2659633393 
5.743164462 5.6444075337 5.5314983644 5.4046708639 5.2659633393 5.1195510325 5.7091357773 5.6152775188 5.5096229709 
5.3926039573 5.2659633393 5.1329233157 4.9978930058 5.6793730533 5.5901633916 5.4910209005 5.3824597928 5.2659633393 
5.1440684722 5.0201624502 4.8979782167 5.5683143056 5.4750190208 5.4750190208 5.3738143976 5.3738143976 5.3738143976 
5.2659633393 5.2659633393 5.2659633393 5.2659633393 5.1534979207 5.1534979207 5.1534979207 5.1534979207 5.1534979207 
5.0390747672 5.0390747672 5.0390747672 5.0390747672 5.0390747672 5.0390747672 4.9256388911 4.9256388911 4.9256388911 
4.9256388911 4.9256388911 4.9256388911 4.9256388911 4.8159880991 4.8159880991 4.8159880991 4.8159880991 4.8159880991 
4.8159880991 4.8159880991 4.8159880991 4.6087898617 4.6087898617 4.4991390697 4.6087898617 4.4991390697 4.3857031936 
4.6087898617 4.4991390697 4.3857031936 4.2712800401 4.6087898617 4.4991390697 4.3857031936 4.2712800401 4.1588146215 
4.6087898617 4.4991390697 4.3857031936 4.2712800401 4.1588146215 4.0509635631 4.6087898617 4.4991390697 4.3857031936 
4.2712800401 4.1588146215 4.0509635631 3.94975894 4.6087898617 4.4991390697 4.3857031936 4.2712800401 4.1588146215 
4.0509635631 3.94975894 3.8564636551 4.526799744 4.4046155105 4.426884955 4.2807094886 4.2918546451 4.3052269283 
4.1588146215 4.1588146215 4.1588146215 4.1588146215 4.042318168 4.0321740035 4.0201070968 4.0055183285 3.9875336042 
3.9337570603 3.9151549899 3.8932795963 3.8672112905 3.8356650183 3.7967995342 3.8346145692 3.809500442 3.7803704271 
3.7462412737 3.7058097288 3.657329819 3.5984456061 3.7454049075 3.7156421835 3.6816134988 3.6424295543 3.5969754326 
3.5438565869 3.4813459737 3.4073543651 3.5642842451 3.4524645613 3.5233842518 3.3320300872 3.403123212 3.4773852225 
3.20576226 3.2746326772 3.348015857 3.4255060145 3.0774230472 3.1415926536 3.2112816139 3.2864685043 3.3668817272 
2.95115522 3.00855263 3.0719036933 3.1415926536 3.2178377658 3.3005964304 2.8307207459 2.8800620952 2.9351694502 
2.9967168029 3.0653475414 3.1415926536 3.225752376 2.718901062 2.7598010554 2.8058000847 2.8576792927 2.91630358 
2.9825888767 3.0574329311 3.1415926536 3.5642842451 3.5233842518 3.4524645613 3.4773852225 3.403123212 3.3320300872 
3.4255060145 3.348015857 3.2746326772 3.20576226 3.3668817272 3.2864685043 3.2112816139 3.1415926536 3.0774230472 
3.3005964304 3.2178377658 3.1415926536 3.0719036933 3.00855263 2.95115522 3.225752376 3.1415926536 3.0653475414 
2.9967168029 2.9351694502 2.8800620952 2.8307207459 3.1415926536 3.0574329311 2.9825888767 2.91630358 2.8576792927 
2.8058000847 2.7598010554 2.718901062 4.526799744 4.426884955 4.4046155105 4.3052269283 4.2918546451 4.2807094886 
4.1588146215 4.1588146215 4.1588146215 4.1588146215 3.9875336042 4.0055183285 4.0201070968 4.0321740035 4.042318168 
3.7967995342 3.8356650183 3.8672112905 3.8932795963 3.9151549899 3.9337570603 3.5984456061 3.657329819 3.7058097288 
3.7462412737 3.7803704271 3.809500442 3.8346145692 3.4073543651 3.4813459737 3.5438565869 3.5969754326 3.6424295543 
3.6816134988 3.7156421835 3.7454049075 4.7123889804 4.8004512023 4.6243267584 4.9155579264 4.7123889804 4.5092200343 
5.0674903122 4.8353719722 4.5894059886 4.3572876485 5.2659633393 5.0120975802 4.7123889804 4.4126803806 4.1588146215 
5.5125918794 5.2659633393 4.9155579264 4.5092200343 4.1588146215 3.9121860814 5.7885595667 5.6029703303 5.2659633393 
4.7123889804 4.1588146215 3.8218076305 3.6362183941 6.0560271438 5.9702140275 5.7885595667 5.2659633393 4.1588146215 
3.6362183941 3.4545639333 3.368750817 0.22715816343 0.49462574053 0.3129712797 0.77059342779 0.68021497688 0.49462574053 
1.0172219679 1.0172219679 1.0172219679 1.0172219679 1.2156949949 1.271087727 1.3676273807 1.5707963268 2.1243706857 
1.3676273807 1.447813335 1.5707963268 1.7739652728 2.1243706857 2.6469669131 1.4827341049 1.5707963268 1.6937793186 
1.8705049266 2.1243706857 2.4613776767 2.8286213739 1.5707963268 1.6588585487 1.7739652728 1.9258976586 2.1243706857 
2.3709992258 2.6469669131 2.9144344902 1.7563855631 1.8785697967 1.8563003522 2.0024758186 1.9913306621 1.9779583789 
2.1243706857 2.1243706857 2.1243706857 2.1243706857 2.2408671392 2.2510113037 2.2630782103 2.2776669786 2.295651703 
2.3494282469 2.3680303173 2.3899057108 2.4159740166 2.4475202889 2.486385773 2.448570738 2.4736848652 2.5028148801 
2.5369440334 2.5773755784 2.6258554882 2.6847397011 2.5377803997 2.5675431237 2.6015718084 2.6407557529 2.6862098746 
2.7393287203 2.8018393335 2.8758309421 1.6743954455 1.6743954455 1.7840462375 1.6743954455 1.7840462375 1.8974821136 
1.6743954455 1.7840462375 1.8974821136 2.0119052671 1.6743954455 1.7840462375 1.8974821136 2.0119052671 2.1243706857 
1.6743954455 1.7840462375 1.8974821136 2.0119052671 2.1243706857 2.232221744 1.6743954455 1.7840462375 1.8974821136 
2.0119052671 2.1243706857 2.232221744 2.3334263672 1.6743954455 1.7840462375 1.8974821136 2.0119052671 2.1243706857 
2.232221744 2.3334263672 2.426721652 1.4671972081 1.3575464161 1.4671972081 1.24411054 1.3575464161 1.4671972081 
1.1296873865 1.24411054 1.3575464161 1.4671972081 1.0172219679 1.1296873865 1.24411054 1.3575464161 1.4671972081 
0.90937090954 1.0172219679 1.1296873865 1.24411054 1.3575464161 1.4671972081 0.80816628637 0.90937090954 1.0172219679 
1.1296873865 1.24411054 1.3575464161 1.4671972081 0.71487100155 0.80816628637 0.90937090954 1.0172219679 1.1296873865 
1.24411054 1.3575464161 1.4671972081 0.60381225391 0.57404952988 0.69302191562 0.54002084522 0.66790778838 0.79216440667 
0.50083690068 0.63877777351 0.77356233629 0.90072551443 0.45538277901 0.60464862014 0.75168694275 0.89058134991 1.0172219679 
0.40226393329 0.56421707518 0.72561863695 0.87851444325 1.0172219679 1.139116835 0.33975332011 0.51573716537 0.69407236469 
0.86392567495 1.0172219679 1.1502619915 1.2630228569 0.26576171152 0.45685295248 0.6552068806 0.84594095064 1.0172219679 
1.1636342747 1.2852923014 1.3852070904 0.22715816343 0.3129712797 0.49462574053 0.49462574053 0.68021497688 0.77059342779 
1.0172219679 1.0172219679 1.0172219679 1.0172219679 2.1243706857 1.5707963268 1.3676273807 1.271087727 1.2156949949 
2.6469669131 2.1243706857 1.7739652728 1.5707963268 1.447813335 1.3676273807 2.8286213739 2.4613776767 2.1243706857 
1.8705049266 1.6937793186 1.5707963268 1.4827341049 2.9144344902 2.6469669131 2.3709992258 2.1243706857 1.9258976586 
1.7739652728 1.6588585487 1.5707963268 1.7563855631 1.8563003522 1.8785697967 1.9779583789 1.9913306621 2.0024758186 
2.1243706857 2.1243706857 2.1243706857 2.1243706857 2.295651703 2.2776669786 2.2630782103 2.2510113037 2.2408671392 
2.486385773 2.4475202889 2.4159740166 2.3899057108 2.3680303173 2.3494282469 2.6847397011 2.6258554882 2.5773755784 
2.5369440334 2.5028148801 2.4736848652 2.448570738 2.8758309421 2.8018393335 2.7393287203 2.6862098746 2.6407557529 
2.6015718084 2.5675431237 2.5377803997 5.8604937156 5.901393709 5.9723133995 5.9473927383 6.0216547488 6.0927478736 
5.9992719463 6.0767621038 6.1501452836 6.2190157008 6.0578962336 6.1383094565 6.2134963469 0 0.064169606361 
6.1241815303 6.206940195 6.2831853072 0.069688960264 0.13304002361 0.19043743361 6.1990255847 0 0.07624511221 
0.14487585072 0.20642320337 0.26153055843 0.3108719077 0 0.084159722458 0.15900377685 0.22528907359 0.28391336087 
0.3357925689 0.38179159818 0.42269159155 5.8604937156 5.9723133995 5.901393709 6.0927478736 6.0216547488 5.9473927383 
6.2190157008 6.1501452836 6.0767621038 5.9992719463 0.064169606361 0 6.2134963469 6.1383094565 6.0578962336 
0.19043743361 0.13304002361 0.069688960264 6.2831853072 6.206940195 6.1241815303 0.3108719077 0.26153055843 0.20642320337 
0.14487585072 0.07624511221 6.2831853072 6.1990255847 0.42269159155 0.38179159818 0.3357925689 0.28391336087 0.22528907359 
0.15900377685 0.084159722458 0 5.6793730533 5.7091357773 5.5901633916 5.743164462 5.6152775188 5.4910209005 
5.7823484065 5.6444075337 5.5096229709 5.3824597928 5.8278025282 5.678536687 5.5314983644 5.3926039573 5.2659633393 
5.8809213739 5.718968232 5.5575666702 5.4046708639 5.2659633393 5.1440684722 5.9434319871 5.7674481418 5.5891129425 
5.4192596322 5.2659633393 5.1329233157 5.0201624502 6.0174235957 5.8263323547 5.6279784266 5.4372443565 5.2659633393 
5.1195510325 4.9978930058 4.8979782167 1.3852070904 1.2852923014 1.2630228569 1.1636342747 1.1502619915 1.139116835 
1.0172219679 1.0172219679 1.0172219679 1.0172219679 0.84594095064 0.86392567495 0.87851444325 0.89058134991 0.90072551443 
0.6552068806 0.69407236469 0.72561863695 0.75168694275 0.77356233629 0.79216440667 0.45685295248 0.51573716537 0.56421707518 
0.60464862014 0.63877777351 0.66790778838 0.69302191562 0.26576171152 0.33975332011 0.40226393329 0.45538277901 0.50083690068 
0.54002084522 0.57404952988 0.60381225391 
_paraPhiHalf 1 1002 double
0 3.1415926536 0 3.1415926536 1.5707963268 1.5707963268 1.5707963268 1.5707963268 2.5880182947 
0.5535743589 2.5880182947 0.5535743589 0 0 0 0 3.1415926536 3.1415926536 
3.1415926536 3.1415926536 3.1415926536 0.17788134 0.38438696014 0.60631181711 0.82323535693 1.0172219679 1.1799687454 
1.3118704726 1.4175000338 1.5022335207 0.17788134 0.38438696014 0.60631181711 0.82323535693 1.0172219679 1.1799687454 
1.3118704726 1.4175000338 1.5022335207 0.093902416448 0.17615329733 0.2478725152 0.31035131605 0.36486382811 0.41257334776 
0.45449736604 0.4915044461 0.52432611754 0.093902416448 0.17615329733 0.2478725152 0.31035131605 0.36486382811 0.41257334776 
0.45449736604 0.4915044461 0.52432611754 2.9637113136 2.7572056934 2.5352808365 2.3183572967 2.1243706857 1.9616239082 
1.829722181 1.7240926197 1.6393591329 2.9637113136 2.7572056934 2.5352808365 2.3183572967 2.1243706857 1.9616239082 
1.829722181 1.7240926197 1.6393591329 3.0476902371 2.9654393563 2.8937201384 2.8312413375 2.7767288255 2.7290193058 
2.6870952876 2.6500882075 2.617266536 3.0476902371 2.9654393563 2.8937201384 2.8312413375 2.7767288255 2.7290193058 
2.6870952876 2.6500882075 2.617266536 0 0 0 0 3.1415926536 3.1415926536 
3.1415926536 3.1415926536 3.1415926536 0.17788134 0.38438696014 0.60631181711 0.82323535693 1.0172219679 1.1799687454 
1.3118704726 1.4175000338 1.5022335207 0.17788134 0.38438696014 0.60631181711 0.82323535693 1.0172219679 1.1799687454 
1.3118704726 1.4175000338 1.5022335207 0.093902416448 0.17615329733 0.2478725152 0.31035131605 0.36486382811 0.41257334776 
0.45449736604 0.4915044461 0.52432611754 0.093902416448 0.17615329733 0.2478725152 0.31035131605 0.36486382811 0.41257334776 
0.45449736604 0.4915044461 0.52432611754 2.9637113136 2.7572056934 2.5352808365 2.3183572967 2.1243706857 1.9616239082 
1.829722181 1.7240926197 1.6393591329 2.9637113136 2.7572056934 2.5352808365 2.3183572967 2.1243706857 1.9616239082 
1.829722181 1.7240926197 1.6393591329 3.0476902371 2.9654393563 2.8937201384 2.8312413375 2.7767288255 2.7290193058 
2.6870952876 2.6500882075 2.617266536 3.0476902371 2.9654393563 2.8937201384 2.8312413375 2.7767288255 2.7290193058 
2.6870952876 2.6500882075 2.617266536 1.5707963268 1.5707963268 1.5707963268 1.5707963268 1.5707963268 1.5707963268 
1.5707963268 1.5707963268 1.5707963268 1.6743954455 1.7840462375 1.8974821136 2.0119052671 2.1243706857 2.232221744 
2.3334263672 2.426721652 2.5115728246 1.4671972081 1.3575464161 1.24411054 1.1296873865 1.0172219679 0.90937090954 
0.80816628637 0.71487100155 0.63001982895 1.6743954455 1.7840462375 1.8974821136 2.0119052671 2.1243706857 2.232221744 
2.3334263672 2.426721652 2.5115728246 1.4671972081 1.3575464161 1.24411054 1.1296873865 1.0172219679 0.90937090954 
0.80816628637 0.71487100155 0.63001982895 1.5707963268 1.5707963268 1.5707963268 1.5707963268 1.5707963268 1.5707963268 
1.5707963268 1.5707963268 1.5707963268 1.6743954455 1.7840462375 1.8974821136 2.0119052671 2.1243706857 2.232221744 
2.3334263672 2.426721652 2.5115728246 1.4671972081 1.3575464161 1.24411054 1.1296873865 1.0172219679 0.90937090954 
0.80816628637 0.71487100155 0.63001982895 1.6743954455 1.7840462375 1.8974821136 2.0119052671 2.1243706857 2.232221744 
2.3334263672 2.426721652 2.5115728246 1.4671972081 1.3575464161 1.24411054 1.1296873865 1.0172219679 0.90937090954 
0.80816628637 0.71487100155 0.63001982895 2.6824132222 2.7864913217 2.8992382033 3.0186096618 3.1415926536 3.0186096618 
2.8992382033 2.7864913217 2.6824132222 0.45917943135 0.35510133185 0.2423544503 0.12298299178 0 0.12298299178 
0.2423544503 0.35510133185 0.45917943135 0.22715816343 0.49462574053 0.3129712797 0.77059342779 0.68021497688 0.49462574053 
1.0172219679 1.0172219679 1.0172219679 1.0172219679 1.2156949949 1.271087727 1.3676273807 1.5707963268 2.1243706857 
1.3676273807 1.447813335 1.5707963268 1.7739652728 2.1243706857 2.6469669131 1.4827341049 1.5707963268 1.6937793186 
1.8705049266 2.1243706857 2.4613776767 2.8286213739 1.5707963268 1.6588585487 1.7739652728 1.9258976586 2.1243706857 
2.3709992258 2.6469669131 2.9144344902 0.26576171152 0.33975332011 0.45685295248 0.40226393329 0.51573716537 0.6552068806 
0.45538277901 0.56421707518 0.69407236469 0.84594095064 0.50083690068 0.60464862014 0.72561863695 0.86392567495 1.0172219679 
0.54002084522 0.63877777351 0.75168694275 0.87851444325 1.0172219679 1.1636342747 0.57404952988 0.66790778838 0.77356233629 
0.89058134991 1.0172219679 1.1502619915 1.2852923014 0.60381225391 0.69302191562 0.79216440667 0.90072551443 1.0172219679 
1.139116835 1.2630228569 1.3852070904 0.71487100155 0.80816628637 0.80816628637 0.90937090954 0.90937090954 0.90937090954 
1.0172219679 1.0172219679 1.0172219679 1.0172219679 1.1296873865 1.1296873865 1.1296873865 1.1296873865 1.1296873865 
1.24411054 1.24411054 1.24411054 1.24411054 1.24411054 1.24411054 1.3575464161 1.3575464161 1.3575464161 
1.3575464161 1.3575464161 1.3575464161 1.3575464161 1.4671972081 1.4671972081 1.4671972081 1.4671972081 1.4671972081 
1.4671972081 1.4671972081 1.4671972081 1.6743954455 1.6743954455 1.7840462375 1.6743954455 1.7840462375 1.8974821136 
1.6743954455 1.7840462375 1.8974821136 2.0119052671 1.6743954455 1.7840462375 1.8974821136 2.0119052671 2.1243706857 
1.6743954455 1.7840462375 1.8974821136 2.0119052671 2.1243706857 2.232221744 1.6743954455 1.7840462375 1.8974821136 
2.0119052671 2.1243706857 2.232221744 2.3334263672 1.6743954455 1.7840462375 1.8974821136 2.0119052671 2.1243706857 
2.232221744 2.3334263672 2.426721652 1.7563855631 1.8785697967 1.8563003522 2.0024758186 1.9913306621 1.9779583789 
2.1243706857 2.1243706857 2.1243706857 2.1243706857 2.2408671392 2.2510113037 2.2630782103 2.2776669786 2.295651703 
2.3494282469 2.3680303173 2.3899057108 2.4159740166 2.4475202889 2.486385773 2.448570738 2.4736848652 2.5028148801 
2.5369440334 2.5773755784 2.6258554882 2.6847397011 2.5377803997 2.5675431237 2.6015718084 2.6407557529 2.6862098746 
2.7393287203 2.8018393335 2.8758309421 2.718901062 2.8307207459 2.7598010554 2.95115522 2.8800620952 2.8058000847 
3.0774230472 3.00855263 2.9351694502 2.8576792927 3.0774230472 3.1415926536 3.0719036933 2.9967168029 2.91630358 
2.95115522 3.00855263 3.0719036933 3.1415926536 3.0653475414 2.9825888767 2.8307207459 2.8800620952 2.9351694502 
2.9967168029 3.0653475414 3.1415926536 3.0574329311 2.718901062 2.7598010554 2.8058000847 2.8576792927 2.91630358 
2.9825888767 3.0574329311 3.1415926536 2.718901062 2.7598010554 2.8307207459 2.8058000847 2.8800620952 2.95115522 
2.8576792927 2.9351694502 3.00855263 3.0774230472 2.91630358 2.9967168029 3.0719036933 3.1415926536 3.0774230472 
2.9825888767 3.0653475414 3.1415926536 3.0719036933 3.00855263 2.95115522 3.0574329311 3.1415926536 3.0653475414 