# vtk DataFile Version 5.1
vtk output
ASCII
DATASET POLYDATA
POINTS 1002 float
0.0181815 -0.438433 -0.541881 -0.073389 0.488042 0.0842056 -0.168695 -0.751507 -0.174454 
-0.046828 0.370452 0.412619 -0.456733 0.0940148 -0.208799 -0.537629 -0.164915 -0.00630767 
0.147962 -0.286166 -0.177156 0.00410531 -0.37331 -0.00197013 -0.0024664 0.734757 0.401029 
-0.26641 -0.88787 -0.513976 0.649147 0.557641 0.619106 0.302764 -0.9759 -0.359309 
0.00780905 -0.375938 -0.5069 -0.00908485 -0.318495 -0.462053 -0.0420438 -0.270075 -0.406194 
-0.0863854 -0.216173 -0.337487 -0.120361 -0.13059 -0.258502 -0.132403 -0.00688597 -0.18084 
-0.132837 0.133132 -0.11398 -0.128291 0.267079 -0.0529337 -0.110554 0.386627 0.0126573 
-0.0207795 -0.404185 -0.540408 -0.0724184 -0.366002 -0.526566 -0.131119 -0.330309 -0.498272 
-0.186325 -0.299657 -0.456159 -0.236566 -0.262369 -0.404679 -0.289547 -0.203644 -0.352806 
-0.344853 -0.126967 -0.308438 -0.392661 -0.0479311 -0.271829 -0.428654 0.0256322 -0.239071 
0.042753 -0.432132 -0.514542 0.0674841 -0.427501 -0.479177 0.0996848 -0.41827 -0.442349 
0.136903 -0.393476 -0.40893 0.167125 -0.354209 -0.374539 0.184143 -0.318839 -0.33198 
0.190874 -0.301063 -0.284391 0.188094 -0.296102 -0.241505 0.173368 -0.293114 -0.206913 
0.0049083 -0.485364 -0.572619 -0.0163594 -0.537853 -0.598935 -0.047124 -0.594032 -0.624444 
-0.0837917 -0.65925 -0.651987 -0.119273 -0.734356 -0.670535 -0.149532 -0.801835 -0.663545 
-0.176635 -0.843645 -0.63225 -0.204936 -0.86418 -0.592258 -0.235804 -0.877695 -0.552831 
0.0475125 -0.49732 -0.556082 0.0832846 -0.556633 -0.566021 0.12205 -0.617634 -0.571049 
0.155334 -0.683766 -0.565494 0.18017 -0.751992 -0.542047 0.202564 -0.815787 -0.50284 
0.227565 -0.873753 -0.460672 0.254485 -0.92408 -0.42462 0.280659 -0.959464 -0.392561 
-0.109672 0.457106 0.0423362 -0.150087 0.421545 0.00104031 -0.192445 0.381444 -0.0351165 
-0.231617 0.342676 -0.0667277 -0.26744 0.310639 -0.098279 -0.306151 0.279256 -0.130326 
-0.349969 0.238492 -0.15795 -0.392911 0.189636 -0.178397 -0.428836 0.140605 -0.194239 
-0.0682087 0.460193 0.0780667 -0.0624344 0.427395 0.0674073 -0.0530057 0.377837 0.0502022 
-0.0428042 0.29848 0.0243362 -0.0370496 0.189613 -0.0118681 -0.0305226 0.0645401 -0.057062 
-0.0087601 -0.0602985 -0.104176 0.0343383 -0.167536 -0.143177 0.0906085 -0.243267 -0.167554 
-0.0445699 0.560445 0.135115 -0.0117184 0.627245 0.189575 0.0186008 0.677504 0.240625 
0.0447327 0.706564 0.283653 0.0664343 0.723771 0.320347 0.07753 0.737998 0.352252 
0.071675 0.745639 0.375649 0.0515995 0.743579 0.388638 0.0251516 0.737982 0.395526 
-0.0114659 0.559911 0.159231 0.0771963 0.61529 0.238629 0.189225 0.642272 0.314307 
0.310901 0.652458 0.383402 0.424163 0.668178 0.443253 0.516149 0.681195 0.488693 
0.583351 0.662098 0.52235 0.627286 0.613974 0.554805 0.648983 0.571864 0.589496 
-0.19987 -0.721431 -0.126815 -0.224115 -0.682644 -0.0666634 -0.243567 -0.612169 -0.00812368 
-0.262531 -0.472896 0.0304782 -0.271601 -0.263678 0.056642 -0.254989 -0.0510943 0.104852 
-0.214919 0.0975349 0.189873 -0.165324 0.189709 0.285713 -0.110252 0.273964 0.36178 
-0.22104 -0.752392 -0.149321 -0.277819 -0.725531 -0.121893 -0.33463 -0.676398 -0.0970984 
-0.386 -0.624239 -0.0776147 -0.430813 -0.577026 -0.0620388 -0.469711 -0.52088 -0.0479474 
-0.499798 -0.443197 -0.0352789 -0.518922 -0.34974 -0.0248724 -0.530093 -0.254132 -0.0158379 
-0.139262 -0.714523 -0.171525 -0.108549 -0.670946 -0.166091 -0.0744828 -0.639107 -0.155091 
-0.0372407 -0.620569 -0.137311 -0.00188119 -0.592659 -0.11636 0.0240327 -0.54409 -0.0968176 
0.0354653 -0.493868 -0.0770839 0.0325967 -0.45651 -0.0527179 0.0200788 -0.421223 -0.0254072 
-0.166953 -0.784414 -0.201563 -0.169312 -0.811005 -0.231814 -0.178945 -0.836134 -0.266066 
-0.194057 -0.867503 -0.300577 -0.209664 -0.898261 -0.333378 -0.223863 -0.913492 -0.368741 
-0.23753 -0.91321 -0.408847 -0.249969 -0.908011 -0.449086 -0.259657 -0.900908 -0.484659 
-0.112496 -0.75826 -0.210347 -0.0503875 -0.767176 -0.238541 0.00807176 -0.7968 -0.260706 
0.0555749 -0.85521 -0.27919 0.0965448 -0.921649 -0.29185 0.143819 -0.966641 -0.298223 
0.20069 -0.985872 -0.305802 0.253672 -0.992622 -0.320943 0.288126 -0.991167 -0.340853 
-0.105477 0.331107 0.388574 -0.162758 0.295663 0.354016 -0.215177 0.265943 0.307773 
-0.268933 0.232852 0.255519 -0.330971 0.179896 0.206861 -0.394852 0.100912 0.16419 
-0.44764 0.0115932 0.121298 -0.485936 -0.0654943 0.0755182 -0.514633 -0.122192 0.0316045 
-0.0333352 0.346625 0.402267 -0.0268994 0.320293 0.380535 -0.0305843 0.293287 0.34637 
-0.0420462 0.26377 0.30257 -0.0583798 0.220822 0.250202 -0.0781239 0.144439 0.184972 
-0.0924397 0.0222087 0.109782 -0.0857357 -0.12915 0.0438948 -0.0509835 -0.270931 0.00640199 
-0.0100504 0.448126 0.439782 0.0327007 0.522147 0.467547 0.0699696 0.583345 0.500077 
0.0899774 0.635333 0.529799 0.0955373 0.683873 0.543154 0.0974971 0.722592 0.536306 
0.0937868 0.74202 0.514964 0.0738836 0.744698 0.483375 0.0381802 0.740426 0.443877 
0.0390059 0.461002 0.451175 0.138922 0.541633 0.495994 0.244831 0.580317 0.552866 
0.351765 0.571758 0.618044 0.459321 0.54824 0.678123 0.562057 0.541198 0.71729 
0.642865 0.549093 0.725484 0.683614 0.556249 0.704508 0.681231 0.557962 0.665428 
-0.490695 0.104587 -0.199196 -0.530791 0.111024 -0.188109 -0.571243 0.110769 -0.174168 
-0.599123 0.095628 -0.152731 -0.606264 0.0561054 -0.120365 -0.598389 -0.00242304 -0.0832744 
-0.585695 -0.0596934 -0.0533797 -0.57141 -0.102971 -0.0344893 -0.554912 -0.135705 -0.0206974 
-0.464249 0.194422 -0.171279 -0.464354 0.298994 -0.134354 -0.45378 0.389856 -0.0923781 
-0.42645 0.457211 -0.0331279 -0.378519 0.510789 0.0452063 -0.315386 0.564209 0.126098 
-0.246355 0.619481 0.197326 -0.173183 0.671477 0.264513 -0.0918525 0.712446 0.333828 
-0.460829 0.0016707 -0.244219 -0.45473 -0.104889 -0.283407 -0.439227 -0.226266 -0.319855 
-0.418516 -0.353206 -0.353449 -0.396956 -0.475399 -0.394502 -0.376299 -0.593133 -0.445578 
-0.35564 -0.705306 -0.489938 -0.331992 -0.797438 -0.512413 -0.302246 -0.857031 -0.516514 
-0.528163 -0.0480605 0.0275255 -0.508311 0.0833389 0.0666403 -0.473369 0.222905 0.114003 
-0.424258 0.358785 0.16901 -0.367015 0.47791 0.222327 -0.305933 0.57141 0.26489 
-0.240105 0.638807 0.299062 -0.166943 0.686169 0.332176 -0.08651 0.718025 0.366602 
-0.552817 -0.259758 -0.0498631 -0.565785 -0.362447 -0.0982998 -0.571457 -0.466598 -0.150054 
-0.556086 -0.557474 -0.203873 -0.512408 -0.631063 -0.26053 -0.455247 -0.701734 -0.319415 
-0.404941 -0.776029 -0.376667 -0.36258 -0.838587 -0.428682 -0.317477 -0.874772 -0.474293 
0.161705 -0.300719 -0.158179 0.16912 -0.320665 -0.131953 0.169134 -0.339029 -0.100687 
0.163472 -0.343747 -0.069161 0.152945 -0.337032 -0.0390612 0.134293 -0.33832 -0.0102034 
0.105066 -0.356237 0.0118045 0.0693324 -0.376272 0.0189515 0.034327 -0.382461 0.0115272 
0.0817981 -0.230841 -0.137956 0.0293746 -0.0946359 -0.0715011 0.027593 0.119504 0.0288835 
0.0971349 0.327841 0.143973 0.214812 0.433778 0.242673 0.33011 0.445188 0.320162 
0.417273 0.45166 0.396719 0.490752 0.494363 0.479981 0.569135 0.540541 0.557594 
0.220603 -0.307668 -0.194436 0.280204 -0.331653 -0.209917 0.316881 -0.402705 -0.229505 
0.340464 -0.516441 -0.252021 0.36578 -0.621858 -0.275259 0.387505 -0.698929 -0.299602 
0.388224 -0.77558 -0.32248 0.366041 -0.861398 -0.33953 0.334281 -0.932981 -0.350796 
-0.0429154 -0.23373 0.0215158 -0.0571568 -0.0334407 0.0693166 -0.0136536 0.17571 0.157788 
0.0851805 0.328015 0.274576 0.206728 0.411927 0.379717 0.319401 0.468313 0.451672 
0.416436 0.519254 0.506624 0.504182 0.551161 0.55899 0.583617 0.558503 0.599871 
0.0832537 -0.460112 -0.0075914 0.160694 -0.510454 -0.0204443 0.21729 -0.583529 -0.0559646 
0.265514 -0.715805 -0.099761 0.32812 -0.855256 -0.127869 0.390298 -0.928908 -0.149871 
0.413204 -0.942789 -0.192698 0.389264 -0.947365 -0.254789 0.34472 -0.961727 -0.313921 
0.120013 0.732786 0.464997 0.265759 0.699559 0.536805 0.418718 0.661464 0.618564 
0.558864 0.657071 0.699713 0.674604 0.671636 0.747352 0.759676 0.649565 0.740824 
0.801377 0.591901 0.705032 0.788461 0.553638 0.67444 0.729252 0.552319 0.650766 
-0.203491 -0.899979 -0.537077 -0.133579 -0.910163 -0.561152 -0.0740388 -0.933717 -0.576984 
-0.0331897 -0.981184 -0.577427 0.00777623 -1.03601 -0.561705 0.071727 -1.06195 -0.528774 
0.14909 -1.04883 -0.480804 0.213943 -1.02145 -0.430811 0.261101 -0.998382 -0.390617 
-0.0332764 -0.337841 -0.49826 -0.0884557 -0.301106 -0.474609 -0.0574205 -0.282362 -0.442519 
-0.149471 -0.267822 -0.436132 -0.117689 -0.248418 -0.407664 -0.0981259 -0.235621 -0.374488 
-0.205338 -0.229304 -0.387635 -0.177458 -0.207688 -0.362461 -0.157337 -0.194173 -0.331068 
-0.139885 -0.170185 -0.296229 -0.257355 -0.171562 -0.337277 -0.228407 -0.145316 -0.315752 
-0.207268 -0.128909 -0.28555 -0.187301 -0.105212 -0.250233 -0.16074 -0.0601609 -0.215135 
-0.311185 -0.0945735 -0.292732 -0.275767 -0.0610893 -0.274029 -0.246954 -0.0348861 -0.246288 
-0.223383 -0.0110139 -0.210134 -0.195061 0.0282987 -0.174752 -0.161543 0.0819471 -0.144106 
-0.361406 -0.01206 -0.255809 -0.322436 0.0284922 -0.238333 -0.283923 0.0677746 -0.213652 
-0.252391 0.0992704 -0.179373 -0.222918 0.132206 -0.143658 -0.189024 0.175799 -0.113617 
-0.155171 0.223293 -0.0853267 -0.40022 0.0668832 -0.223544 -0.362349 0.112302 -0.206748 
-0.319218 0.159328 -0.184464 -0.279602 0.199012 -0.153733 -0.246187 0.231762 -0.119645 
-0.212547 0.267529 -0.0890398 -0.175674 0.308272 -0.0599169 -0.140543 0.348508 -0.0261446 
-0.0464982 -0.450442 -0.567943 -0.0792026 -0.500692 -0.588586 -0.107238 -0.409413 -0.549823 
-0.113601 -0.556195 -0.605167 -0.141553 -0.458099 -0.56317 -0.165551 -0.373052 -0.516873 
-0.14582 -0.625968 -0.618543 -0.168655 -0.517324 -0.56802 -0.192575 -0.424536 -0.523673 
-0.215651 -0.343132 -0.470024 -0.17666 -0.705404 -0.620939 -0.194043 -0.593435 -0.567363 
-0.213789 -0.488957 -0.520334 -0.239974 -0.394794 -0.473465 -0.266757 -0.300347 -0.414988 
-0.208242 -0.771217 -0.606885 -0.226684 -0.671824 -0.562372 -0.24257 -0.563418 -0.51365 
[...]
POINT_DATA 1002
FIELD FieldData 4
_paraPhi 1 1002 double
6.2831853072 3.1415926536 6.2831853072 3.1415926536 4.7123889804 4.7123889804 1.5707963268 1.5707963268 3.6951670125 
5.7296109483 2.5880182947 0.5535743589 6.2831853072 6.2831853072 6.2831853072 6.2831853072 3.1415926536 3.1415926536 
3.1415926536 3.1415926536 3.1415926536 6.1053039672 5.898798347 5.6768734901 5.4599499503 5.2659633393 5.1032165617 
4.9713148346 4.8656852733 4.7809517865 0.17788134 0.38438696014 0.60631181711 0.82323535693 1.0172219679 1.1799687454 
1.3118704726 1.4175000338 1.5022335207 6.1892828907 6.1070320098 6.035312792 5.9728339911 5.9183214791 5.8706119594 
5.8286879411 5.7916808611 5.7588591896 0.093902416448 0.17615329733 0.2478725152 0.31035131605 0.36486382811 0.41257334776 
0.45449736604 0.4915044461 0.52432611754 3.3194739936 3.5259796137 3.7479044707 3.9648280105 4.1588146215 4.321561399 
4.4534631262 4.5590926874 4.6438261743 2.9637113136 2.7572056934 2.5352808365 2.3183572967 2.1243706857 1.9616239082 
1.829722181 1.7240926197 1.6393591329 3.23549507 3.3177459509 3.3894651688 3.4519439696 3.5064564817 3.5541660013 
3.5960900196 3.6330970997 3.6659187711 3.0476902371 2.9654393563 2.8937201384 2.8312413375 2.7767288255 2.7290193058 
2.6870952876 2.6500882075 2.617266536 6.2831853072 6.2831853072 6.2831853072 6.2831853072 3.1415926536 3.1415926536 
3.1415926536 3.1415926536 3.1415926536 6.1053039672 5.898798347 5.6768734901 5.4599499503 5.2659633393 5.1032165617 
4.9713148346 4.8656852733 4.7809517865 0.17788134 0.38438696014 0.60631181711 0.82323535693 1.0172219679 1.1799687454 
1.3118704726 1.4175000338 1.5022335207 6.1892828907 6.1070320098 6.035312792 5.9728339911 5.9183214791 5.8706119594 
5.8286879411 5.7916808611 5.7588591896 0.093902416448 0.17615329733 0.2478725152 0.31035131605 0.36486382811 0.41257334776 
0.45449736604 0.4915044461 0.52432611754 3.3194739936 3.5259796137 3.7479044707 3.9648280105 4.1588146215 4.321561399 
4.4534631262 4.5590926874 4.6438261743 2.9637113136 2.7572056934 2.5352808365 2.3183572967 2.1243706857 1.9616239082 
1.829722181 1.7240926197 1.6393591329 3.23549507 3.3177459509 3.3894651688 3.4519439696 3.5064564817 3.5541660013 
3.5960900196 3.6330970997 3.6659187711 3.0476902371 2.9654393563 2.8937201384 2.8312413375 2.7767288255 2.7290193058 
2.6870952876 2.6500882075 2.617266536 4.7123889804 4.7123889804 4.7123889804 4.7123889804 4.7123889804 4.7123889804 
4.7123889804 4.7123889804 4.7123889804 4.6087898617 4.4991390697 4.3857031936 4.2712800401 4.1588146215 4.0509635631 
3.94975894 3.8564636551 3.7716124825 4.8159880991 4.9256388911 5.0390747672 5.1534979207 5.2659633393 5.3738143976 
5.4750190208 5.5683143056 5.6531654782 4.6087898617 4.4991390697 4.3857031936 4.2712800401 4.1588146215 4.0509635631 
3.94975894 3.8564636551 3.7716124825 4.8159880991 4.9256388911 5.0390747672 5.1534979207 5.2659633393 5.3738143976 
5.4750190208 5.5683143056 5.6531654782 1.5707963268 1.5707963268 1.5707963268 1.5707963268 1.5707963268 1.5707963268 
1.5707963268 1.5707963268 1.5707963268 1.6743954455 1.7840462375 1.8974821136 2.0119052671 2.1243706857 2.232221744 
2.3334263672 2.426721652 2.5115728246 1.4671972081 1.3575464161 1.24411054 1.1296873865 1.0172219679 0.90937090954 
0.80816628637 0.71487100155 0.63001982895 1.6743954455 1.7840462375 1.8974821136 2.0119052671 2.1243706857 2.232221744 
2.3334263672 2.426721652 2.5115728246 1.4671972081 1.3575464161 1.24411054 1.1296873865 1.0172219679 0.90937090954 
0.80816628637 0.71487100155 0.63001982895 3.6007720849 3.4966939854 3.3839471039 3.2645756454 3.1415926536 3.0186096618 
2.8992382033 2.7864913217 2.6824132222 5.8240058758 5.9280839753 6.0408308569 6.1602023154 6.2831853072 0.12298299178 
0.2423544503 0.35510133185 0.45917943135 6.0560271438 5.7885595667 5.9702140275 5.5125918794 5.6029703303 5.7885595667 
5.2659633393 5.2659633393 5.2659633393 5.2659633393 5.0674903122 5.0120975802 4.9155579264 4.7123889804 4.1588146215 
4.9155579264 4.8353719722 4.7123889804 4.5092200343 4.1588146215 3.6362183941 4.8004512023 4.7123889804 4.5894059886 
4.4126803806 4.1588146215 3.8218076305 3.4545639333 4.7123889804 4.6243267584 4.5092200343 4.3572876485 4.1588146215 
3.9121860814 3.6362183941 3.368750817 6.0174235957 5.9434319871 5.8263323547 5.8809213739 5.7674481418 5.6279784266 
5.8278025282 5.718968232 5.5891129425 5.4372443565 5.7823484065 5.678536687 5.5575666702 5.4192596322 5.2659633393 
5.743164462 5.6444075337 5.5314983644 5.4046708639 5.2659633393 5.1195510325 5.7091357773 5.6152775188 5.5096229709 
5.3926039573 5.2659633393 5.1329233157 4.9978930058 5.6793730533 5.5901633916 5.4910209005 5.3824597928 5.2659633393 
5.1440684722 5.0201624502 4.8979782167 5.5683143056 5.4750190208 5.4750190208 5.3738143976 5.3738143976 5.3738143976 
5.2659633393 5.2659633393 5.2659633393 5.2659633393 5.1534979207 5.1534979207 5.1534979207 5.1534979207 5.1534979207 
5.0390747672 5.0390747672 5.0390747672 5.0390747672 5.0390747672 5.0390747672 4.9256388911 4.9256388911 4.9256388911 
4.9256388911 4.9256388911 4.9256388911 4.9256388911 4.8159880991 4.8159880991 4.8159880991 4.8159880991 4.8159880991 
4.8159880991 4.8159880991 4.8159880991 4.6087898617 4.6087898617 4.4991390697 4.6087898617 4.4991390697 4.3857031936 
4.6087898617 4.4991390697 4.3857031936 4.2712800401 4.6087898617 4.4991390697 4.3857031936 4.2712800401 4.1588146215 
4.6087898617 4.4991390697 4.3857031936 4.2712800401 4.1588146215 4.0509635631 4.6087898617 4.4991390697 4.3857031936 
4.2712800401 4.1588146215 4.0509635631 3.94975894 4.6087898617 4.4991390697 4.3857031936 4.2712800401 4.1588146215 
4.0509635631 3.94975894 3.8564636551 4.526799744 4.4046155105 4.426884955 4.2807094886 4.2918546451 4.3052269283 
4.1588146215 4.1588146215 4.1588146215 4.1588146215 4.042318168 4.0321740035 4.0201070968 4.0055183285 3.9875336042 
3.9337570603 3.9151549899 3.8932795963 3.8672112905 3.8356650183 3.7967995342 3.8346145692 3.809500442 3.7803704271 
3.7462412737 3.7058097288 3.657329819 3.5984456061 3.7454049075 3.7156421835 3.6816134988 3.6424295543 3.5969754326 
3.5438565869 3.4813459737 3.4073543651 3.5642842451 3.4524645613 3.5233842518 3.3320300872 3.403123212 3.4773852225 
3.20576226 3.2746326772 3.348015857 3.4255060145 3.0774230472 3.1415926536 3.2112816139 3.2864685043 3.3668817272 
2.95115522 3.00855263 3.0719036933 3.1415926536 3.2178377658 3.3005964304 2.8307207459 2.8800620952 2.9351694502 
2.9967168029 3.0653475414 3.1415926536 3.225752376 2.718901062 2.7598010554 2.8058000847 2.8576792927 2.91630358 
2.9825888767 3.0574329311 3.1415926536 3.5642842451 3.5233842518 3.4524645613 3.4773852225 3.403123212 3.3320300872 
3.4255060145 3.348015857 3.2746326772 3.20576226 3.3668817272 3.2864685043 3.2112816139 3.1415926536 3.0774230472 
3.3005964304 3.2178377658 3.1415926536 3.0719036933 3.00855263 2.95115522 3.225752376 3.1415926536 3.0653475414 
2.9967168029 2.9351694502 2.8800620952 2.8307207459 3.1415926536 3.0574329311 2.9825888767 2.91630358 2.8576792927 
2.8058000847 2.7598010554 2.718901062 4.526799744 4.426884955 4.4046155105 4.3052269283 4.2918546451 4.2807094886 
4.1588146215 4.1588146215 4.1588146215 4.1588146215 3.9875336042 4.0055183285 4.0201070968 4.0321740035 4.042318168 
3.7967995342 3.8356650183 3.8672112905 3.8932795963 3.9151549899 3.9337570603 3.5984456061 3.657329819 3.7058097288 
3.7462412737 3.7803704271 3.809500442 3.8346145692 3.4073543651 3.4813459737 3.5438565869 3.5969754326 3.6424295543 
3.6816134988 3.7156421835 3.7454049075 4.7123889804 4.8004512023 4.6243267584 4.9155579264 4.7123889804 4.5092200343 
5.0674903122 4.8353719722 4.5894059886 4.3572876485 5.2659633393 5.0120975802 4.7123889804 4.4126803806 4.1588146215 
5.5125918794 5.2659633393 4.9155579264 4.5092200343 4.1588146215 3.9121860814 5.7885595667 5.6029703303 5.2659633393 
4.7123889804 4.1588146215 3.8218076305 3.6362183941 6.0560271438 5.9702140275 5.7885595667 5.2659633393 4.1588146215 
3.6362183941 3.4545639333 3.368750817 0.22715816343 0.49462574053 0.3129712797 0.77059342779 0.68021497688 0.49462574053 
1.0172219679 1.0172219679 1.0172219679 1.0172219679 1.2156949949 1.271087727 1.3676273807 1.5707963268 2.1243706857 
1.3676273807 1.447813335 1.5707963268 1.7739652728 2.1243706857 2.6469669131 1.4827341049 1.5707963268 1.6937793186 
1.8705049266 2.1243706857 2.4613776767 2.8286213739 1.5707963268 1.6588585487 1.7739652728 1.9258976586 2.1243706857 
2.3709992258 2.6469669131 2.9144344902 1.7563855631 1.8785697967 1.8563003522 2.0024758186 1.9913306621 1.9779583789 
2.1243706857 2.1243706857 2.1243706857 2.1243706857 2.2408671392 2.2510113037 2.2630782103 2.2776669786 2.295651703 
2.3494282469 2.3680303173 2.3899057108 2.4159740166 2.4475202889 2.486385773 2.448570738 2.4736848652 2.5028148801 
2.5369440334 2.5773755784 2.6258554882 2.6847397011 2.5377803997 2.5675431237 2.6015718084 2.6407557529 2.6862098746 
2.7393287203 2.8018393335 2.8758309421 1.6743954455 1.6743954455 1.7840462375 1.6743954455 1.7840462375 1.8974821136 
1.6743954455 1.7840462375 1.8974821136 2.0119052671 1.6743954455 1.7840462375 1.8974821136 2.0119052671 2.1243706857 
1.6743954455 1.7840462375 1.8974821136 2.0119052671 2.1243706857 2.232221744 1.6743954455 1.7840462375 1.8974821136 
2.0119052671 2.1243706857 2.232221744 2.3334263672 1.6743954455 1.7840462375 1.8974821136 2.0119052671 2.1243706857 
2.232221744 2.3334263672 2.426721652 1.4671972081 1.3575464161 1.4671972081 1.24411054 1.3575464161 1.4671972081 
1.1296873865 1.24411054 1.3575464161 1.4671972081 1.0172219679 1.1296873865 1.24411054 1.3575464161 1.4671972081 
0.90937090954 1.0172219679 1.1296873865 1.24411054 1.3575464161 1.4671972081 0.80816628637 0.90937090954 1.0172219679 
1.1296873865 1.24411054 1.3575464161 1.4671972081 0.71487100155 0.80816628637 0.90937090954 1.0172219679 1.1296873865 
1.24411054 1.3575464161 1.4671972081 0.60381225391 0.57404952988 0.69302191562 0.54002084522 0.66790778838 0.79216440667 
0.50083690068 0.63877777351 0.77356233629 0.90072551443 0.45538277901 0.60464862014 0.75168694275 0.89058134991 1.0172219679 
0.40226393329 0.56421707518 0.72561863695 0.87851444325 1.0172219679 1.139116835 0.33975332011 0.51573716537 0.69407236469 
0.86392567495 1.0172219679 1.1502619915 1.2630228569 0.26576171152 0.45685295248 0.6552068806 0.84594095064 1.0172219679 
1.1636342747 1.2852923014 1.3852070904 0.22715816343 0.3129712797 0.49462574053 0.49462574053 0.68021497688 0.77059342779 
1.0172219679 1.0172219679 1.0172219679 1.0172219679 2.1243706857 1.5707963268 1.3676273807 1.271087727 1.2156949949 
2.6469669131 2.1243706857 1.7739652728 1.5707963268 1.447813335 1.3676273807 2.8286213739 2.4613776767 2.1243706857 
1.8705049266 1.6937793186 1.5707963268 1.4827341049 2.9144344902 2.6469669131 2.3709992258 2.1243706857 1.9258976586 
1.7739652728 1.6588585487 1.5707963268 1.7563855631 1.8563003522 1.8785697967 1.9779583789 1.9913306621 2.0024758186 
2.1243706857 2.1243706857 2.1243706857 2.1243706857 2.295651703 2.2776669786 2.2630782103 2.2510113037 2.2408671392 
2.486385773 2.4475202889 2.4159740166 2.3899057108 2.3680303173 2.3494282469 2.6847397011 2.6258554882 2.5773755784 
2.5369440334 2.5028148801 2.4736848652 2.448570738 2.8758309421 2.8018393335 2.7393287203 2.6862098746 2.6407557529 
2.6015718084 2.5675431237 2.5377803997 5.8604937156 5.901393709 5.9723133995 5.9473927383 6.0216547488 6.0927478736 
5.9992719463 6.0767621038 6.1501452836 6.2190157008 6.0578962336 6.1383094565 6.2134963469 0 0.064169606361 
6.1241815303 6.206940195 6.2831853072 0.069688960264 0.13304002361 0.19043743361 6.1990255847 0 0.07624511221 
0.14487585072 0.20642320337 0.26153055843 0.3108719077 0 0.084159722458 0.15900377685 0.22528907359 0.28391336087 
0.3357925689 0.38179159818 0.42269159155 5.8604937156 5.9723133995 5.901393709 6.0927478736 6.0216547488 5.9473927383 
6.2190157008 6.1501452836 6.0767621038 5.9992719463 0.064169606361 0 6.2134963469 6.1383094565 6.0578962336 
0.19043743361 0.13304002361 0.069688960264 6.2831853072 6.206940195 6.1241815303 0.3108719077 0.26153055843 0.20642320337 
0.14487585072 0.07624511221 6.2831853072 6.1990255847 0.42269159155 0.38179159818 0.3357925689 0.28391336087 0.22528907359 
0.15900377685 0.084159722458 0 5.6793730533 5.7091357773 5.5901633916 5.743164462 5.6152775188 5.4910209005 
5.7823484065 5.6444075337 5.5096229709 5.3824597928 5.8278025282 5.678536687 5.5314983644 5.3926039573 5.2659633393 
5.8809213739 5.718968232 5.5575666702 5.4046708639 5.2659633393 5.1440684722 5.9434319871 5.7674481418 5.5891129425 
5.4192596322 5.2659633393 5.1329233157 5.0201624502 6.0174235957 5.8263323547 5.6279784266 5.4372443565 5.2659633393 
5.1195510325 4.9978930058 4.8979782167 1.3852070904 1.2852923014 1.2630228569 1.1636342747 1.1502619915 1.139116835 
1.0172219679 1.0172219679 1.0172219679 1.0172219679 0.84594095064 0.86392567495 0.87851444325 0.89058134991 0.90072551443 
0.6552068806 0.69407236469 0.72561863695 0.75168694275 0.77356233629 0.79216440667 0.45685295248 0.51573716537 0.56421707518 
0.60464862014 0.63877777351 0.66790778838 0.69302191562 0.26576171152 0.33975332011 0.40226393329 0.45538277901 0.50083690068 
0.54002084522 0.57404952988 0.60381225391 
_paraPhiHalf 1 1002 double
0 3.1415926536 0 3.1415926536 1.5707963268 1.5707963268 1.5707963268 1.5707963268 2.5880182947 
0.5535743589 2.5880182947 0.5535743589 0 0 0 0 3.1415926536 3.1415926536 
3.1415926536 3.1415926536 3.1415926536 0.17788134 0.38438696014 0.60631181711 0.82323535693 1.0172219679 1.1799687454 
1.3118704726 1.4175000338 1.5022335207 0.17788134 0.38438696014 0.60631181711 0.82323535693 1.0172219679 1.1799687454 
1.3118704726 1.4175000338 1.5022335207 0.093902416448 0.17615329733 0.2478725152 0.31035131605 0.36486382811 0.41257334776 
0.45449736604 0.4915044461 0.52432611754 0.093902416448 0.17615329733 0.2478725152 0.31035131605 0.36486382811 0.41257334776 
0.45449736604 0.4915044461 0.52432611754 2.9637113136 2.7572056934 2.5352808365 2.3183572967 2.1243706857 1.9616239082 
1.829722181 1.7240926197 1.6393591329 2.9637113136 2.7572056934 2.5352808365 2.3183572967 2.1243706857 1.9616239082 
1.829722181 1.7240926197 1.6393591329 3.0476902371 2.9654393563 2.8937201384 2.8312413375 2.7767288255 2.7290193058 
2.6870952876 2.6500882075 2.617266536 3.0476902371 2.9654393563 2.8937201384 2.8312413375 2.7767288255 2.7290193058 
2.6870952876 2.6500882075 2.617266536 0 0 0 0 3.1415926536 3.1415926536 
3.1415926536 3.1415926536 3.1415926536 0.17788134 0.38438696014 0.60631181711 0.82323535693 1.0172219679 1.1799687454 
1.3118704726 1.4175000338 1.5022335207 0.17788134 0.38438696014 0.60631181711 0.82323535693 1.0172219679 1.1799687454 
1.3118704726 1.4175000338 1.5022335207 0.093902416448 0.17615329733 0.2478725152 0.31035131605 0.36486382811 0.41257334776 
0.45449736604 0.4915044461 0.52432611754 0.093902416448 0.17615329733 0.2478725152 0.31035131605 0.36486382811 0.41257334776 
0.45449736604 0.4915044461 0.52432611754 2.9637113136 2.7572056934 2.5352808365 2.3183572967 2.1243706857 1.9616239082 
1.829722181 1.7240926197 1.6393591329 2.9637113136 2.7572056934 2.5352808365 2.3183572967 2.1243706857 1.9616239082 
1.829722181 1.7240926197 1.6393591329 3.0476902371 2.9654393563 2.8937201384 2.8312413375 2.7767288255 2.7290193058 
2.6870952876 2.6500882075 2.617266536 3.0476902371 2.9654393563 2.8937201384 2.8312413375 2.7767288255 2.7290193058 
2.6870952876 2.6500882075 2.617266536 1.5707963268 1.5707963268 1.5707963268 1.5707963268 1.5707963268 1.5707963268 
1.5707963268 1.5707963268 1.5707963268 1.6743954455 1.7840462375 1.8974821136 2.0119052671 2.1243706857 2.232221744 
2.3334263672 2.426721652 2.5115728246 1.4671972081 1.3575464161 1.24411054 1.1296873865 1.0172219679 0.90937090954 
0.80816628637 0.71487100155 0.63001982895 1.6743954455 1.7840462375 1.8974821136 2.0119052671 2.1243706857 2.232221744 
2.3334263672 2.426721652 2.5115728246 1.4671972081 1.3575464161 1.24411054 1.1296873865 1.0172219679 0.90937090954 
0.80816628637 0.71487100155 0.63001982895 1.5707963268 1.5707963268 1.5707963268 1.5707963268 1.5707963268 1.5707963268 
1.5707963268 1.5707963268 1.5707963268 1.6743954455 1.7840462375 1.8974821136 2.0119052671 2.1243706857 2.232221744 
2.3334263672 2.426721652 2.5115728246 1.4671972081 1.3575464161 1.24411054 1.1296873865 1.0172219679 0.90937090954 
0.80816628637 0.71487100155 0.63001982895 1.6743954455 1.7840462375 1.8974821136 2.0119052671 2.1243706857 2.232221744 
2.3334263672 2.426721652 2.5115728246 1.4671972081 1.3575464161 1.24411054 1.1296873865 1.0172219679 0.90937090954 
0.80816628637 0.71487100155 0.63001982895 2.6824132222 2.7864913217 2.8992382033 3.0186096618 3.1415926536 3.0186096618 
2.8992382033 2.7864913217 2.6824132222 0.45917943135 0.35510133185 0.2423544503 0.12298299178 0 0.12298299178 
0.2423544503 0.35510133185 0.45917943135 0.22715816343 0.49462574053 0.3129712797 0.77059342779 0.68021497688 0.49462574053 
1.0172219679 1.0172219679 1.0172219679 1.0172219679 1.2156949949 1.271087727 1.3676273807 1.5707963268 2.1243706857 
1.3676273807 1.447813335 1.5707963268 1.7739652728 2.1243706857 2.6469669131 1.4827341049 1.5707963268 1.6937793186 
1.8705049266 2.1243706857 2.4613776767 2.8286213739 1.5707963268 1.6588585487 1.7739652728 1.9258976586 2.1243706857 
2.3709992258 2.6469669131 2.9144344902 0.26576171152 0.33975332011 0.45685295248 0.40226393329 0.51573716537 0.6552068806 
0.45538277901 0.56421707518 0.69407236469 0.84594095064 0.50083690068 0.60464862014 0.72561863695 0.86392567495 1.0172219679 
0.54002084522 0.63877777351 0.75168694275 0.87851444325 1.0172219679 1.1636342747 0.57404952988 0.66790778838 0.77356233629 
0.89058134991 1.0172219679 1.1502619915 1.2852923014 0.60381225391 0.69302191562 0.79216440667 0.90072551443 1.0172219679 
1.139116835 1.2630228569 1.3852070904 0.71487100155 0.80816628637 0.80816628637 0.90937090954 0.90937090954 0.90937090954 
1.0172219679 1.0172219679 1.0172219679 1.0172219679 1.1296873865 1.1296873865 1.1296873865 1.1296873865 1.1296873865 
1.24411054 1.24411054 1.24411054 1.24411054 1.24411054 1.24411054 1.3575464161 1.3575464161 1.3575464161 
1.3575464161 1.3575464161 1.3575464161 1.3575464161 1.4671972081 1.4671972081 1.4671972081 1.4671972081 1.4671972081 
1.4671972081 1.4671972081 1.4671972081 1.6743954455 1.6743954455 1.7840462375 1.6743954455 1.7840462375 1.8974821136 
1.6743954455 1.7840462375 1.8974821136 2.0119052671 1.6743954455 1.7840462375 1.8974821136 2.0119052671 2.1243706857 
1.6743954455 1.7840462375 1.8974821136 2.0119052671 2.1243706857 2.232221744 1.6743954455 1.7840462375 1.8974821136 
2.0119052671 2.1243706857 2.232221744 2.3334263672 1.6743954455 1.7840462375 1.8974821136 2.0119052671 2.1243706857 
2.232221744 2.3334263672 2.426721652 1.7563855631 1.8785697967 1.8563003522 2.0024758186 1.9913306621 1.9779583789 
2.1243706857 2.1243706857 2.1243706857 2.1243706857 2.2408671392 2.2510113037 2.2630782103 2.2776669786 2.295651703 
2.3494282469 2.3680303173 2.3899057108 2.4159740166 2.4475202889 2.486385773 2.448570738 2.4736848652 2.5028148801 
2.5369440334 2.5773755784 2.6258554882 2.6847397011 2.5377803997 2.5675431237 2.6015718084 2.6407557529 2.6862098746 
2.7393287203 2.8018393335 2.8758309421 2.718901062 2.8307207459 2.7598010554 2.95115522 2.8800620952 2.8058000847 
3.0774230472 3.00855263 2.9351694502 2.8576792927 3.0774230472 3.1415926536 3.0719036933 2.9967168029 2.91630358 
2.95115522 3.00855263 3.0719036933 3.1415926536 3.0653475414 2.9825888767 2.8307207459 2.8800620952 2.9351694502 
2.9967168029 3.0653475414 3.1415926536 3.0574329311 2.718901062 2.7598010554 2.8058000847 2.8576792927 2.91630358 
2.9825888767 3.0574329311 3.1415926536 2.718901062 2.7598010554 2.8307207459 2.8058000847 2.8800620952 2.95115522 
2.8576792927 2.9351694502 3.00855263 3.0774230472 2.91630358 2.9967168029 3.0719036933 3.1415926536 3.0774230472 
2.9825888767 3.0653475414 3.1415926536 3.0719036933 3.00855263 2.95115522 3.0574329311 3.1415926536 3.0653475414 