# vtk DataFile Version 5.1
vtk output
ASCII
DATASET POLYDATA
POINTS 100 float
0.410354 0.916849 0.771363 0.410001 0.916018 0.770079 0.408966 0.913772 0.766048 
0.407218 0.910176 0.759418 0.404709 0.905327 0.750428 0.401379 0.899334 0.739392 
0.397165 0.892309 0.726679 0.392009 0.88434 0.712689 0.385866 0.875486 0.697831 
0.378715 0.865766 0.682494 0.37056 0.855151 0.667031 0.361439 0.843577 0.651731 
0.351418 0.83095 0.636815 0.340596 0.817166 0.622421 0.329092 0.802134 0.608604 
0.317039 0.785788 0.595343 0.304578 0.768116 0.582547 0.291839 0.749166 0.57007 
0.278936 0.729054 0.557731 0.265954 0.707966 0.545328 0.25294 0.686144 0.532659 
0.239899 0.663872 0.519538 0.226794 0.641455 0.505802 0.213547 0.619191 0.491326 
0.200045 0.597352 0.476021 0.18615 0.576159 0.459835 0.171713 0.555764 0.44275 
0.15659 0.536247 0.424769 0.140652 0.517606 0.405913 0.123807 0.499767 0.386212 
0.106005 0.482593 0.365696 0.0872531 0.465898 0.344393 0.0676192 0.449461 0.322332 
0.0472335 0.433048 0.299543 0.0262857 0.41642 0.276068 0.00501715 0.399346 0.251963 
-0.0162899 0.381607 0.227315 -0.0373266 0.363002 0.202248 -0.0577726 0.343343 0.176923 
-0.0773127 0.32246 0.151547 -0.0956519 0.300191 0.126364 -0.112529 0.276391 0.101644 
-0.127727 0.250929 0.0776717 -0.141082 0.223703 0.0547269 -0.152485 0.19464 0.0330609 
-0.161884 0.163719 0.0128777 -0.169281 0.130977 -0.00568544 -0.174725 0.0965243 -0.022572 
-0.178307 0.0605484 -0.0378138 -0.180148 0.023318 -0.051531 -0.180395 -0.0148244 -0.0639239 
-0.179207 -0.0534765 -0.075257 -0.176751 -0.0921973 -0.0858378 -0.173198 -0.130534 -0.0959902 
-0.168713 -0.168053 -0.106028 -0.163454 -0.204368 -0.116229 -0.157573 -0.239168 -0.126815 
-0.151212 -0.272239 -0.137932 -0.144503 -0.303474 -0.149651 -0.13757 -0.332877 -0.16196 
-0.130526 -0.360548 -0.174782 -0.123475 -0.386673 -0.187985 -0.116512 -0.411492 -0.201404 
-0.10972 -0.435273 -0.214866 -0.10317 -0.458278 -0.228206 -0.0969204 -0.480742 -0.241292 
-0.091018 -0.502847 -0.254032 -0.0854952 -0.524711 -0.266382 -0.0803726 -0.546392 -0.278343 
-0.0756597 -0.567887 -0.289957 -0.0713575 -0.589154 -0.30129 -0.0674608 -0.61013 -0.312419 
-0.0639613 -0.630755 -0.323412 -0.0608505 -0.650994 -0.334318 -0.0581223 -0.670851 -0.345156 
-0.0557747 -0.690376 -0.355906 -0.0538114 -0.709671 -0.36652 -0.0522414 -0.72887 -0.37692 
-0.0510781 -0.748127 -0.387017 -0.0503377 -0.767592 -0.396727 -0.0500361 -0.787379 -0.405985 
-0.0501862 -0.807548 -0.414758 -0.0507944 -0.828081 -0.423057 -0.0518576 -0.848873 -0.430943 
-0.0533609 -0.86973 -0.438516 -0.0552758 -0.890382 -0.445908 -0.0575596 -0.910502 -0.45327 
-0.0601557 -0.929733 -0.460741 -0.0629951 -0.947725 -0.468435 -0.0659984 -0.964162 -0.476413 
-0.0690789 -0.978797 -0.484671 -0.0721457 -0.991472 -0.493125 -0.0751071 -1.00213 -0.501615 
-0.0778745 -1.0108 -0.509908 -0.0803647 -1.01761 -0.51772 -0.0825033 -1.02275 -0.524734 
-0.0842269 -1.02643 -0.530634 -0.0854845 -1.02886 -0.535132 -0.0862391 -1.03022 -0.537998 
-0.0864687 -1.03064 -0.53908 
LINES 2 100
OFFSETS vtktypeint64
0 100 
CONNECTIVITY vtktypeint64
0 1 2 3 4 5 6 7 8 
9 10 11 12 13 14 15 16 17 
18 19 20 21 22 23 24 25 26 
27 28 29 30 31 32 33 34 35 
36 37 38 39 40 41 42 43 44 
45 46 47 48 49 50 51 52 53 
54 55 56 57 58 59 60 61 62 
63 64 65 66 67 68 69 70 71 
72 73 74 75 76 77 78 79 80 
81 82 83 84 85 86 87 88 89 
90 91 92 93 94 95 96 97 98 
99 
POINT_DATA 100
FIELD FieldData 3
_theta 1 100 double
0 0.031733259127 0.063466518254 0.095199777382 0.12693303651 0.15866629564 0.19039955476 0.22213281389 0.25386607302 
0.28559933214 0.31733259127 0.3490658504 0.38079910953 0.41253236865 0.44426562778 0.47599888691 0.50773214603 0.53946540516 
0.57119866429 0.60293192342 0.63466518254 0.66639844167 0.6981317008 0.72986495992 0.76159821905 0.79333147818 0.82506473731 
0.85679799643 0.88853125556 0.92026451469 0.95199777382 0.98373103294 1.0154642921 1.0471975512 1.0789308103 1.1106640695 
1.1423973286 1.1741305877 1.2058638468 1.237597106 1.2693303651 1.3010636242 1.3327968833 1.3645301425 1.3962634016 
1.4279966607 1.4597299198 1.491463179 1.5231964381 1.5549296972 1.5866629564 1.6183962155 1.6501294746 1.6818627337 
1.7135959929 1.745329252 1.7770625111 1.8087957702 1.8405290294 1.8722622885 1.9039955476 1.9357288068 1.9674620659 
1.999195325 2.0309285841 2.0626618433 2.0943951024 2.1261283615 2.1578616206 2.1895948798 2.2213281389 2.253061398 
2.2847946572 2.3165279163 2.3482611754 2.3799944345 2.4117276937 2.4434609528 2.4751942119 2.506927471 2.5386607302 
2.5703939893 2.6021272484 2.6338605076 2.6655937667 2.6973270258 2.7290602849 2.7607935441 2.7925268032 2.8242600623 
2.8559933214 2.8877265806 2.9194598397 2.9511930988 2.982926358 3.0146596171 3.0463928762 3.0781261353 3.1098593945 
3.1415926536 
_radius 1 100 double
1.7979101253e-15 0.017666968395 0.034951756386 0.051490517674 0.066981216525 0.081202994454 0.094025127941 0.10540779746 0.1153979517 
0.12412213998 0.13177517488 0.13860079769 0.14486071648 0.15079458496 0.15658517482 0.16234733506 0.16814287412 0.17400286143 
0.17993955543 0.18594472783 0.1919808517 0.19797315217 0.2038080923 0.20934033307 0.2144069372 0.21884555578 0.22251293796 
0.2253008812 0.22714782969 0.228045158 0.22803772286 0.22721882602 0.22572053108 0.2237011894 0.22133248174 0.21878762939 
0.21623097961 0.21380888867 0.21164419916 0.20983858704 0.20848339976 0.20767242406 0.20750756826 0.20809252846 0.20951508997 
0.21182307181 0.21500253876 0.21896840376 0.22357338685 0.22863217873 0.23395070923 0.23935076716 0.24468526681 0.2498440684 
0.25475238534 0.25936420723 0.26365306087 0.26760234181 0.27119723578 0.27441960855 0.27724614222 0.27964881425 0.28159613377 
0.28305374494 0.28398392945 0.28434458842 0.28408884319 0.28316626542 0.28152618797 0.27912297414 0.27592276612 0.27191103089 
0.26709995573 0.26153429826 0.25529387196 0.24849094748 0.24126186105 0.23375380615 0.22610927425 0.21845108493 0.21087031078 
0.20341828209 0.19610300129 0.18888991388 0.18170657519 0.17444990633 0.16699405667 0.15919736478 0.1509083368 0.14197174184 
0.13223618224 0.12156406216 0.10984407769 0.09700525566 0.083030385869 0.067965999603 0.051926371408 0.035090288798 0.017690888013 
1.1753301532e-15 
_area 1 100 double
0 0.0009621561752 0.0037814502128 0.0082587488619 0.014072265622 0.02079860663 0.027949324092 0.035023068927 0.041570714954 
0.047268043651 0.051983012863 0.055816070821 0.059090922235 0.062281665782 0.0658821377 0.070260885415 0.075582971074 0.081841203767 
0.088935899381 0.096728524649 0.10505777832 0.11373741605 0.12254913705 0.13123584976 0.13950371649 0.14704121519 0.15355135662 
0.15878049248 0.16252690902 0.16464047633 0.16504831145 0.16380328207 0.1611169016 0.15735899898 0.15302913963 0.1487033135 
0.14495100495 0.14222471476 0.14075663126 0.14051974163 0.14128255717 0.14273663714 0.14463415367 0.1468682854 0.14947695366 
0.15260007548 0.15643824735 0.1612159652 0.16702867537 0.17348387847 0.18018538792 0.18686863079 0.19336543656 0.19958984756 
0.20551743272 0.21115181861 0.21649064978 0.22150733832 0.22615637926 0.23039450753 0.23419290041 0.23751941185 0.24031622228 
0.24250905205 0.24401898618 0.24475884706 0.24462565364 0.24349566704 0.24123046495 0.2376968215 0.23279434591 0.22648166321 
0.21879444521 0.20985277919 0.19985773109 0.1890771667 0.17782149632 0.16641302675 0.15515584749 0.14431205522 0.1340841298 
0.12459815793 0.11588524232 0.10787038074 0.10038621152 0.093212526152 0.086119822429 0.078902333058 0.071403157642 0.063535356356 
0.055297252256 0.046778747663 0.038157721674 0.029687813348 0.021679464932 0.014475501468 0.0084220370895 0.003836150048 0.00097343847719 
1.1882519619e-16 
