# vtk DataFile Version 5.1
vtk output
ASCII
DATASET POLYDATA
POINTS 1002 float
-120.089 -98.1516 97.4968 -121.761 -121.853 87.1907 -120.566 -95.962 91.0435 
-118.369 -116.723 80.674 -128.096 -109.738 89.9162 -126.915 -106.884 86.2864 
-120.079 -109.224 89.1702 -118.544 -110.179 86.6897 -122.856 -125.365 81.0419 
-120.171 -92.3823 97.7333 -110.661 -124.363 84.1266 -109.467 -91.0003 99.0932 
-120.771 -99.5716 96.2826 -121.46 -101.318 94.9684 -122.215 -103.276 93.5421 
-122.941 -105.506 92.0619 -123.387 -108.289 90.7308 -123.416 -111.685 89.7426 
-123.149 -115.228 89.0682 -122.758 -118.281 88.501 -122.297 -120.483 87.8789 
-120.813 -98.6656 96.9325 -121.547 -99.2576 96.2458 -122.385 -99.9778 95.4213 
-123.389 -100.991 94.4603 -124.462 -102.392 93.4482 -125.431 -104.01 92.5083 
-126.233 -105.61 91.6869 -126.921 -107.122 90.977 -127.542 -108.528 90.3879 
-119.77 -98.4991 97.2235 -119.46 -99.011 96.8548 -119.283 -99.7229 96.3646 
-119.292 -100.594 95.6477 -119.401 -101.595 94.6764 -119.532 -102.76 93.5811 
-119.717 -104.094 92.4608 -119.954 -105.585 91.3043 -120.121 -107.289 90.1584 
-119.797 -97.2529 98.3449 -119.462 -96.4347 99.105 -119.259 -95.6609 99.7116 
-119.337 -94.835 100.196 -119.551 -93.8717 100.508 -119.605 -92.9302 100.44 
-119.504 -92.3766 99.9267 -119.51 -92.3051 99.1822 -119.759 -92.4059 98.4331 
-119.073 -97.1463 98.564 -117.773 -96.2682 99.5803 -116.249 -95.424 100.277 
-114.619 -94.3532 100.538 -112.927 -92.9789 100.618 -111.274 -91.6979 100.796 
-109.978 -91.0183 100.897 -109.314 -90.9587 100.583 -109.222 -91.0785 99.875 
-122.566 -121.201 87.415 -123.361 -120.217 87.6241 -124.112 -118.864 87.8285 
-124.828 -117.312 88.0584 -125.59 -115.854 88.388 -126.429 -114.588 88.8846 
-127.211 -113.387 89.4504 -127.754 -112.16 89.8497 -128.017 -110.934 89.9688 
-121.293 -121.743 87.4169 -120.779 -121.576 87.6934 -120.251 -121.16 87.9672 
-119.833 -120.327 88.1267 -119.678 -119.081 88.1254 -119.792 -117.454 88.095 
-120.004 -115.434 88.2062 -120.149 -113.184 88.4706 -120.174 -111.039 88.8026 
-121.68 -122.505 86.6128 -121.605 -123.101 85.9985 -121.576 -123.736 85.3612 
-121.635 -124.488 84.7497 -121.815 -125.247 84.2222 -122.111 -125.745 83.7215 
-122.443 -125.881 83.1005 -122.697 -125.808 82.3403 -122.824 -125.65 81.6009 
-120.783 -122.62 86.5462 -119.526 -123.061 85.8284 -118.032 -123.398 85.2133 
-116.463 -123.834 84.8672 -115.031 -124.327 84.8159 -113.814 -124.727 84.9325 
-112.731 -124.972 85.0123 -111.76 -125.024 84.8911 -111.033 -124.819 84.5565 
-121.042 -97.5527 90.0111 -121.486 -99.7136 88.8905 -121.769 -102.443 87.7007 
-121.77 -105.36 86.4643 -121.49 -108.067 85.1973 -121.003 -110.501 83.9812 
-120.373 -112.678 82.9358 -119.67 -114.451 82.0765 -118.981 -115.754 81.3315 
-121.116 -96.3033 90.4272 -121.787 -96.8957 89.7615 -122.566 -97.8566 89.1406 
-123.375 -99.2026 88.6356 -124.142 -100.787 88.2045 -124.862 -102.316 87.7585 
-125.54 -103.589 87.294 -126.131 -104.69 86.8748 -126.588 -105.788 86.54 
-120.361 -96.6182 90.9754 -120.139 -97.3341 90.8208 -119.879 -98.0481 90.5374 
-119.644 -98.9189 90.1127 -119.535 -100.245 89.6015 -119.545 -102.088 89.0813 
-119.539 -104.18 88.5473 -119.381 -106.26 87.9399 -119.038 -108.261 87.2818 
-120.412 -94.7773 91.7275 -120.277 -93.7058 92.5526 -120.149 -92.771 93.5328 
-119.99 -91.9015 94.56 -119.815 -91.1087 95.4932 -119.691 -90.6698 96.2902 
-119.655 -90.8389 96.9428 -119.707 -91.4405 97.3956 -119.874 -92.0393 97.6339 
-119.92 -94.9148 92.0733 -119.111 -93.6681 93.2408 -117.993 -92.1285 94.5681 
-116.457 -90.4936 95.9782 -114.585 -89.1584 97.2047 -112.671 -88.4596 97.9809 
-111.073 -88.525 98.3384 -110.024 -89.2043 98.5446 -109.537 -90.1373 98.7931 
-119.301 -116.513 80.9062 -120.284 -116.046 81.2615 -121.329 -115.24 81.7129 
-122.429 -114.102 82.2384 -123.501 -112.737 82.8356 -124.46 -111.299 83.4918 
-125.287 -109.922 84.1725 -125.982 -108.697 84.8666 -126.526 -107.686 85.5814 
-117.838 -116.331 80.9538 -117.402 -116.033 81.3972 -117.121 -115.808 81.9616 
-116.962 -115.481 82.5466 -116.854 -114.913 83.1169 -116.851 -114.208 83.7301 
-117.094 -113.532 84.4181 -117.584 -112.782 85.1529 -118.135 -111.688 85.913 
-118.419 -117.587 80.1861 -118.599 -118.501 79.7331 -118.964 -119.289 79.3181 
-119.579 -120.017 78.9743 -120.341 -121.066 78.8062 -120.991 -122.555 78.9099 
-121.443 -124.007 79.2668 -121.857 -124.926 79.7858 -122.347 -125.297 80.3938 
-117.397 -117.317 80.2347 -116.365 -118.04 79.9725 -115.423 -119.179 80.0426 
-114.61 -120.752 80.427 -113.758 -122.345 80.8669 -112.775 -123.514 81.1933 
-111.864 -124.175 81.5905 -111.234 -124.453 82.285 -110.864 -124.468 83.2081 
-128.463 -109.623 89.6111 -128.918 -109.333 89.3066 -129.401 -108.802 88.9289 
-129.69 -108.153 88.4205 -129.541 -107.699 87.8796 -128.978 -107.586 87.4695 
-128.292 -107.591 87.1908 -127.722 -107.443 86.9168 -127.29 -107.152 86.5974 
-128.489 -111.477 89.4725 -128.527 -113.037 88.7725 -128.14 -114.597 87.746 
-127.544 -116.459 86.548 -126.922 -118.615 85.3818 -126.193 -120.732 84.2998 
-125.318 -122.535 83.2996 -124.441 -123.905 82.4258 -123.637 -124.821 81.6876 
-127.728 -107.664 90.1461 -127.307 -105.214 90.66 -126.919 -102.648 91.6054 
-126.418 -100.215 92.7519 -125.592 -97.9288 93.7496 -124.497 -95.7713 94.5794 
-123.369 -94.0298 95.4211 -122.295 -93.0095 96.2895 -121.227 -92.594 97.0786 
-126.938 -108.419 85.6138 -126.873 -110.098 84.8761 -126.752 -112.02 84.0652 
-126.516 -114.159 83.2251 -126.019 -116.411 82.4989 -125.258 -118.731 81.9821 
-124.461 -121.025 81.6004 -123.824 -123.028 81.2771 -123.328 -124.487 81.0668 
-126.994 -105.339 87.1211 -126.914 -103.286 87.9478 -126.702 -100.79 88.7412 
-126.35 -98.4612 89.6215 -125.687 -96.7872 90.7804 -124.625 -95.4364 92.2306 
-123.407 -94.0297 93.7763 -122.287 -92.913 95.2465 -121.242 -92.4465 96.5792 
-119.892 -109.527 88.8768 -119.693 -109.968 88.6288 -119.408 -110.48 88.4696 
-119.04 -110.939 88.3458 -118.685 -111.223 88.1423 -118.437 -111.249 87.8134 
-118.317 -111.017 87.4339 -118.312 -110.662 87.1065 -118.4 -110.358 86.8672 
-119.589 -112.608 88.2543 -118.199 -116.16 87.8651 -116.275 -118.917 88.0141 
-114.516 -120.636 88.3669 -113.123 -121.944 88.4601 -111.8 -123.067 88.0508 
-110.65 -123.591 87.2155 -110.127 -123.613 86.1785 -110.262 -123.778 85.121 
-119.733 -106.488 90.3262 -118.902 -104.2 91.8799 -117.935 -102.179 93.5812 
-117.005 -99.8758 95.1685 -115.829 -97.2286 96.5734 -114.187 -94.9573 97.7472 
-112.423 -93.5841 98.5057 -111.017 -92.7821 98.8134 -110.075 -91.9807 98.9248 
-117.517 -112.933 85.8111 -116.051 -115.12 85.3248 -114.558 -116.601 85.2241 
-113.387 -117.708 85.1929 -112.494 -118.828 85.0135 -111.655 -119.979 84.8137 
-110.886 -121.055 84.6964 -110.409 -122.129 84.5499 -110.353 -123.27 84.3271 
-118.877 -106.933 87.948 -118.486 -103.351 89.4053 -117.641 -100.427 90.9011 
-116.911 -98.4183 92.4965 -116.268 -96.4531 94.317 -115.067 -94.0819 96.0765 
-113.234 -92.1676 97.2666 -111.471 -91.3881 97.8715 -110.25 -91.2514 98.3648 
-121.933 -125.873 80.7307 -120.727 -126.136 80.4906 -119.353 -126.171 80.3949 
-117.913 -125.997 80.5717 -116.279 -125.872 81.0719 -114.466 -126.159 81.7272 
-112.913 -126.591 82.3265 -111.899 -126.431 82.8672 -111.227 -125.514 83.4596 
-118.716 -92.0914 98.7161 -117.089 -91.2269 99.5374 -115.519 -89.7614 100.108 
-113.894 -88.4297 100.579 -111.841 -87.8652 101.199 -109.666 -87.843 101.798 
-108.349 -88.0877 101.808 -108.238 -88.7999 101.039 -108.784 -89.9303 99.9556 
-121.505 -100.243 95.6707 -122.293 -101.004 94.945 -122.221 -102.141 94.2793 
-123.211 -101.957 94.0626 -123.051 -103.145 93.5028 -122.959 -104.348 92.8151 
-124.239 -103.289 93.0869 -123.984 -104.487 92.6512 -123.735 -105.777 92.1052 
-123.559 -107.009 91.4408 -125.232 -104.986 92.2188 -124.954 -106.226 91.8708 
-124.572 -107.596 91.457 -124.173 -108.897 90.9258 -123.817 -110.19 90.3056 
-126.095 -106.767 91.5635 -125.852 -108.106 91.3115 -125.423 -109.545 90.9401 
-124.845 -110.913 90.4704 -124.266 -112.204 89.931 -123.725 -113.613 89.4269 
-126.844 -108.392 91.0204 -126.632 -109.78 90.8857 -126.185 -111.219 90.518 
-125.516 -112.612 90.0165 -124.777 -113.951 89.502 -124.089 -115.333 89.053 
-123.435 -116.808 88.7217 -127.493 -109.793 90.487 -127.274 -111.124 90.4072 
-126.786 -112.466 90.0376 -126.056 -113.783 89.4941 -125.248 -115.137 88.9818 
-124.489 -116.59 88.5877 -123.772 -118.06 88.298 -123.046 -119.391 88.0765 
-120.583 -97.6795 97.6557 -120.376 -96.766 98.2485 -121.403 -98.2147 96.808 
-120.384 -95.9127 98.756 -121.353 -97.2689 97.2437 -122.371 -98.9976 95.8591 
-120.642 -95.0074 99.2453 -121.523 -96.3806 97.6703 -122.466 -98.1559 96.2213 
-123.519 -100.196 94.8391 -120.888 -93.9973 99.5199 -121.812 -95.3854 98.0648 
-122.674 -97.291 96.5581 -123.704 -99.4949 95.1638 -124.687 -101.716 93.7566 
-120.927 -93.1223 99.2868 -121.993 -94.3012 98.1202 -122.868 -96.2224 96.7184 
-123.886 -98.6249 95.3565 -124.916 -100.994 93.9707 -125.678 -103.261 92.6428 
-120.9 -92.6705 98.61 -122.057 -93.4524 97.68 -123.006 -95.1215 96.5048 
-124.038 -97.5266 95.2966 -125.113 -100.038 94.0271 -125.917 -102.383 92.6859 
-126.452 -104.733 91.5966 -120.997 -92.5818 97.8111 -122.143 -93.0587 96.9799 
-123.17 -94.3516 95.9971 -124.237 -96.486 94.9964 -125.323 -98.9359 93.9416 
-126.152 -101.332 92.7131 -126.671 -103.748 91.5264 -127.105 -106.217 90.7489 
-122.248 -92.9573 95.8129 -123.358 -93.8843 94.4255 -123.374 -93.8447 94.9635 
-124.631 -95.2127 92.917 -124.663 -95.1085 93.578 -124.636 -95.2661 94.1397 
-125.848 -96.549 91.3727 -125.975 -96.4181 92.0911 -126.011 -96.5818 92.8324 
-125.864 -97.1175 93.4068 -126.658 -98.1632 90.0339 -126.914 -97.9217 90.6159 
-127.073 -97.9465 91.4116 -127.028 -98.4351 92.1689 -126.762 -99.2769 92.6052 
-127.058 -100.558 89.0391 -127.401 -100.273 89.4001 -127.688 -100.037 90.0073 
-127.795 -100.209 90.793 -127.628 -100.9 91.3779 -127.279 -101.811 91.5802 
-127.276 -103.304 88.2417 -127.677 -103.232 88.4948 -128.103 -102.962 88.8533 
-128.41 -102.803 89.4522 -128.405 -103.146 90.0953 -128.091 -103.89 90.4617 
[...]
POINT_DATA 1002
FIELD FieldData 4
_paraPhi 1 1002 double
6.2831853072 3.1415926536 6.2831853072 3.1415926536 4.7123889804 4.7123889804 1.5707963268 1.5707963268 3.6951670125 
5.7296109483 2.5880182947 0.5535743589 6.2831853072 6.2831853072 6.2831853072 6.2831853072 3.1415926536 3.1415926536 
3.1415926536 3.1415926536 3.1415926536 6.1053039672 5.898798347 5.6768734901 5.4599499503 5.2659633393 5.1032165617 
4.9713148346 4.8656852733 4.7809517865 0.17788134 0.38438696014 0.60631181711 0.82323535693 1.0172219679 1.1799687454 
1.3118704726 1.4175000338 1.5022335207 6.1892828907 6.1070320098 6.035312792 5.9728339911 5.9183214791 5.8706119594 
5.8286879411 5.7916808611 5.7588591896 0.093902416448 0.17615329733 0.2478725152 0.31035131605 0.36486382811 0.41257334776 
0.45449736604 0.4915044461 0.52432611754 3.3194739936 3.5259796137 3.7479044707 3.9648280105 4.1588146215 4.321561399 
4.4534631262 4.5590926874 4.6438261743 2.9637113136 2.7572056934 2.5352808365 2.3183572967 2.1243706857 1.9616239082 
1.829722181 1.7240926197 1.6393591329 3.23549507 3.3177459509 3.3894651688 3.4519439696 3.5064564817 3.5541660013 
3.5960900196 3.6330970997 3.6659187711 3.0476902371 2.9654393563 2.8937201384 2.8312413375 2.7767288255 2.7290193058 
2.6870952876 2.6500882075 2.617266536 6.2831853072 6.2831853072 6.2831853072 6.2831853072 3.1415926536 3.1415926536 
3.1415926536 3.1415926536 3.1415926536 6.1053039672 5.898798347 5.6768734901 5.4599499503 5.2659633393 5.1032165617 
4.9713148346 4.8656852733 4.7809517865 0.17788134 0.38438696014 0.60631181711 0.82323535693 1.0172219679 1.1799687454 
1.3118704726 1.4175000338 1.5022335207 6.1892828907 6.1070320098 6.035312792 5.9728339911 5.9183214791 5.8706119594 
5.8286879411 5.7916808611 5.7588591896 0.093902416448 0.17615329733 0.2478725152 0.31035131605 0.36486382811 0.41257334776 
0.45449736604 0.4915044461 0.52432611754 3.3194739936 3.5259796137 3.7479044707 3.9648280105 4.1588146215 4.321561399 
4.4534631262 4.5590926874 4.6438261743 2.9637113136 2.7572056934 2.5352808365 2.3183572967 2.1243706857 1.9616239082 
1.829722181 1.7240926197 1.6393591329 3.23549507 3.3177459509 3.3894651688 3.4519439696 3.5064564817 3.5541660013 
3.5960900196 3.6330970997 3.6659187711 3.0476902371 2.9654393563 2.8937201384 2.8312413375 2.7767288255 2.7290193058 
2.6870952876 2.6500882075 2.617266536 4.7123889804 4.7123889804 4.7123889804 4.7123889804 4.7123889804 4.7123889804 
4.7123889804 4.7123889804 4.7123889804 4.6087898617 4.4991390697 4.3857031936 4.2712800401 4.1588146215 4.0509635631 
3.94975894 3.8564636551 3.7716124825 4.8159880991 4.9256388911 5.0390747672 5.1534979207 5.2659633393 5.3738143976 
5.4750190208 5.5683143056 5.6531654782 4.6087898617 4.4991390697 4.3857031936 4.2712800401 4.1588146215 4.0509635631 
3.94975894 3.8564636551 3.7716124825 4.8159880991 4.9256388911 5.0390747672 5.1534979207 5.2659633393 5.3738143976 
5.4750190208 5.5683143056 5.6531654782 1.5707963268 1.5707963268 1.5707963268 1.5707963268 1.5707963268 1.5707963268 
1.5707963268 1.5707963268 1.5707963268 1.6743954455 1.7840462375 1.8974821136 2.0119052671 2.1243706857 2.232221744 
2.3334263672 2.426721652 2.5115728246 1.4671972081 1.3575464161 1.24411054 1.1296873865 1.0172219679 0.90937090954 
0.80816628637 0.71487100155 0.63001982895 1.6743954455 1.7840462375 1.8974821136 2.0119052671 2.1243706857 2.232221744 
2.3334263672 2.426721652 2.5115728246 1.4671972081 1.3575464161 1.24411054 1.1296873865 1.0172219679 0.90937090954 
0.80816628637 0.71487100155 0.63001982895 3.6007720849 3.4966939854 3.3839471039 3.2645756454 3.1415926536 3.0186096618 
2.8992382033 2.7864913217 2.6824132222 5.8240058758 5.9280839753 6.0408308569 6.1602023154 6.2831853072 0.12298299178 
0.2423544503 0.35510133185 0.45917943135 6.0560271438 5.7885595667 5.9702140275 5.5125918794 5.6029703303 5.7885595667 
5.2659633393 5.2659633393 5.2659633393 5.2659633393 5.0674903122 5.0120975802 4.9155579264 4.7123889804 4.1588146215 
4.9155579264 4.8353719722 4.7123889804 4.5092200343 4.1588146215 3.6362183941 4.8004512023 4.7123889804 4.5894059886 
4.4126803806 4.1588146215 3.8218076305 3.4545639333 4.7123889804 4.6243267584 4.5092200343 4.3572876485 4.1588146215 
3.9121860814 3.6362183941 3.368750817 6.0174235957 5.9434319871 5.8263323547 5.8809213739 5.7674481418 5.6279784266 
5.8278025282 5.718968232 5.5891129425 5.4372443565 5.7823484065 5.678536687 5.5575666702 5.4192596322 5.2659633393 
5.743164462 5.6444075337 5.5314983644 5.4046708639 5.2659633393 5.1195510325 5.7091357773 5.6152775188 5.5096229709 
5.3926039573 5.2659633393 5.1329233157 4.9978930058 5.6793730533 5.5901633916 5.4910209005 5.3824597928 5.2659633393 
5.1440684722 5.0201624502 4.8979782167 5.5683143056 5.4750190208 5.4750190208 5.3738143976 5.3738143976 5.3738143976 
5.2659633393 5.2659633393 5.2659633393 5.2659633393 5.1534979207 5.1534979207 5.1534979207 5.1534979207 5.1534979207 
5.0390747672 5.0390747672 5.0390747672 5.0390747672 5.0390747672 5.0390747672 4.9256388911 4.9256388911 4.9256388911 
4.9256388911 4.9256388911 4.9256388911 4.9256388911 4.8159880991 4.8159880991 4.8159880991 4.8159880991 4.8159880991 
4.8159880991 4.8159880991 4.8159880991 4.6087898617 4.6087898617 4.4991390697 4.6087898617 4.4991390697 4.3857031936 
4.6087898617 4.4991390697 4.3857031936 4.2712800401 4.6087898617 4.4991390697 4.3857031936 4.2712800401 4.1588146215 
4.6087898617 4.4991390697 4.3857031936 4.2712800401 4.1588146215 4.0509635631 4.6087898617 4.4991390697 4.3857031936 
4.2712800401 4.1588146215 4.0509635631 3.94975894 4.6087898617 4.4991390697 4.3857031936 4.2712800401 4.1588146215 
4.0509635631 3.94975894 3.8564636551 4.526799744 4.4046155105 4.426884955 4.2807094886 4.2918546451 4.3052269283 
4.1588146215 4.1588146215 4.1588146215 4.1588146215 4.042318168 4.0321740035 4.0201070968 4.0055183285 3.9875336042 
3.9337570603 3.9151549899 3.8932795963 3.8672112905 3.8356650183 3.7967995342 3.8346145692 3.809500442 3.7803704271 
3.7462412737 3.7058097288 3.657329819 3.5984456061 3.7454049075 3.7156421835 3.6816134988 3.6424295543 3.5969754326 
3.5438565869 3.4813459737 3.4073543651 3.5642842451 3.4524645613 3.5233842518 3.3320300872 3.403123212 3.4773852225 
3.20576226 3.2746326772 3.348015857 3.4255060145 3.0774230472 3.1415926536 3.2112816139 3.2864685043 3.3668817272 
2.95115522 3.00855263 3.0719036933 3.1415926536 3.2178377658 3.3005964304 2.8307207459 2.8800620952 2.9351694502 
2.9967168029 3.0653475414 3.1415926536 3.225752376 2.718901062 2.7598010554 2.8058000847 2.8576792927 2.91630358 
2.9825888767 3.0574329311 3.1415926536 3.5642842451 3.5233842518 3.4524645613 3.4773852225 3.403123212 3.3320300872 
3.4255060145 3.348015857 3.2746326772 3.20576226 3.3668817272 3.2864685043 3.2112816139 3.1415926536 3.0774230472 
3.3005964304 3.2178377658 3.1415926536 3.0719036933 3.00855263 2.95115522 3.225752376 3.1415926536 3.0653475414 
2.9967168029 2.9351694502 2.8800620952 2.8307207459 3.1415926536 3.0574329311 2.9825888767 2.91630358 2.8576792927 
2.8058000847 2.7598010554 2.718901062 4.526799744 4.426884955 4.4046155105 4.3052269283 4.2918546451 4.2807094886 
4.1588146215 4.1588146215 4.1588146215 4.1588146215 3.9875336042 4.0055183285 4.0201070968 4.0321740035 4.042318168 
3.7967995342 3.8356650183 3.8672112905 3.8932795963 3.9151549899 3.9337570603 3.5984456061 3.657329819 3.7058097288 
3.7462412737 3.7803704271 3.809500442 3.8346145692 3.4073543651 3.4813459737 3.5438565869 3.5969754326 3.6424295543 
3.6816134988 3.7156421835 3.7454049075 4.7123889804 4.8004512023 4.6243267584 4.9155579264 4.7123889804 4.5092200343 
5.0674903122 4.8353719722 4.5894059886 4.3572876485 5.2659633393 5.0120975802 4.7123889804 4.4126803806 4.1588146215 
5.5125918794 5.2659633393 4.9155579264 4.5092200343 4.1588146215 3.9121860814 5.7885595667 5.6029703303 5.2659633393 
4.7123889804 4.1588146215 3.8218076305 3.6362183941 6.0560271438 5.9702140275 5.7885595667 5.2659633393 4.1588146215 
3.6362183941 3.4545639333 3.368750817 0.22715816343 0.49462574053 0.3129712797 0.77059342779 0.68021497688 0.49462574053 
1.0172219679 1.0172219679 1.0172219679 1.0172219679 1.2156949949 1.271087727 1.3676273807 1.5707963268 2.1243706857 
1.3676273807 1.447813335 1.5707963268 1.7739652728 2.1243706857 2.6469669131 1.4827341049 1.5707963268 1.6937793186 
1.8705049266 2.1243706857 2.4613776767 2.8286213739 1.5707963268 1.6588585487 1.7739652728 1.9258976586 2.1243706857 
2.3709992258 2.6469669131 2.9144344902 1.7563855631 1.8785697967 1.8563003522 2.0024758186 1.9913306621 1.9779583789 
2.1243706857 2.1243706857 2.1243706857 2.1243706857 2.2408671392 2.2510113037 2.2630782103 2.2776669786 2.295651703 
2.3494282469 2.3680303173 2.3899057108 2.4159740166 2.4475202889 2.486385773 2.448570738 2.4736848652 2.5028148801 
2.5369440334 2.5773755784 2.6258554882 2.6847397011 2.5377803997 2.5675431237 2.6015718084 2.6407557529 2.6862098746 
2.7393287203 2.8018393335 2.8758309421 1.6743954455 1.6743954455 1.7840462375 1.6743954455 1.7840462375 1.8974821136 
1.6743954455 1.7840462375 1.8974821136 2.0119052671 1.6743954455 1.7840462375 1.8974821136 2.0119052671 2.1243706857 
1.6743954455 1.7840462375 1.8974821136 2.0119052671 2.1243706857 2.232221744 1.6743954455 1.7840462375 1.8974821136 
2.0119052671 2.1243706857 2.232221744 2.3334263672 1.6743954455 1.7840462375 1.8974821136 2.0119052671 2.1243706857 
2.232221744 2.3334263672 2.426721652 1.4671972081 1.3575464161 1.4671972081 1.24411054 1.3575464161 1.4671972081 
1.1296873865 1.24411054 1.3575464161 1.4671972081 1.0172219679 1.1296873865 1.24411054 1.3575464161 1.4671972081 
0.90937090954 1.0172219679 1.1296873865 1.24411054 1.3575464161 1.4671972081 0.80816628637 0.90937090954 1.0172219679 
1.1296873865 1.24411054 1.3575464161 1.4671972081 0.71487100155 0.80816628637 0.90937090954 1.0172219679 1.1296873865 
1.24411054 1.3575464161 1.4671972081 0.60381225391 0.57404952988 0.69302191562 0.54002084522 0.66790778838 0.79216440667 
0.50083690068 0.63877777351 0.77356233629 0.90072551443 0.45538277901 0.60464862014 0.75168694275 0.89058134991 1.0172219679 
0.40226393329 0.56421707518 0.72561863695 0.87851444325 1.0172219679 1.139116835 0.33975332011 0.51573716537 0.69407236469 
0.86392567495 1.0172219679 1.1502619915 1.2630228569 0.26576171152 0.45685295248 0.6552068806 0.84594095064 1.0172219679 
1.1636342747 1.2852923014 1.3852070904 0.22715816343 0.3129712797 0.49462574053 0.49462574053 0.68021497688 0.77059342779 
1.0172219679 1.0172219679 1.0172219679 1.0172219679 2.1243706857 1.5707963268 1.3676273807 1.271087727 1.2156949949 
2.6469669131 2.1243706857 1.7739652728 1.5707963268 1.447813335 1.3676273807 2.8286213739 2.4613776767 2.1243706857 
1.8705049266 1.6937793186 1.5707963268 1.4827341049 2.9144344902 2.6469669131 2.3709992258 2.1243706857 1.9258976586 
1.7739652728 1.6588585487 1.5707963268 1.7563855631 1.8563003522 1.8785697967 1.9779583789 1.9913306621 2.0024758186 
2.1243706857 2.1243706857 2.1243706857 2.1243706857 2.295651703 2.2776669786 2.2630782103 2.2510113037 2.2408671392 
2.486385773 2.4475202889 2.4159740166 2.3899057108 2.3680303173 2.3494282469 2.6847397011 2.6258554882 2.5773755784 
2.5369440334 2.5028148801 2.4736848652 2.448570738 2.8758309421 2.8018393335 2.7393287203 2.6862098746 2.6407557529 
2.6015718084 2.5675431237 2.5377803997 5.8604937156 5.901393709 5.9723133995 5.9473927383 6.0216547488 6.0927478736 
5.9992719463 6.0767621038 6.1501452836 6.2190157008 6.0578962336 6.1383094565 6.2134963469 0 0.064169606361 
6.1241815303 6.206940195 6.2831853072 0.069688960264 0.13304002361 0.19043743361 6.1990255847 0 0.07624511221 
0.14487585072 0.20642320337 0.26153055843 0.3108719077 0 0.084159722458 0.15900377685 0.22528907359 0.28391336087 
0.3357925689 0.38179159818 0.42269159155 5.8604937156 5.9723133995 5.901393709 6.0927478736 6.0216547488 5.9473927383 
6.2190157008 6.1501452836 6.0767621038 5.9992719463 0.064169606361 0 6.2134963469 6.1383094565 6.0578962336 
0.19043743361 0.13304002361 0.069688960264 6.2831853072 6.206940195 6.1241815303 0.3108719077 0.26153055843 0.20642320337 
0.14487585072 0.07624511221 6.2831853072 6.1990255847 0.42269159155 0.38179159818 0.3357925689 0.28391336087 0.22528907359 
0.15900377685 0.084159722458 0 5.6793730533 5.7091357773 5.5901633916 5.743164462 5.6152775188 5.4910209005 
5.7823484065 5.6444075337 5.5096229709 5.3824597928 5.8278025282 5.678536687 5.5314983644 5.3926039573 5.2659633393 
5.8809213739 5.718968232 5.5575666702 5.4046708639 5.2659633393 5.1440684722 5.9434319871 5.7674481418 5.5891129425 
5.4192596322 5.2659633393 5.1329233157 5.0201624502 6.0174235957 5.8263323547 5.6279784266 5.4372443565 5.2659633393 
5.1195510325 4.9978930058 4.8979782167 1.3852070904 1.2852923014 1.2630228569 1.1636342747 1.1502619915 1.139116835 
1.0172219679 1.0172219679 1.0172219679 1.0172219679 0.84594095064 0.86392567495 0.87851444325 0.89058134991 0.90072551443 
0.6552068806 0.69407236469 0.72561863695 0.75168694275 0.77356233629 0.79216440667 0.45685295248 0.51573716537 0.56421707518 
0.60464862014 0.63877777351 0.66790778838 0.69302191562 0.26576171152 0.33975332011 0.40226393329 0.45538277901 0.50083690068 
0.54002084522 0.57404952988 0.60381225391 
_paraPhiHalf 1 1002 double
0 3.1415926536 0 3.1415926536 1.5707963268 1.5707963268 1.5707963268 1.5707963268 2.5880182947 
0.5535743589 2.5880182947 0.5535743589 0 0 0 0 3.1415926536 3.1415926536 
3.1415926536 3.1415926536 3.1415926536 0.17788134 0.38438696014 0.60631181711 0.82323535693 1.0172219679 1.1799687454 
1.3118704726 1.4175000338 1.5022335207 0.17788134 0.38438696014 0.60631181711 0.82323535693 1.0172219679 1.1799687454 
1.3118704726 1.4175000338 1.5022335207 0.093902416448 0.17615329733 0.2478725152 0.31035131605 0.36486382811 0.41257334776 
0.45449736604 0.4915044461 0.52432611754 0.093902416448 0.17615329733 0.2478725152 0.31035131605 0.36486382811 0.41257334776 
0.45449736604 0.4915044461 0.52432611754 2.9637113136 2.7572056934 2.5352808365 2.3183572967 2.1243706857 1.9616239082 
1.829722181 1.7240926197 1.6393591329 2.9637113136 2.7572056934 2.5352808365 2.3183572967 2.1243706857 1.9616239082 
1.829722181 1.7240926197 1.6393591329 3.0476902371 2.9654393563 2.8937201384 2.8312413375 2.7767288255 2.7290193058 
2.6870952876 2.6500882075 2.617266536 3.0476902371 2.9654393563 2.8937201384 2.8312413375 2.7767288255 2.7290193058 
2.6870952876 2.6500882075 2.617266536 0 0 0 0 3.1415926536 3.1415926536 
3.1415926536 3.1415926536 3.1415926536 0.17788134 0.38438696014 0.60631181711 0.82323535693 1.0172219679 1.1799687454 
1.3118704726 1.4175000338 1.5022335207 0.17788134 0.38438696014 0.60631181711 0.82323535693 1.0172219679 1.1799687454 
1.3118704726 1.4175000338 1.5022335207 0.093902416448 0.17615329733 0.2478725152 0.31035131605 0.36486382811 0.41257334776 
0.45449736604 0.4915044461 0.52432611754 0.093902416448 0.17615329733 0.2478725152 0.31035131605 0.36486382811 0.41257334776 
0.45449736604 0.4915044461 0.52432611754 2.9637113136 2.7572056934 2.5352808365 2.3183572967 2.1243706857 1.9616239082 
1.829722181 1.7240926197 1.6393591329 2.9637113136 2.7572056934 2.5352808365 2.3183572967 2.1243706857 1.9616239082 
1.829722181 1.7240926197 1.6393591329 3.0476902371 2.9654393563 2.8937201384 2.8312413375 2.7767288255 2.7290193058 
2.6870952876 2.6500882075 2.617266536 3.0476902371 2.9654393563 2.8937201384 2.8312413375 2.7767288255 2.7290193058 
2.6870952876 2.6500882075 2.617266536 1.5707963268 1.5707963268 1.5707963268 1.5707963268 1.5707963268 1.5707963268 
1.5707963268 1.5707963268 1.5707963268 1.6743954455 1.7840462375 1.8974821136 2.0119052671 2.1243706857 2.232221744 
2.3334263672 2.426721652 2.5115728246 1.4671972081 1.3575464161 1.24411054 1.1296873865 1.0172219679 0.90937090954 
0.80816628637 0.71487100155 0.63001982895 1.6743954455 1.7840462375 1.8974821136 2.0119052671 2.1243706857 2.232221744 
2.3334263672 2.426721652 2.5115728246 1.4671972081 1.3575464161 1.24411054 1.1296873865 1.0172219679 0.90937090954 
0.80816628637 0.71487100155 0.63001982895 1.5707963268 1.5707963268 1.5707963268 1.5707963268 1.5707963268 1.5707963268 
1.5707963268 1.5707963268 1.5707963268 1.6743954455 1.7840462375 1.8974821136 2.0119052671 2.1243706857 2.232221744 
2.3334263672 2.426721652 2.5115728246 1.4671972081 1.3575464161 1.24411054 1.1296873865 1.0172219679 0.90937090954 
0.80816628637 0.71487100155 0.63001982895 1.6743954455 1.7840462375 1.8974821136 2.0119052671 2.1243706857 2.232221744 
2.3334263672 2.426721652 2.5115728246 1.4671972081 1.3575464161 1.24411054 1.1296873865 1.0172219679 0.90937090954 
0.80816628637 0.71487100155 0.63001982895 2.6824132222 2.7864913217 2.8992382033 3.0186096618 3.1415926536 3.0186096618 
2.8992382033 2.7864913217 2.6824132222 0.45917943135 0.35510133185 0.2423544503 0.12298299178 0 0.12298299178 
0.2423544503 0.35510133185 0.45917943135 0.22715816343 0.49462574053 0.3129712797 0.77059342779 0.68021497688 0.49462574053 
1.0172219679 1.0172219679 1.0172219679 1.0172219679 1.2156949949 1.271087727 1.3676273807 1.5707963268 2.1243706857 
1.3676273807 1.447813335 1.5707963268 1.7739652728 2.1243706857 2.6469669131 1.4827341049 1.5707963268 1.6937793186 
1.8705049266 2.1243706857 2.4613776767 2.8286213739 1.5707963268 1.6588585487 1.7739652728 1.9258976586 2.1243706857 
2.3709992258 2.6469669131 2.9144344902 0.26576171152 0.33975332011 0.45685295248 0.40226393329 0.51573716537 0.6552068806 
0.45538277901 0.56421707518 0.69407236469 0.84594095064 0.50083690068 0.60464862014 0.72561863695 0.86392567495 1.0172219679 
0.54002084522 0.63877777351 0.75168694275 0.87851444325 1.0172219679 1.1636342747 0.57404952988 0.66790778838 0.77356233629 
0.89058134991 1.0172219679 1.1502619915 1.2852923014 0.60381225391 0.69302191562 0.79216440667 0.90072551443 1.0172219679 
1.139116835 1.2630228569 1.3852070904 0.71487100155 0.80816628637 0.80816628637 0.90937090954 0.90937090954 0.90937090954 
1.0172219679 1.0172219679 1.0172219679 1.0172219679 1.1296873865 1.1296873865 1.1296873865 1.1296873865 1.1296873865 
1.24411054 1.24411054 1.24411054 1.24411054 1.24411054 1.24411054 1.3575464161 1.3575464161 1.3575464161 
1.3575464161 1.3575464161 1.3575464161 1.3575464161 1.4671972081 1.4671972081 1.4671972081 1.4671972081 1.4671972081 
1.4671972081 1.4671972081 1.4671972081 1.6743954455 1.6743954455 1.7840462375 1.6743954455 1.7840462375 1.8974821136 
1.6743954455 1.7840462375 1.8974821136 2.0119052671 1.6743954455 1.7840462375 1.8974821136 2.0119052671 2.1243706857 
1.6743954455 1.7840462375 1.8974821136 2.0119052671 2.1243706857 2.232221744 1.6743954455 1.7840462375 1.8974821136 
2.0119052671 2.1243706857 2.232221744 2.3334263672 1.6743954455 1.7840462375 1.8974821136 2.0119052671 2.1243706857 
2.232221744 2.3334263672 2.426721652 1.7563855631 1.8785697967 1.8563003522 2.0024758186 1.9913306621 1.9779583789 
2.1243706857 2.1243706857 2.1243706857 2.1243706857 2.2408671392 2.2510113037 2.2630782103 2.2776669786 2.295651703 
2.3494282469 2.3680303173 2.3899057108 2.4159740166 2.4475202889 2.486385773 2.448570738 2.4736848652 2.5028148801 
2.5369440334 2.5773755784 2.6258554882 2.6847397011 2.5377803997 2.5675431237 2.6015718084 2.6407557529 2.6862098746 
2.7393287203 2.8018393335 2.8758309421 2.718901062 2.8307207459 2.7598010554 2.95115522 2.8800620952 2.8058000847 
3.0774230472 3.00855263 2.9351694502 2.8576792927 3.0774230472 3.1415926536 3.0719036933 2.9967168029 2.91630358 
2.95115522 3.00855263 3.0719036933 3.1415926536 3.0653475414 2.9825888767 2.8307207459 2.8800620952 2.9351694502 
2.9967168029 3.0653475414 3.1415926536 3.0574329311 2.718901062 2.7598010554 2.8058000847 2.8576792927 2.91630358 
2.9825888767 3.0574329311 3.1415926536 2.718901062 2.7598010554 2.8307207459 2.8058000847 2.8800620952 2.95115522 
2.8576792927 2.9351694502 3.00855263 3.0774230472 2.91630358 2.9967168029 3.0719036933 3.1415926536 3.0774230472 
2.9825888767 3.0653475414 3.1415926536 3.0719036933 3.00855263 2.95115522 3.0574329311 3.1415926536 3.0653475414 