# vtk DataFile Version 5.1
vtk output
ASCII
DATASET POLYDATA
POINTS 100 float
0.0775476 -0.847646 -0.378434 0.0773959 -0.847566 -0.37823 0.0769641 -0.847389 -0.377543 
0.0762581 -0.847167 -0.376527 0.0752867 -0.846972 -0.375406 0.0740599 -0.846873 -0.374445 
0.0725871 -0.846913 -0.373904 0.0708749 -0.847084 -0.373994 0.0689254 -0.84731 -0.374842 
0.0667345 -0.847442 -0.376465 0.0642912 -0.847259 -0.378758 0.0615774 -0.846487 -0.381503 
0.0585685 -0.844827 -0.384393 0.055235 -0.841987 -0.387065 0.0515444 -0.837716 -0.389145 
0.0474635 -0.831837 -0.390297 0.0429615 -0.824269 -0.390262 0.0380121 -0.815035 -0.388887 
0.0325964 -0.804258 -0.386145 0.0267046 -0.79214 -0.382128 0.0203377 -0.778933 -0.377035 
0.0135083 -0.764902 -0.371139 0.0062405 -0.750279 -0.364741 -0.00142997 -0.73524 -0.358134 
-0.00945724 -0.71987 -0.351557 -0.0177869 -0.704163 -0.345165 -0.026358 -0.688029 -0.339013 
-0.0351061 -0.671312 -0.333054 -0.0439659 -0.653835 -0.327155 -0.0528751 -0.63544 -0.321125 
-0.0617773 -0.616026 -0.314755 -0.0706258 -0.595593 -0.307855 -0.0793863 -0.574254 -0.300297 
-0.0880394 -0.55224 -0.292039 -0.0965816 -0.529879 -0.283142 -0.105025 -0.507554 -0.273763 
-0.113398 -0.485646 -0.264137 -0.121736 -0.464469 -0.254541 -0.130083 -0.444206 -0.24525 
-0.138481 -0.424858 -0.236485 -0.146962 -0.406204 -0.228375 -0.155541 -0.387799 -0.220915 
-0.164205 -0.368995 -0.213954 -0.17291 -0.348996 -0.207196 -0.181571 -0.326934 -0.20022 
-0.190064 -0.301968 -0.192523 -0.198224 -0.273381 -0.183572 -0.205853 -0.240681 -0.172869 
-0.212725 -0.203672 -0.160008 -0.2186 -0.162501 -0.144726 -0.223242 -0.117669 -0.126941 
-0.226429 -0.0699969 -0.106768 -0.227973 -0.0205591 -0.0845059 -0.227731 0.0294159 -0.0606148 
-0.22562 0.0786633 -0.0356632 -0.221621 0.126006 -0.0102697 -0.215779 0.170466 0.0149612 
-0.208204 0.211359 0.0395004 -0.199056 0.248348 0.062943 -0.188535 0.281457 0.0850403 
-0.176861 0.311045 0.10571 -0.164257 0.337738 0.125025 -0.150932 0.362334 0.143182 
-0.137063 0.385687 0.16046 -0.122782 0.408591 0.177161 -0.108175 0.431678 0.193563 
-0.0932741 0.455338 0.209871 -0.0780687 0.47968 0.226186 -0.0625124 0.504529 0.242495 
-0.0465381 0.529469 0.258673 -0.0300752 0.553908 0.274509 -0.0130648 0.577182 0.289748 
0.00452437 0.598657 0.304131 0.0226862 0.617827 0.31745 0.0413708 0.634398 0.329583 
0.0604845 0.648334 0.340527 0.0798954 0.65987 0.350404 0.0994442 0.669482 0.359456 
0.118958 0.677824 0.368013 0.138267 0.685638 0.376457 0.157219 0.693649 0.385164 
0.175692 0.702464 0.394459 0.193604 0.71248 0.404561 0.210915 0.723829 0.415556 
0.227627 0.736352 0.427375 0.243772 0.74962 0.439804 0.259398 0.76299 0.452501 
0.274557 0.775688 0.465039 0.289282 0.786922 0.476963 0.303574 0.795989 0.487839 
0.317388 0.802378 0.49731 0.330625 0.805843 0.50514 0.343131 0.806446 0.511235 
0.354705 0.804552 0.51565 0.365107 0.800793 0.518575 0.374082 0.795982 0.520301 
0.381377 0.791012 0.521169 0.386765 0.786739 0.521522 0.390065 0.78387 0.521649 
0.391161 0.782869 0.521738 
LINES 2 100
OFFSETS vtktypeint64
0 100 
CONNECTIVITY vtktypeint64
0 1 2 3 4 5 6 7 8 
9 10 11 12 13 14 15 16 17 
18 19 20 21 22 23 24 25 26 
27 28 29 30 31 32 33 34 35 
36 37 38 39 40 41 42 43 44 
45 46 47 48 49 50 51 52 53 
54 55 56 57 58 59 60 61 62 
63 64 65 66 67 68 69 70 71 
72 73 74 75 76 77 78 79 80 
81 82 83 84 85 86 87 88 89 
90 91 92 93 94 95 96 97 98 
99 
POINT_DATA 100
FIELD FieldData 3
_theta 1 100 double
0 0.031733259127 0.063466518254 0.095199777382 0.12693303651 0.15866629564 0.19039955476 0.22213281389 0.25386607302 
0.28559933214 0.31733259127 0.3490658504 0.38079910953 0.41253236865 0.44426562778 0.47599888691 0.50773214603 0.53946540516 
0.57119866429 0.60293192342 0.63466518254 0.66639844167 0.6981317008 0.72986495992 0.76159821905 0.79333147818 0.82506473731 
0.85679799643 0.88853125556 0.92026451469 0.95199777382 0.98373103294 1.0154642921 1.0471975512 1.0789308103 1.1106640695 
1.1423973286 1.1741305877 1.2058638468 1.237597106 1.2693303651 1.3010636242 1.3327968833 1.3645301425 1.3962634016 
1.4279966607 1.4597299198 1.491463179 1.5231964381 1.5549296972 1.5866629564 1.6183962155 1.6501294746 1.6818627337 
1.7135959929 1.745329252 1.7770625111 1.8087957702 1.8405290294 1.8722622885 1.9039955476 1.9357288068 1.9674620659 
1.999195325 2.0309285841 2.0626618433 2.0943951024 2.1261283615 2.1578616206 2.1895948798 2.2213281389 2.253061398 
2.2847946572 2.3165279163 2.3482611754 2.3799944345 2.4117276937 2.4434609528 2.4751942119 2.506927471 2.5386607302 
2.5703939893 2.6021272484 2.6338605076 2.6655937667 2.6973270258 2.7290602849 2.7607935441 2.7925268032 2.8242600623 
2.8559933214 2.8877265806 2.9194598397 2.9511930988 2.982926358 3.0146596171 3.0463928762 3.0781261353 3.1098593945 
3.1415926536 
_radius 1 100 double
9.074842391e-16 0.014717150753 0.029652008963 0.044987965826 0.060843537626 0.077252454254 0.094154871766 0.11139966016 0.12875690012 
0.14593883952 0.16262649316 0.1784986467 0.19326075657 0.20667217833 0.21856982438 0.22888488421 0.23764867723 0.24498572532 
0.25109589355 0.25622997988 0.2606623714 0.26466188405 0.26846152636 0.27223140515 0.27606282616 0.27996972901 0.28390544836 
0.28778583345 0.29150962734 0.29497148175 0.29806736008 0.30069444811 0.30274844116 0.30412093106 0.30469895848 0.30436783583 
0.30301733426 0.30055055571 0.29689444571 0.292010905 0.28590762543 0.27864777358 0.27035706772 0.26122557178 0.25150055994 
0.24146792523 0.2314241096 0.22164699044 0.2123781134 0.20382484427 0.19617871946 0.18963441301 0.18439232274 0.18063705037 
0.17849835256 0.17801179546 0.17909426118 0.18153876996 0.18502835767 0.18917100193 0.193554437 0.19780899586 0.2016603499 
0.20495904696 0.2076837543 0.20992210233 0.21183581461 0.21361782422 0.21544947328 0.21746507287 0.21972860508 0.22222395123 
0.22485709881 0.22746713818 0.22984260146 0.23174066656 0.23290838153 0.23310593139 0.23213087577 0.22984010289 0.22616527502 
0.22111882587 0.21479010764 0.20733355026 0.19895177194 0.18987605187 0.18034439781 0.17057437779 0.16072573393 0.150850038 
0.14083908125 0.1304104034 0.11916472017 0.10669157042 0.092668886167 0.076930173472 0.0594980276 0.04058771535 0.02058458412 
8.2316323839e-16 
_area 1 100 double
0 0.00041953669638 0.0017161549322 0.0039959056736 0.007411773367 0.012136167685 0.018333267771 0.026133227071 0.035606059449 
0.046731397171 0.059363212539 0.073199441041 0.087778855447 0.10252448759 0.11683082745 0.13016667386 0.14215549339 0.15261182575 
0.16154632937 0.16916711343 0.17587894407 0.18224234424 0.18884438677 0.19609312578 0.20406550396 0.21253532641 0.22113664366 
0.22952957842 0.23748693962 0.24489451455 0.25170557973 0.25789016005 0.26338906212 0.2680686447 0.27168496385 0.27387879996 
0.27421261484 0.2722373664 0.26757021842 0.25997282839 0.24942326059 0.23616988725 0.22075258378 0.20397361784 0.1867902252 
0.1701440594 0.15480891459 0.14122197319 0.12968464943 0.12026695364 0.11290341537 0.10743855495 0.10378522509 0.10190127647 
0.10167508164 0.10287793148 0.10522477854 0.1085021352 0.11266765411 0.11768647707 0.12310485653 0.12818170444 0.13225095617 
0.1348978972 0.13602372851 0.13582961954 0.13473264307 0.1332369195 0.13180303314 0.1307577086 0.13026273267 0.13033899216 
0.13092517751 0.13193584515 0.13327280645 0.13476537992 0.13609912459 0.13683542481 0.13651831794 0.13478458984 0.13142384176 
0.12638114833 0.11972622407 0.11162513969 0.10233130976 0.092187407089 0.081623416742 0.071134381891 0.061216055114 0.052245146565 
0.044347368712 0.037363407 0.030967700048 0.024853902832 0.018881533989 0.013140982459 0.0079399155259 0.0037259640684 0.00096356977379 
8.3266726847e-17 
