# vtk DataFile Version 5.1
vtk output
ASCII
DATASET POLYDATA
POINTS 100 float
0.386484 0.892612 0.623457 0.38606 0.891548 0.623211 0.384703 0.888542 0.622303 
0.382316 0.883712 0.620703 0.378758 0.877249 0.618364 0.373865 0.869392 0.615237 
0.367471 0.860413 0.61127 0.359443 0.850597 0.606422 0.349699 0.840216 0.600668 
0.338228 0.829511 0.594003 0.325096 0.818678 0.586446 0.310446 0.807854 0.57804 
0.294486 0.797117 0.568846 0.277468 0.786479 0.558939 0.259666 0.775901 0.548399 
0.241348 0.765298 0.537301 0.222748 0.75455 0.52571 0.204055 0.74352 0.513672 
0.185392 0.732066 0.50121 0.166823 0.720053 0.488324 0.148354 0.707361 0.474991 
0.129951 0.693893 0.461172 0.111561 0.679576 0.446817 0.0931334 0.664363 0.431877 
0.0746447 0.648228 0.416308 0.0561113 0.631162 0.400086 0.0376006 0.61317 0.383204 
0.0192301 0.594262 0.365686 0.00115877 0.574451 0.347578 -0.0164308 0.553746 0.32895 
-0.0333544 0.532152 0.309889 -0.0494515 0.509665 0.29049 -0.0646072 0.486274 0.270849 
-0.07877 0.46196 0.251053 -0.0919607 0.436697 0.231174 -0.104271 0.410451 0.211262 
-0.11585 0.383186 0.191345 -0.126887 0.354862 0.171429 -0.137578 0.325442 0.151503 
-0.148098 0.294893 0.131544 -0.158568 0.263189 0.111531 -0.16903 0.230321 0.091447 
-0.179433 0.1963 0.0712943 -0.189625 0.161162 0.0510966 -0.199361 0.124978 0.030905 
-0.208325 0.0878528 0.0107988 -0.216158 0.0499341 -0.00911816 -0.222495 0.0114081 -0.0287231 
-0.227002 -0.0275013 -0.0478837 -0.229417 -0.0665391 -0.0664681 -0.229575 -0.105428 -0.084357 
-0.227427 -0.143883 -0.101454 -0.223051 -0.181621 -0.117692 -0.216641 -0.218379 -0.133045 
-0.20849 -0.253928 -0.147523 -0.198957 -0.288085 -0.161178 -0.188438 -0.320719 -0.174093 
-0.177325 -0.35176 -0.186379 -0.165972 -0.381196 -0.198163 -0.154669 -0.409068 -0.209579 
-0.14362 -0.435461 -0.220755 -0.132943 -0.460494 -0.231806 -0.122669 -0.484305 -0.242822 
-0.112758 -0.507034 -0.25387 -0.103121 -0.528819 -0.264984 -0.0936486 -0.549776 -0.276174 
-0.0842319 -0.570002 -0.287422 -0.0747895 -0.58957 -0.298693 -0.0652812 -0.608534 -0.309938 
-0.0557167 -0.626931 -0.321104 -0.0461545 -0.644793 -0.332135 -0.0366924 -0.662154 -0.342985 
-0.0274524 -0.679056 -0.353616 -0.0185617 -0.695551 -0.363999 -0.0101335 -0.711709 -0.374119 
-0.00225045 -0.727602 -0.383969 0.00504701 -0.743308 -0.393546 0.0117647 -0.758887 -0.402853 
0.0179521 -0.77438 -0.411888 0.0236923 -0.789786 -0.420645 0.0290873 -0.805057 -0.429112 
0.0342404 -0.820089 -0.437268 0.0392385 -0.834723 -0.445081 0.0441375 -0.848753 -0.452515 
0.0489529 -0.861934 -0.459528 0.0536566 -0.874008 -0.466077 0.0581814 -0.884725 -0.472124 
0.0624311 -0.893866 -0.477635 0.0662965 -0.901274 -0.482586 0.0696726 -0.90687 -0.486967 
0.0724762 -0.91067 -0.490781 0.0746608 -0.91279 -0.494042 0.076225 -0.91344 -0.49678 
0.0772152 -0.912914 -0.499033 0.0777214 -0.911565 -0.500845 0.0778649 -0.909772 -0.502263 
0.077783 -0.907911 -0.503334 0.0776095 -0.906318 -0.504096 0.0774568 -0.905255 -0.504582 
0.0773995 -0.90489 -0.504811 
LINES 2 100
OFFSETS vtktypeint64
0 100 
CONNECTIVITY vtktypeint64
0 1 2 3 4 5 6 7 8 
9 10 11 12 13 14 15 16 17 
18 19 20 21 22 23 24 25 26 
27 28 29 30 31 32 33 34 35 
36 37 38 39 40 41 42 43 44 
45 46 47 48 49 50 51 52 53 
54 55 56 57 58 59 60 61 62 
63 64 65 66 67 68 69 70 71 
72 73 74 75 76 77 78 79 80 
81 82 83 84 85 86 87 88 89 
90 91 92 93 94 95 96 97 98 
99 
POINT_DATA 100
FIELD FieldData 3
_theta 1 100 double
0 0.031733259127 0.063466518254 0.095199777382 0.12693303651 0.15866629564 0.19039955476 0.22213281389 0.25386607302 
0.28559933214 0.31733259127 0.3490658504 0.38079910953 0.41253236865 0.44426562778 0.47599888691 0.50773214603 0.53946540516 
0.57119866429 0.60293192342 0.63466518254 0.66639844167 0.6981317008 0.72986495992 0.76159821905 0.79333147818 0.82506473731 
0.85679799643 0.88853125556 0.92026451469 0.95199777382 0.98373103294 1.0154642921 1.0471975512 1.0789308103 1.1106640695 
1.1423973286 1.1741305877 1.2058638468 1.237597106 1.2693303651 1.3010636242 1.3327968833 1.3645301425 1.3962634016 
1.4279966607 1.4597299198 1.491463179 1.5231964381 1.5549296972 1.5866629564 1.6183962155 1.6501294746 1.6818627337 
1.7135959929 1.745329252 1.7770625111 1.8087957702 1.8405290294 1.8722622885 1.9039955476 1.9357288068 1.9674620659 
1.999195325 2.0309285841 2.0626618433 2.0943951024 2.1261283615 2.1578616206 2.1895948798 2.2213281389 2.253061398 
2.2847946572 2.3165279163 2.3482611754 2.3799944345 2.4117276937 2.4434609528 2.4751942119 2.506927471 2.5386607302 
2.5703939893 2.6021272484 2.6338605076 2.6655937667 2.6973270258 2.7290602849 2.7607935441 2.7925268032 2.8242600623 
2.8559933214 2.8877265806 2.9194598397 2.9511930988 2.982926358 3.0146596171 3.0463928762 3.0781261353 3.1098593945 
3.1415926536 
_radius 1 100 double
8.7595119147e-16 0.021418233563 0.042387165713 0.06249946082 0.081418091001 0.09890056546 0.11481211761 0.12912672119 0.14191671259 
0.1533332869 0.16358061121 0.17288599293 0.18146845571 0.18950880126 0.19712510472 0.2043574919 0.21116478501 0.21743386835 
0.22300091984 0.227681909 0.23130790444 0.23375923535 0.23499229396 0.23505427394 0.23408393852 0.23229933324 0.22997506795 
0.22741226204 0.2249044511 0.22270352753 0.22099026685 0.21985276863 0.21927439897 0.21913316454 0.21921600343 0.21925022039 
0.21894908544 0.21806323174 0.21642769449 0.21399628353 0.21085838443 0.20723648088 0.20346499221 0.19995277625 0.1971338081 
0.19541303357 0.19511510736 0.19644215219 0.19944726688 0.20403443306 0.20999226141 0.21705058616 0.22492878716 0.23334895479 
0.24202197379 0.25064428243 0.25892608722 0.26663194156 0.27360506537 0.27976696165 0.28510089039 0.28963032883 0.29339926003 
0.29645670646 0.29884540415 0.30059388152 0.30171177364 0.30218901462 0.3019997464 0.30111096399 0.2994943431 0.29713816316 
0.29405564465 0.29028684204 0.28589323691 0.28094654109 0.275514965 0.26965068805 0.26338148052 0.25670791383 0.24960602392 
0.24203406466 0.23394125467 0.22527627617 0.21599376921 0.20605799934 0.19544386421 0.18413606535 0.1721274746 0.15941762137 
0.1460120332 0.13192291557 0.11717122468 0.10178957843 0.085824992087 0.069340498658 0.05241530065 0.035143678085 0.017632903887 
1.133174464e-15 
_area 1 100 double
0 0.00096464277274 0.0038008372588 0.0083409801616 0.014326932541 0.021447125719 0.029386591992 0.037867677052 0.046668436047 
0.055647837577 0.064781676614 0.074160482399 0.083923309687 0.094150937258 0.10477168332 0.11552666874 0.12600499225 0.13572518088 
0.14422513716 0.15112380571 0.15614038515 0.15909998204 0.15995963116 0.15884444147 0.15606676154 0.15211664333 0.14762064822 
0.14326563921 0.13969274595 0.13739346595 0.13664183037 0.13744824736 0.13955348736 0.14250561608 0.14575445495 0.14871839979 
0.15084865672 0.15170140512 0.1510057462 0.1487153265 0.14503483963 0.14041244849 0.13549074766 0.1310117781 0.12767311592 
0.12596168676 0.1260699605 0.12798150927 0.1316465972 0.13706337814 0.14410980366 0.15235800926 0.16126794094 0.17044580717 
0.17976372216 0.1894383305 0.19992603887 0.21134662074 0.22325859641 0.23513061418 0.24649530945 0.2569355059 0.26608324892 
0.27363319217 0.27935777626 0.28311502584 0.28484665279 0.28457024728 0.28237074501 0.27838823143 0.27278104292 0.26567148254 
0.25717215627 0.24747801525 0.23689112171 0.2257732942 0.21447827302 0.20329392232 0.19240741083 0.18189400924 0.17172175813 
0.16176490431 0.15182783405 0.14168549118 0.13113614433 0.12005011981 0.10840009979 0.096269269104 0.083841010315 0.07137567639 
0.05917924462 0.04756863241 0.036839337758 0.027240712363 0.018961797132 0.012127769402 0.0068054056997 0.0030157764017 0.00075220973811 
5.5511151231e-17 
