# vtk DataFile Version 5.1
vtk output
ASCII
DATASET POLYDATA
POINTS 100 float
-124.517 -85.5856 109.319 -124.534 -85.6113 109.304 -124.591 -85.6859 109.258 
-124.686 -85.8066 109.182 -124.82 -85.9685 109.08 -124.992 -86.1654 108.953 
-125.202 -86.3901 108.807 -125.449 -86.6354 108.647 -125.731 -86.8941 108.475 
-126.046 -87.16 108.295 -126.392 -87.4279 108.111 -126.765 -87.6943 107.923 
-127.163 -87.9572 107.734 -127.582 -88.2162 107.543 -128.019 -88.4725 107.349 
-128.47 -88.7281 107.15 -128.932 -88.9863 106.946 -129.403 -89.2503 106.733 
-129.88 -89.5234 106.509 -130.362 -89.8087 106.274 -130.847 -90.1085 106.026 
-131.334 -90.4245 105.765 -131.823 -90.7573 105.49 -132.313 -91.1071 105.202 
-132.803 -91.4734 104.902 -133.293 -91.8554 104.593 -133.781 -92.2522 104.275 
-134.265 -92.6633 103.95 -134.744 -93.0885 103.62 -135.216 -93.5282 103.286 
-135.679 -93.9835 102.95 -136.129 -94.4562 102.611 -136.564 -94.9487 102.272 
-136.982 -95.4636 101.933 -137.379 -96.0036 101.593 -137.755 -96.5714 101.255 
-138.105 -97.1689 100.92 -138.427 -97.7977 100.587 -138.72 -98.4582 100.26 
-138.981 -99.1498 99.9404 -139.208 -99.8706 99.6295 -139.399 -100.618 99.33 
-139.554 -101.388 99.0437 -139.67 -102.177 98.7723 -139.748 -102.978 98.5171 
-139.788 -103.787 98.2787 -139.792 -104.598 98.057 -139.762 -105.405 97.8513 
-139.701 -106.203 97.6601 -139.614 -106.989 97.4812 -139.505 -107.758 97.3119 
-139.38 -108.506 97.1495 -139.245 -109.233 96.9908 -139.104 -109.936 96.8329 
-138.963 -110.615 96.6734 -138.825 -111.27 96.5101 -138.693 -111.902 96.3415 
-138.569 -112.512 96.1671 -138.453 -113.102 95.9866 -138.344 -113.674 95.8007 
-138.24 -114.23 95.6104 -138.14 -114.772 95.4172 -138.039 -115.303 95.2227 
-137.936 -115.825 95.0286 -137.83 -116.338 94.8364 -137.718 -116.846 94.6473 
-137.6 -117.349 94.4621 -137.479 -117.848 94.2811 -137.355 -118.342 94.1042 
-137.233 -118.831 93.9308 -137.114 -119.316 93.7601 -137.003 -119.794 93.591 
-136.903 -120.264 93.4222 -136.816 -120.725 93.2525 -136.745 -121.175 93.0807 
-136.688 -121.612 92.906 -136.647 -122.033 92.728 -136.62 -122.438 92.5463 
-136.603 -122.825 92.3611 -136.593 -123.191 92.173 -136.588 -123.537 91.9827 
-136.584 -123.86 91.7914 -136.579 -124.161 91.6003 -136.57 -124.438 91.4107 
-136.556 -124.693 91.2241 -136.538 -124.924 91.0419 -136.516 -125.131 90.8654 
-136.491 -125.317 90.6959 -136.466 -125.48 90.5346 -136.441 -125.623 90.3828 
-136.42 -125.745 90.2413 -136.403 -125.85 90.1111 -136.39 -125.937 89.9933 
-136.383 -126.008 89.8886 -136.38 -126.066 89.7977 -136.38 -126.11 89.7215 
-136.382 -126.143 89.6606 -136.385 -126.166 89.6154 -136.387 -126.18 89.5866 
-136.387 -126.184 89.5742 
LINES 2 100
OFFSETS vtktypeint64
0 100 
CONNECTIVITY vtktypeint64
0 1 2 3 4 5 6 7 8 
9 10 11 12 13 14 15 16 17 
18 19 20 21 22 23 24 25 26 
27 28 29 30 31 32 33 34 35 
36 37 38 39 40 41 42 43 44 
45 46 47 48 49 50 51 52 53 
54 55 56 57 58 59 60 61 62 
63 64 65 66 67 68 69 70 71 
72 73 74 75 76 77 78 79 80 
81 82 83 84 85 86 87 88 89 
90 91 92 93 94 95 96 97 98 
99 
POINT_DATA 100
FIELD FieldData 3
_theta 1 100 double
0 0.031733259127 0.063466518254 0.095199777382 0.12693303651 0.15866629564 0.19039955476 0.22213281389 0.25386607302 
0.28559933214 0.31733259127 0.3490658504 0.38079910953 0.41253236865 0.44426562778 0.47599888691 0.50773214603 0.53946540516 
0.57119866429 0.60293192342 0.63466518254 0.66639844167 0.6981317008 0.72986495992 0.76159821905 0.79333147818 0.82506473731 
0.85679799643 0.88853125556 0.92026451469 0.95199777382 0.98373103294 1.0154642921 1.0471975512 1.0789308103 1.1106640695 
1.1423973286 1.1741305877 1.2058638468 1.237597106 1.2693303651 1.3010636242 1.3327968833 1.3645301425 1.3962634016 
1.4279966607 1.4597299198 1.491463179 1.5231964381 1.5549296972 1.5866629564 1.6183962155 1.6501294746 1.6818627337 
1.7135959929 1.745329252 1.7770625111 1.8087957702 1.8405290294 1.8722622885 1.9039955476 1.9357288068 1.9674620659 
1.999195325 2.0309285841 2.0626618433 2.0943951024 2.1261283615 2.1578616206 2.1895948798 2.2213281389 2.253061398 
2.2847946572 2.3165279163 2.3482611754 2.3799944345 2.4117276937 2.4434609528 2.4751942119 2.506927471 2.5386607302 
2.5703939893 2.6021272484 2.6338605076 2.6655937667 2.6973270258 2.7290602849 2.7607935441 2.7925268032 2.8242600623 
2.8559933214 2.8877265806 2.9194598397 2.9511930988 2.982926358 3.0146596171 3.0463928762 3.0781261353 3.1098593945 
3.1415926536 
_radius 1 100 double
1.7346558843e-13 0.44870241198 0.89099593641 1.3210831571 1.7341281452 2.1265640917 2.4962265361 2.8422973937 3.1650748126 
3.4656137588 3.7453066594 4.0054842723 4.2471078379 4.4705964305 4.6757988161 4.8620891457 5.0285474037 5.1741795474 
5.2981360897 5.3998975675 5.4794070421 5.5371407401 5.5741171654 5.5918527138 5.5922781327 5.5776337476 5.550359573 
5.5129880402 5.4680363217 5.4178915815 5.3646935873 5.310242096 5.2559759542 5.2030674322 5.1526388268 5.1060479688 
5.0651319411 5.0322771185 5.0102238594 5.0016187159 5.0084590758 5.0316582404 5.0709259559 5.1250190339 5.1922522981 
5.2710609726 5.3604111021 5.4599418671 5.56982384 5.6903584479 5.8213230497 5.9611117093 6.1060100662 6.2502365937 
6.3869778825 6.5098140941 6.6138068435 6.6960036966 6.7554520966 6.7928868776 6.8102338087 6.8100488024 6.7949989705 
6.767470249 6.7293447154 6.6819386998 6.6260541935 6.5620865368 6.4901466869 6.4101803376 6.3220838839 6.2258206334 
6.1215293197 6.0095998949 5.8906843654 5.7656221677 5.6352838828 5.500361533 5.3611522647 5.2173922379 5.0681924919 
4.9121032375 4.7472942054 4.5718040876 4.3837970799 4.1817720785 3.9646929101 3.7320353229 3.4837680224 3.2202937419 
2.9423721498 2.6510368654 2.3475130542 2.0331429572 1.7093295522 1.3775066424 1.0391352121 0.69571575774 0.34880143159 
3.0412557179e-13 
_area 1 100 double
0 0.35119984751 1.3964997726 3.1124379781 5.4635885601 8.4056223468 11.887719132 15.854844438 20.249493759 
25.011420569 30.074457602 35.361234209 40.777584334 46.207939251 51.513001166 56.534432901 61.112077932 65.108817303 
68.429979403 71.030401047 72.912475145 74.122349503 74.748121838 74.917148158 74.783494229 74.501752293 74.205907874 
74.007830245 73.99539214 74.219333569 74.682110484 75.340319502 76.122391167 76.956336602 77.799386717 78.659120017 
79.593260821 80.680930777 81.980084497 83.5034041 85.228363647 87.12456755 89.163153597 91.291140091 93.4090653 
95.400330573 97.205753567 98.909758571 100.79640872 103.28062211 106.63473555 110.80773551 115.58398132 120.68997848 
125.78407956 130.4807053 134.4249847 137.36360476 139.18122329 139.91879433 139.8144581 139.22334117 138.31267162 
137.13249143 135.71690236 134.0770842 132.21730533 130.15293362 127.87742169 125.33396247 122.48831395 119.41533512 
116.18238961 112.67535205 108.90166911 104.8780275 100.59469752 96.062852425 91.314992836 86.392925949 81.338631488 
76.185989228 70.954666898 65.648152822 60.258494593 54.777854004 49.211730297 43.587359351 37.955363473 32.387127587 
26.970730713 21.806238086 16.999604699 12.654605828 8.8636493161 5.6997565048 3.2123081976 1.4280506638 0.35688333567 
0 
