# vtk DataFile Version 5.1
vtk output
ASCII
DATASET POLYDATA
POINTS 1002 float
-11.4062 -0.781342 -2.88971 10.1467 0.14791 -3.14987 -11.6005 0.177747 2.1829 
11.0041 -0.526615 2.53996 -0.572976 -0.027707 -2.36283 -0.536837 -0.681727 0.0593709 
0.0665053 -7.38559 -2.3428 0.175393 -7.30162 1.96203 15.4383 11.1011 0.91957 
-16.7149 6.71391 -0.231088 16.9932 -2.09241 0.146058 -15.2085 0.582598 1.41984 
-9.61606 -1.34648 -2.82462 -7.64613 -2.18148 -3.02219 -5.36106 -3.0819 -3.35598 
-2.52266 -3.53084 -3.42149 0.707547 -3.23603 -3.10726 3.6603 -2.50141 -2.84534 
5.85739 -1.77218 -2.94823 7.45493 -1.13958 -3.1918 8.83305 -0.503763 -3.26748 
-10.9552 -0.475865 -2.92634 -10.3752 -0.199176 -2.9114 -9.60279 -0.0552346 -2.84223 
-8.65545 -0.0753549 -2.85767 -7.66963 -0.18385 -3.0995 -6.67017 -0.303213 -3.40369 
-5.46147 -0.401137 -3.43373 -3.92938 -0.423441 -3.13423 -2.22594 -0.302138 -2.7247 
-10.693 -1.368 -2.7765 -9.79655 -1.99726 -2.73018 -8.68819 -2.73849 -2.75642 
-7.41139 -3.67965 -2.85324 -6.0183 -4.74589 -2.96655 -4.5317 -5.6613 -2.96568 
-3.07842 -6.26488 -2.81056 -1.84864 -6.68167 -2.62401 -0.852267 -7.06114 -2.48727 
-12.8722 -0.115401 -3.12156 -14.3264 0.697549 -3.36116 -15.6092 1.74135 -3.42568 
-16.5443 2.97357 -3.23862 -17.0606 4.27372 -2.89274 -17.2721 5.48441 -2.4878 
-17.3493 6.37119 -2.0168 -17.3249 6.77291 -1.45828 -17.1219 6.79996 -0.846683 
-12.7073 -0.692835 -2.94242 -13.8789 -0.552235 -2.86757 -14.75 -0.283777 -2.55372 
-15.4234 0.00675701 -2.038 -16.1253 0.111855 -1.45026 -16.7013 0.0675682 -0.854156 
-16.7154 0.164192 -0.227204 -16.1576 0.476628 0.41993 -15.5229 0.711571 0.997764 
9.82283 0.527184 -3.09632 9.45323 0.86445 -2.99461 8.97099 1.12042 -2.85199 
8.34024 1.27615 -2.62907 7.54912 1.26683 -2.31754 6.4751 0.984232 -2.05158 
4.94341 0.469356 -1.99327 3.02598 -0.0107254 -2.12467 1.07664 -0.193259 -2.28748 
9.68273 -0.667574 -3.22852 9.16601 -1.55658 -3.22722 8.43417 -2.51257 -3.22714 
7.45956 -3.48074 -3.2389 6.47892 -4.34428 -3.08494 5.61207 -5.02995 -2.65383 
4.57979 -5.61252 -2.18982 3.14899 -6.21592 -2.02053 1.52132 -6.84337 -2.15104 
11.3202 1.09649 -2.89362 12.6278 2.18411 -2.5181 13.8432 3.36354 -2.11339 
14.7444 4.55279 -1.75158 15.4032 5.74753 -1.36617 15.9691 7.04859 -0.89399 
16.2528 8.45557 -0.44653 16.0616 9.75249 -0.0878042 15.6563 10.6782 0.328891 
11.1611 0.292682 -3.03882 12.1473 0.363735 -2.93151 12.9844 0.276211 -2.84764 
13.7128 -0.0343521 -2.72871 14.491 -0.549481 -2.52198 15.3286 -1.12478 -2.24043 
16.0549 -1.56934 -1.86084 16.5652 -1.81731 -1.30439 16.8749 -1.95646 -0.587099 
-9.98317 -0.539953 1.99617 -8.06134 -1.32098 1.80053 -5.86782 -2.11515 1.62802 
-3.2883 -2.83235 1.54815 -0.331597 -3.30967 1.59715 2.61381 -3.34307 1.7495 
5.15281 -2.87363 1.93739 7.29965 -2.08992 2.11387 9.24333 -1.25761 2.30236 
-11.1908 0.450098 2.14778 -10.7306 0.624849 1.98786 -10.1672 0.639623 1.62414 
-9.27096 0.527797 1.19626 -7.89122 0.415473 1.0015 -6.27572 0.358445 1.09187 
-4.81396 0.236685 1.1327 -3.52556 -0.0664733 0.856261 -2.14175 -0.452093 0.395578 
-10.9751 -0.594334 2.08763 -10.1585 -1.46222 1.9616 -9.19686 -2.35845 1.74935 
-8.07626 -3.22277 1.49004 -6.71898 -4.05029 1.33497 -5.1275 -4.8413 1.38325 
-3.46435 -5.55566 1.57105 -1.94703 -6.17941 1.77343 -0.722587 -6.75394 1.91382 
-12.7203 1.06988 2.39852 -13.6419 2.02071 2.67278 -14.4588 3.06593 2.92788 
-15.2709 4.23656 3.06733 -15.9392 5.40995 3.02728 -16.2897 6.32804 2.73558 
-16.4534 6.83276 2.13285 -16.6342 6.97595 1.30508 -16.7766 6.89906 0.463611 
-12.6659 0.423773 2.35951 -13.4475 0.699283 2.78689 -13.8712 0.882913 3.5096 
-14.3349 0.714681 4.13044 -15.189 0.213502 4.1649 -16.0318 -0.123867 3.66452 
-16.2402 0.0543674 3.03878 -15.8773 0.479642 2.47522 -15.4442 0.701579 1.9377 
10.661 -0.195528 2.53747 10.2065 0.0725463 2.49115 9.6703 0.270184 2.50624 
8.91022 0.348878 2.48168 7.72245 0.219672 2.14664 6.16402 -0.110976 1.5049 
4.47558 -0.494159 0.889601 2.76551 -0.767799 0.494477 1.05892 -0.839595 0.246175 
10.208 -1.33748 2.34304 9.3667 -2.20934 2.26167 8.56349 -3.07058 2.40432 
7.74614 -3.86831 2.68155 6.72173 -4.63918 2.80574 5.41493 -5.42626 2.66871 
3.99882 -6.15519 2.47144 2.65403 -6.70979 2.3499 1.39419 -7.07104 2.21278 
12.4861 0.408237 2.89208 13.7691 1.42317 3.17784 14.5714 2.50944 3.07629 
14.9474 3.66055 2.56741 15.2478 4.86213 2.09651 15.6442 6.16261 2.01739 
15.943 7.64184 2.1067 15.9487 9.18191 1.95673 15.7206 10.4328 1.4956 
12.1424 -0.374361 2.61981 13.1454 -0.272915 2.61939 14.0082 -0.216119 2.58477 
14.8637 -0.262413 2.52668 15.797 -0.420585 2.3934 16.633 -0.597866 2.14594 
17.1179 -0.781757 1.78998 17.2384 -1.08926 1.32531 17.1609 -1.56202 0.757386 
-0.425216 0.384689 -2.10514 -0.163951 0.725717 -1.73852 0.148682 0.847973 -1.32747 
0.404011 0.723517 -0.960851 0.474938 0.446431 -0.730713 0.308574 0.110836 -0.657393 
0.0125098 -0.209327 -0.615571 -0.246588 -0.44076 -0.459234 -0.413499 -0.576463 -0.196728 
2.06257 0.395814 -2.03272 4.90326 1.49615 -1.64853 7.70791 3.2019 -1.1012 
10.1441 5.03646 -0.507204 11.8904 6.56512 -0.151805 12.9189 7.93117 -0.0606319 
13.5782 9.44168 0.0408097 14.2159 10.8132 0.302528 14.8754 11.433 0.632978 
-2.96147 0.333526 -2.59141 -5.12391 1.12255 -2.75419 -6.97162 2.10138 -2.72403 
-8.62723 3.14758 -2.46267 -10.2167 4.28171 -2.03847 -11.7234 5.3329 -1.5312 
-13.1369 5.97847 -1.05025 -14.499 6.21713 -0.720127 -15.7441 6.38235 -0.50896 
2.46394 -0.428055 0.331262 5.81703 1.03163 1.43181 8.46671 3.21049 2.73178 
9.88378 4.94125 3.15011 10.9291 5.92358 2.65171 12.5062 7.13302 2.24903 
14.1169 9.0167 2.25423 14.9578 10.7132 2.08228 15.1972 11.3923 1.52163 
-2.94135 0.00367344 0.216687 -5.02552 1.0975 0.49285 -6.98184 1.97587 0.449361 
-9.02488 2.63358 0.177207 -10.899 3.79413 0.28046 -12.2503 5.48076 0.81719 
-13.2814 6.64191 1.10369 -14.3978 6.79173 0.800362 -15.6172 6.59198 0.236362 
-0.109097 -7.85309 -2.29211 -0.174537 -8.27912 -2.11862 -0.222691 -8.56047 -1.7627 
-0.442416 -8.70814 -1.25608 -0.842095 -8.81432 -0.668314 -1.11927 -8.85291 -0.0117613 
-1.01211 -8.6854 0.682624 -0.608986 -8.28528 1.28991 -0.16467 -7.78003 1.71047 
2.02433 -7.20986 -1.96757 4.28579 -6.84443 -1.57756 6.36332 -6.56476 -1.52142 
8.00763 -6.38466 -1.7462 9.70729 -5.95144 -1.71402 11.9401 -5.17117 -1.20549 
14.2404 -4.39513 -0.632154 15.8303 -3.75417 -0.305544 16.6095 -3.01932 -0.104132 
-1.69077 -7.47458 -2.43855 -3.28012 -7.05438 -2.13392 -5.08675 -6.31727 -1.71175 
-7.38595 -5.63876 -1.60397 -9.70945 -4.92875 -1.57626 -11.4626 -3.79324 -1.04509 
-12.752 -2.3633 -0.150159 -13.8631 -1.12362 0.554323 -14.7133 -0.198758 0.994892 
1.65327 -7.64701 2.06417 3.28133 -7.69901 2.00616 5.38596 -7.24051 1.87254 
8.0003 -6.32568 1.71657 10.681 -5.35647 1.53359 12.9616 -4.67525 1.37804 
14.7163 -4.18776 1.27123 15.9543 -3.60988 1.06925 16.6769 -2.87081 0.662116 
-1.68576 -7.1018 1.55008 -3.94723 -6.83929 1.02355 -6.40146 -6.55734 0.61041 
-8.66454 -6.16783 0.472807 -10.5528 -5.5125 0.570986 -12.1649 -4.49915 0.78688 
-13.498 -3.16781 1.04703 -14.3913 -1.71003 1.28005 -14.8745 -0.398612 1.41186 
16.0445 9.93615 0.810429 16.865 8.42208 0.855326 17.8498 6.99298 0.964406 
18.7591 5.63484 0.911228 19.2675 4.14655 0.675415 19.1655 2.69253 0.45051 
18.5655 1.46934 0.291799 17.8558 0.311369 0.146707 17.3353 -0.921332 0.074123 
-17.7361 7.41498 -0.0791664 -18.5103 8.2134 0.372252 -19.0289 8.21927 0.841774 
-19.3228 7.05894 1.05977 -19.1657 5.546 1.23025 -18.321 4.516 1.63086 
-17.117 3.74118 2.00767 -16.161 2.74952 2.00678 -15.6146 1.61647 1.71986 
-9.08659 -1.15385 -2.92145 -8.43795 -1.05129 -3.04382 -7.02259 -2.09454 -3.23435 
-7.57221 -1.09932 -3.17326 -6.19901 -2.08322 -3.44955 -4.46785 -2.93104 -3.53627 
-6.47985 -1.20141 -3.30183 -5.05393 -2.11583 -3.54696 -3.26764 -2.75932 -3.59025 
-1.2386 -3.1058 -3.38673 -5.24032 -1.20297 -3.35174 -3.60459 -1.99736 -3.40669 
-1.74196 -2.47325 -3.4074 0.277873 -2.58862 -3.21703 2.16724 -2.52707 -2.96643 
-3.84349 -1.09032 -3.1956 -1.95953 -1.62756 -3.0218 -0.0058178 -1.9058 -2.97647 
1.90801 -1.89485 -2.93188 3.62214 -1.73819 -2.84434 4.94499 -1.66067 -2.83553 
-2.24008 -0.915585 -2.86516 -0.215825 -1.13635 -2.57141 1.78986 -1.11396 -2.47215 
3.54634 -0.966437 -2.58075 5.00135 -0.813347 -2.7363 6.11632 -0.759158 -2.87682 
6.89441 -0.874723 -3.03789 -0.53711 -0.637911 -2.53661 1.49471 -0.61825 -2.26784 
3.48575 -0.307361 -2.13075 5.10571 0.0442873 -2.26533 6.32164 0.232126 -2.56559 
7.24033 0.234112 -2.84057 7.91495 0.0922984 -3.03874 8.411 -0.169044 -3.18498 
-12.448 0.296339 -3.16115 -13.9519 1.18007 -3.43427 -11.7717 0.6871 -3.00018 
-15.2246 2.23505 -3.5409 -13.152 1.6527 -3.12923 -10.8076 0.931449 -2.70349 
-15.992 3.40482 -3.36284 -14.2635 2.70131 -3.15328 -11.9944 1.9541 -2.66604 
-9.74437 0.963942 -2.65854 -16.2195 4.53752 -2.9447 -14.8481 3.74818 -2.96653 
-12.959 2.96039 -2.66899 -10.8317 1.98188 -2.64877 -8.79599 0.819613 -3.07734 
-16.1732 5.43846 -2.39098 -14.9251 4.66662 -2.55604 -13.4454 3.90532 -2.55074 
-11.6636 2.93864 -2.6869 -9.78509 1.7807 -3.14214 -7.808 0.588314 -3.52895 
-16.0974 5.97686 -1.77796 -14.781 5.36136 -1.98806 -13.4517 4.75005 -2.19357 
-11.9719 3.85657 -2.51769 -10.3207 2.70525 -3.02412 -8.5422 1.49606 -3.47406 
-6.45926 0.382875 -3.51164 -15.988 6.22575 -1.14581 -14.637 5.84535 -1.35653 
-13.2664 5.44703 -1.64993 -11.8663 4.69022 -2.08186 -10.3476 3.5793 -2.60338 
-8.72334 2.39041 -3.07136 -6.92129 1.26452 -3.25999 -4.75386 0.294024 -3.08821 
-14.56 6.55958 0.0103267 -13.3702 6.68862 0.394634 -13.2924 6.42555 -0.35332 
-12.2794 5.9534 0.339801 -12.1288 6.06132 -0.272373 -11.8698 5.82443 -0.914199 
-11.0095 4.36972 -0.00590306 -10.9207 4.78995 -0.422932 -10.5959 4.92193 -0.928509 
-10.2761 4.74231 -1.47131 -9.2375 3.01243 -0.0612691 -9.33539 3.4006 -0.369366 
-9.16106 3.67763 -0.799859 -8.77699 3.76263 -1.3067 -8.53686 3.59193 -1.86231 
-7.18529 2.24485 0.205014 -7.34371 2.53275 -0.0396606 -7.35195 2.77236 -0.41141 
-7.10925 2.90301 -0.936723 -6.79553 2.87765 -1.51506 -6.74071 2.61169 -2.11564 
[...]
POINT_DATA 1002
FIELD FieldData 4
_paraPhi 1 1002 double
6.2831853072 3.1415926536 6.2831853072 3.1415926536 4.7123889804 4.7123889804 1.5707963268 1.5707963268 3.6951670125 
5.7296109483 2.5880182947 0.5535743589 6.2831853072 6.2831853072 6.2831853072 6.2831853072 3.1415926536 3.1415926536 
3.1415926536 3.1415926536 3.1415926536 6.1053039672 5.898798347 5.6768734901 5.4599499503 5.2659633393 5.1032165617 
4.9713148346 4.8656852733 4.7809517865 0.17788134 0.38438696014 0.60631181711 0.82323535693 1.0172219679 1.1799687454 
1.3118704726 1.4175000338 1.5022335207 6.1892828907 6.1070320098 6.035312792 5.9728339911 5.9183214791 5.8706119594 
5.8286879411 5.7916808611 5.7588591896 0.093902416448 0.17615329733 0.2478725152 0.31035131605 0.36486382811 0.41257334776 
0.45449736604 0.4915044461 0.52432611754 3.3194739936 3.5259796137 3.7479044707 3.9648280105 4.1588146215 4.321561399 
4.4534631262 4.5590926874 4.6438261743 2.9637113136 2.7572056934 2.5352808365 2.3183572967 2.1243706857 1.9616239082 
1.829722181 1.7240926197 1.6393591329 3.23549507 3.3177459509 3.3894651688 3.4519439696 3.5064564817 3.5541660013 
3.5960900196 3.6330970997 3.6659187711 3.0476902371 2.9654393563 2.8937201384 2.8312413375 2.7767288255 2.7290193058 
2.6870952876 2.6500882075 2.617266536 6.2831853072 6.2831853072 6.2831853072 6.2831853072 3.1415926536 3.1415926536 
3.1415926536 3.1415926536 3.1415926536 6.1053039672 5.898798347 5.6768734901 5.4599499503 5.2659633393 5.1032165617 
4.9713148346 4.8656852733 4.7809517865 0.17788134 0.38438696014 0.60631181711 0.82323535693 1.0172219679 1.1799687454 
1.3118704726 1.4175000338 1.5022335207 6.1892828907 6.1070320098 6.035312792 5.9728339911 5.9183214791 5.8706119594 
5.8286879411 5.7916808611 5.7588591896 0.093902416448 0.17615329733 0.2478725152 0.31035131605 0.36486382811 0.41257334776 
0.45449736604 0.4915044461 0.52432611754 3.3194739936 3.5259796137 3.7479044707 3.9648280105 4.1588146215 4.321561399 
4.4534631262 4.5590926874 4.6438261743 2.9637113136 2.7572056934 2.5352808365 2.3183572967 2.1243706857 1.9616239082 
1.829722181 1.7240926197 1.6393591329 3.23549507 3.3177459509 3.3894651688 3.4519439696 3.5064564817 3.5541660013 
3.5960900196 3.6330970997 3.6659187711 3.0476902371 2.9654393563 2.8937201384 2.8312413375 2.7767288255 2.7290193058 
2.6870952876 2.6500882075 2.617266536 4.7123889804 4.7123889804 4.7123889804 4.7123889804 4.7123889804 4.7123889804 
4.7123889804 4.7123889804 4.7123889804 4.6087898617 4.4991390697 4.3857031936 4.2712800401 4.1588146215 4.0509635631 
3.94975894 3.8564636551 3.7716124825 4.8159880991 4.9256388911 5.0390747672 5.1534979207 5.2659633393 5.3738143976 
5.4750190208 5.5683143056 5.6531654782 4.6087898617 4.4991390697 4.3857031936 4.2712800401 4.1588146215 4.0509635631 
3.94975894 3.8564636551 3.7716124825 4.8159880991 4.9256388911 5.0390747672 5.1534979207 5.2659633393 5.3738143976 
5.4750190208 5.5683143056 5.6531654782 1.5707963268 1.5707963268 1.5707963268 1.5707963268 1.5707963268 1.5707963268 
1.5707963268 1.5707963268 1.5707963268 1.6743954455 1.7840462375 1.8974821136 2.0119052671 2.1243706857 2.232221744 
2.3334263672 2.426721652 2.5115728246 1.4671972081 1.3575464161 1.24411054 1.1296873865 1.0172219679 0.90937090954 
0.80816628637 0.71487100155 0.63001982895 1.6743954455 1.7840462375 1.8974821136 2.0119052671 2.1243706857 2.232221744 
2.3334263672 2.426721652 2.5115728246 1.4671972081 1.3575464161 1.24411054 1.1296873865 1.0172219679 0.90937090954 
0.80816628637 0.71487100155 0.63001982895 3.6007720849 3.4966939854 3.3839471039 3.2645756454 3.1415926536 3.0186096618 
2.8992382033 2.7864913217 2.6824132222 5.8240058758 5.9280839753 6.0408308569 6.1602023154 6.2831853072 0.12298299178 
0.2423544503 0.35510133185 0.45917943135 6.0560271438 5.7885595667 5.9702140275 5.5125918794 5.6029703303 5.7885595667 
5.2659633393 5.2659633393 5.2659633393 5.2659633393 5.0674903122 5.0120975802 4.9155579264 4.7123889804 4.1588146215 
4.9155579264 4.8353719722 4.7123889804 4.5092200343 4.1588146215 3.6362183941 4.8004512023 4.7123889804 4.5894059886 
4.4126803806 4.1588146215 3.8218076305 3.4545639333 4.7123889804 4.6243267584 4.5092200343 4.3572876485 4.1588146215 
3.9121860814 3.6362183941 3.368750817 6.0174235957 5.9434319871 5.8263323547 5.8809213739 5.7674481418 5.6279784266 
5.8278025282 5.718968232 5.5891129425 5.4372443565 5.7823484065 5.678536687 5.5575666702 5.4192596322 5.2659633393 
5.743164462 5.6444075337 5.5314983644 5.4046708639 5.2659633393 5.1195510325 5.7091357773 5.6152775188 5.5096229709 
5.3926039573 5.2659633393 5.1329233157 4.9978930058 5.6793730533 5.5901633916 5.4910209005 5.3824597928 5.2659633393 
5.1440684722 5.0201624502 4.8979782167 5.5683143056 5.4750190208 5.4750190208 5.3738143976 5.3738143976 5.3738143976 
5.2659633393 5.2659633393 5.2659633393 5.2659633393 5.1534979207 5.1534979207 5.1534979207 5.1534979207 5.1534979207 
5.0390747672 5.0390747672 5.0390747672 5.0390747672 5.0390747672 5.0390747672 4.9256388911 4.9256388911 4.9256388911 
4.9256388911 4.9256388911 4.9256388911 4.9256388911 4.8159880991 4.8159880991 4.8159880991 4.8159880991 4.8159880991 
4.8159880991 4.8159880991 4.8159880991 4.6087898617 4.6087898617 4.4991390697 4.6087898617 4.4991390697 4.3857031936 
4.6087898617 4.4991390697 4.3857031936 4.2712800401 4.6087898617 4.4991390697 4.3857031936 4.2712800401 4.1588146215 
4.6087898617 4.4991390697 4.3857031936 4.2712800401 4.1588146215 4.0509635631 4.6087898617 4.4991390697 4.3857031936 
4.2712800401 4.1588146215 4.0509635631 3.94975894 4.6087898617 4.4991390697 4.3857031936 4.2712800401 4.1588146215 
4.0509635631 3.94975894 3.8564636551 4.526799744 4.4046155105 4.426884955 4.2807094886 4.2918546451 4.3052269283 
4.1588146215 4.1588146215 4.1588146215 4.1588146215 4.042318168 4.0321740035 4.0201070968 4.0055183285 3.9875336042 
3.9337570603 3.9151549899 3.8932795963 3.8672112905 3.8356650183 3.7967995342 3.8346145692 3.809500442 3.7803704271 
3.7462412737 3.7058097288 3.657329819 3.5984456061 3.7454049075 3.7156421835 3.6816134988 3.6424295543 3.5969754326 
3.5438565869 3.4813459737 3.4073543651 3.5642842451 3.4524645613 3.5233842518 3.3320300872 3.403123212 3.4773852225 
3.20576226 3.2746326772 3.348015857 3.4255060145 3.0774230472 3.1415926536 3.2112816139 3.2864685043 3.3668817272 
2.95115522 3.00855263 3.0719036933 3.1415926536 3.2178377658 3.3005964304 2.8307207459 2.8800620952 2.9351694502 
2.9967168029 3.0653475414 3.1415926536 3.225752376 2.718901062 2.7598010554 2.8058000847 2.8576792927 2.91630358 
2.9825888767 3.0574329311 3.1415926536 3.5642842451 3.5233842518 3.4524645613 3.4773852225 3.403123212 3.3320300872 
3.4255060145 3.348015857 3.2746326772 3.20576226 3.3668817272 3.2864685043 3.2112816139 3.1415926536 3.0774230472 
3.3005964304 3.2178377658 3.1415926536 3.0719036933 3.00855263 2.95115522 3.225752376 3.1415926536 3.0653475414 
2.9967168029 2.9351694502 2.8800620952 2.8307207459 3.1415926536 3.0574329311 2.9825888767 2.91630358 2.8576792927 
2.8058000847 2.7598010554 2.718901062 4.526799744 4.426884955 4.4046155105 4.3052269283 4.2918546451 4.2807094886 
4.1588146215 4.1588146215 4.1588146215 4.1588146215 3.9875336042 4.0055183285 4.0201070968 4.0321740035 4.042318168 
3.7967995342 3.8356650183 3.8672112905 3.8932795963 3.9151549899 3.9337570603 3.5984456061 3.657329819 3.7058097288 
3.7462412737 3.7803704271 3.809500442 3.8346145692 3.4073543651 3.4813459737 3.5438565869 3.5969754326 3.6424295543 
3.6816134988 3.7156421835 3.7454049075 4.7123889804 4.8004512023 4.6243267584 4.9155579264 4.7123889804 4.5092200343 
5.0674903122 4.8353719722 4.5894059886 4.3572876485 5.2659633393 5.0120975802 4.7123889804 4.4126803806 4.1588146215 
5.5125918794 5.2659633393 4.9155579264 4.5092200343 4.1588146215 3.9121860814 5.7885595667 5.6029703303 5.2659633393 
4.7123889804 4.1588146215 3.8218076305 3.6362183941 6.0560271438 5.9702140275 5.7885595667 5.2659633393 4.1588146215 
3.6362183941 3.4545639333 3.368750817 0.22715816343 0.49462574053 0.3129712797 0.77059342779 0.68021497688 0.49462574053 
1.0172219679 1.0172219679 1.0172219679 1.0172219679 1.2156949949 1.271087727 1.3676273807 1.5707963268 2.1243706857 
1.3676273807 1.447813335 1.5707963268 1.7739652728 2.1243706857 2.6469669131 1.4827341049 1.5707963268 1.6937793186 
1.8705049266 2.1243706857 2.4613776767 2.8286213739 1.5707963268 1.6588585487 1.7739652728 1.9258976586 2.1243706857 
2.3709992258 2.6469669131 2.9144344902 1.7563855631 1.8785697967 1.8563003522 2.0024758186 1.9913306621 1.9779583789 
2.1243706857 2.1243706857 2.1243706857 2.1243706857 2.2408671392 2.2510113037 2.2630782103 2.2776669786 2.295651703 
2.3494282469 2.3680303173 2.3899057108 2.4159740166 2.4475202889 2.486385773 2.448570738 2.4736848652 2.5028148801 
2.5369440334 2.5773755784 2.6258554882 2.6847397011 2.5377803997 2.5675431237 2.6015718084 2.6407557529 2.6862098746 
2.7393287203 2.8018393335 2.8758309421 1.6743954455 1.6743954455 1.7840462375 1.6743954455 1.7840462375 1.8974821136 
1.6743954455 1.7840462375 1.8974821136 2.0119052671 1.6743954455 1.7840462375 1.8974821136 2.0119052671 2.1243706857 
1.6743954455 1.7840462375 1.8974821136 2.0119052671 2.1243706857 2.232221744 1.6743954455 1.7840462375 1.8974821136 
2.0119052671 2.1243706857 2.232221744 2.3334263672 1.6743954455 1.7840462375 1.8974821136 2.0119052671 2.1243706857 
2.232221744 2.3334263672 2.426721652 1.4671972081 1.3575464161 1.4671972081 1.24411054 1.3575464161 1.4671972081 
1.1296873865 1.24411054 1.3575464161 1.4671972081 1.0172219679 1.1296873865 1.24411054 1.3575464161 1.4671972081 
0.90937090954 1.0172219679 1.1296873865 1.24411054 1.3575464161 1.4671972081 0.80816628637 0.90937090954 1.0172219679 
1.1296873865 1.24411054 1.3575464161 1.4671972081 0.71487100155 0.80816628637 0.90937090954 1.0172219679 1.1296873865 
1.24411054 1.3575464161 1.4671972081 0.60381225391 0.57404952988 0.69302191562 0.54002084522 0.66790778838 0.79216440667 
0.50083690068 0.63877777351 0.77356233629 0.90072551443 0.45538277901 0.60464862014 0.75168694275 0.89058134991 1.0172219679 
0.40226393329 0.56421707518 0.72561863695 0.87851444325 1.0172219679 1.139116835 0.33975332011 0.51573716537 0.69407236469 
0.86392567495 1.0172219679 1.1502619915 1.2630228569 0.26576171152 0.45685295248 0.6552068806 0.84594095064 1.0172219679 
1.1636342747 1.2852923014 1.3852070904 0.22715816343 0.3129712797 0.49462574053 0.49462574053 0.68021497688 0.77059342779 
1.0172219679 1.0172219679 1.0172219679 1.0172219679 2.1243706857 1.5707963268 1.3676273807 1.271087727 1.2156949949 
2.6469669131 2.1243706857 1.7739652728 1.5707963268 1.447813335 1.3676273807 2.8286213739 2.4613776767 2.1243706857 
1.8705049266 1.6937793186 1.5707963268 1.4827341049 2.9144344902 2.6469669131 2.3709992258 2.1243706857 1.9258976586 
1.7739652728 1.6588585487 1.5707963268 1.7563855631 1.8563003522 1.8785697967 1.9779583789 1.9913306621 2.0024758186 
2.1243706857 2.1243706857 2.1243706857 2.1243706857 2.295651703 2.2776669786 2.2630782103 2.2510113037 2.2408671392 
2.486385773 2.4475202889 2.4159740166 2.3899057108 2.3680303173 2.3494282469 2.6847397011 2.6258554882 2.5773755784 
2.5369440334 2.5028148801 2.4736848652 2.448570738 2.8758309421 2.8018393335 2.7393287203 2.6862098746 2.6407557529 
2.6015718084 2.5675431237 2.5377803997 5.8604937156 5.901393709 5.9723133995 5.9473927383 6.0216547488 6.0927478736 
5.9992719463 6.0767621038 6.1501452836 6.2190157008 6.0578962336 6.1383094565 6.2134963469 0 0.064169606361 
6.1241815303 6.206940195 6.2831853072 0.069688960264 0.13304002361 0.19043743361 6.1990255847 0 0.07624511221 
0.14487585072 0.20642320337 0.26153055843 0.3108719077 0 0.084159722458 0.15900377685 0.22528907359 0.28391336087 
0.3357925689 0.38179159818 0.42269159155 5.8604937156 5.9723133995 5.901393709 6.0927478736 6.0216547488 5.9473927383 
6.2190157008 6.1501452836 6.0767621038 5.9992719463 0.064169606361 0 6.2134963469 6.1383094565 6.0578962336 
0.19043743361 0.13304002361 0.069688960264 6.2831853072 6.206940195 6.1241815303 0.3108719077 0.26153055843 0.20642320337 
0.14487585072 0.07624511221 6.2831853072 6.1990255847 0.42269159155 0.38179159818 0.3357925689 0.28391336087 0.22528907359 
0.15900377685 0.084159722458 0 5.6793730533 5.7091357773 5.5901633916 5.743164462 5.6152775188 5.4910209005 
5.7823484065 5.6444075337 5.5096229709 5.3824597928 5.8278025282 5.678536687 5.5314983644 5.3926039573 5.2659633393 
5.8809213739 5.718968232 5.5575666702 5.4046708639 5.2659633393 5.1440684722 5.9434319871 5.7674481418 5.5891129425 
5.4192596322 5.2659633393 5.1329233157 5.0201624502 6.0174235957 5.8263323547 5.6279784266 5.4372443565 5.2659633393 
5.1195510325 4.9978930058 4.8979782167 1.3852070904 1.2852923014 1.2630228569 1.1636342747 1.1502619915 1.139116835 
1.0172219679 1.0172219679 1.0172219679 1.0172219679 0.84594095064 0.86392567495 0.87851444325 0.89058134991 0.90072551443 
0.6552068806 0.69407236469 0.72561863695 0.75168694275 0.77356233629 0.79216440667 0.45685295248 0.51573716537 0.56421707518 
0.60464862014 0.63877777351 0.66790778838 0.69302191562 0.26576171152 0.33975332011 0.40226393329 0.45538277901 0.50083690068 
0.54002084522 0.57404952988 0.60381225391 
_paraPhiHalf 1 1002 double
0 3.1415926536 0 3.1415926536 1.5707963268 1.5707963268 1.5707963268 1.5707963268 2.5880182947 
0.5535743589 2.5880182947 0.5535743589 0 0 0 0 3.1415926536 3.1415926536 
3.1415926536 3.1415926536 3.1415926536 0.17788134 0.38438696014 0.60631181711 0.82323535693 1.0172219679 1.1799687454 
1.3118704726 1.4175000338 1.5022335207 0.17788134 0.38438696014 0.60631181711 0.82323535693 1.0172219679 1.1799687454 
1.3118704726 1.4175000338 1.5022335207 0.093902416448 0.17615329733 0.2478725152 0.31035131605 0.36486382811 0.41257334776 
0.45449736604 0.4915044461 0.52432611754 0.093902416448 0.17615329733 0.2478725152 0.31035131605 0.36486382811 0.41257334776 
0.45449736604 0.4915044461 0.52432611754 2.9637113136 2.7572056934 2.5352808365 2.3183572967 2.1243706857 1.9616239082 
1.829722181 1.7240926197 1.6393591329 2.9637113136 2.7572056934 2.5352808365 2.3183572967 2.1243706857 1.9616239082 
1.829722181 1.7240926197 1.6393591329 3.0476902371 2.9654393563 2.8937201384 2.8312413375 2.7767288255 2.7290193058 
2.6870952876 2.6500882075 2.617266536 3.0476902371 2.9654393563 2.8937201384 2.8312413375 2.7767288255 2.7290193058 
2.6870952876 2.6500882075 2.617266536 0 0 0 0 3.1415926536 3.1415926536 
3.1415926536 3.1415926536 3.1415926536 0.17788134 0.38438696014 0.60631181711 0.82323535693 1.0172219679 1.1799687454 
1.3118704726 1.4175000338 1.5022335207 0.17788134 0.38438696014 0.60631181711 0.82323535693 1.0172219679 1.1799687454 
1.3118704726 1.4175000338 1.5022335207 0.093902416448 0.17615329733 0.2478725152 0.31035131605 0.36486382811 0.41257334776 
0.45449736604 0.4915044461 0.52432611754 0.093902416448 0.17615329733 0.2478725152 0.31035131605 0.36486382811 0.41257334776 
0.45449736604 0.4915044461 0.52432611754 2.9637113136 2.7572056934 2.5352808365 2.3183572967 2.1243706857 1.9616239082 
1.829722181 1.7240926197 1.6393591329 2.9637113136 2.7572056934 2.5352808365 2.3183572967 2.1243706857 1.9616239082 
1.829722181 1.7240926197 1.6393591329 3.0476902371 2.9654393563 2.8937201384 2.8312413375 2.7767288255 2.7290193058 
2.6870952876 2.6500882075 2.617266536 3.0476902371 2.9654393563 2.8937201384 2.8312413375 2.7767288255 2.7290193058 
2.6870952876 2.6500882075 2.617266536 1.5707963268 1.5707963268 1.5707963268 1.5707963268 1.5707963268 1.5707963268 
1.5707963268 1.5707963268 1.5707963268 1.6743954455 1.7840462375 1.8974821136 2.0119052671 2.1243706857 2.232221744 
2.3334263672 2.426721652 2.5115728246 1.4671972081 1.3575464161 1.24411054 1.1296873865 1.0172219679 0.90937090954 
0.80816628637 0.71487100155 0.63001982895 1.6743954455 1.7840462375 1.8974821136 2.0119052671 2.1243706857 2.232221744 
2.3334263672 2.426721652 2.5115728246 1.4671972081 1.3575464161 1.24411054 1.1296873865 1.0172219679 0.90937090954 
0.80816628637 0.71487100155 0.63001982895 1.5707963268 1.5707963268 1.5707963268 1.5707963268 1.5707963268 1.5707963268 
1.5707963268 1.5707963268 1.5707963268 1.6743954455 1.7840462375 1.8974821136 2.0119052671 2.1243706857 2.232221744 
2.3334263672 2.426721652 2.5115728246 1.4671972081 1.3575464161 1.24411054 1.1296873865 1.0172219679 0.90937090954 
0.80816628637 0.71487100155 0.63001982895 1.6743954455 1.7840462375 1.8974821136 2.0119052671 2.1243706857 2.232221744 
2.3334263672 2.426721652 2.5115728246 1.4671972081 1.3575464161 1.24411054 1.1296873865 1.0172219679 0.90937090954 
0.80816628637 0.71487100155 0.63001982895 2.6824132222 2.7864913217 2.8992382033 3.0186096618 3.1415926536 3.0186096618 
2.8992382033 2.7864913217 2.6824132222 0.45917943135 0.35510133185 0.2423544503 0.12298299178 0 0.12298299178 
0.2423544503 0.35510133185 0.45917943135 0.22715816343 0.49462574053 0.3129712797 0.77059342779 0.68021497688 0.49462574053 
1.0172219679 1.0172219679 1.0172219679 1.0172219679 1.2156949949 1.271087727 1.3676273807 1.5707963268 2.1243706857 
1.3676273807 1.447813335 1.5707963268 1.7739652728 2.1243706857 2.6469669131 1.4827341049 1.5707963268 1.6937793186 
1.8705049266 2.1243706857 2.4613776767 2.8286213739 1.5707963268 1.6588585487 1.7739652728 1.9258976586 2.1243706857 
2.3709992258 2.6469669131 2.9144344902 0.26576171152 0.33975332011 0.45685295248 0.40226393329 0.51573716537 0.6552068806 
0.45538277901 0.56421707518 0.69407236469 0.84594095064 0.50083690068 0.60464862014 0.72561863695 0.86392567495 1.0172219679 
0.54002084522 0.63877777351 0.75168694275 0.87851444325 1.0172219679 1.1636342747 0.57404952988 0.66790778838 0.77356233629 
0.89058134991 1.0172219679 1.1502619915 1.2852923014 0.60381225391 0.69302191562 0.79216440667 0.90072551443 1.0172219679 
1.139116835 1.2630228569 1.3852070904 0.71487100155 0.80816628637 0.80816628637 0.90937090954 0.90937090954 0.90937090954 
1.0172219679 1.0172219679 1.0172219679 1.0172219679 1.1296873865 1.1296873865 1.1296873865 1.1296873865 1.1296873865 
1.24411054 1.24411054 1.24411054 1.24411054 1.24411054 1.24411054 1.3575464161 1.3575464161 1.3575464161 
1.3575464161 1.3575464161 1.3575464161 1.3575464161 1.4671972081 1.4671972081 1.4671972081 1.4671972081 1.4671972081 
1.4671972081 1.4671972081 1.4671972081 1.6743954455 1.6743954455 1.7840462375 1.6743954455 1.7840462375 1.8974821136 
1.6743954455 1.7840462375 1.8974821136 2.0119052671 1.6743954455 1.7840462375 1.8974821136 2.0119052671 2.1243706857 
1.6743954455 1.7840462375 1.8974821136 2.0119052671 2.1243706857 2.232221744 1.6743954455 1.7840462375 1.8974821136 
2.0119052671 2.1243706857 2.232221744 2.3334263672 1.6743954455 1.7840462375 1.8974821136 2.0119052671 2.1243706857 
2.232221744 2.3334263672 2.426721652 1.7563855631 1.8785697967 1.8563003522 2.0024758186 1.9913306621 1.9779583789 
2.1243706857 2.1243706857 2.1243706857 2.1243706857 2.2408671392 2.2510113037 2.2630782103 2.2776669786 2.295651703 
2.3494282469 2.3680303173 2.3899057108 2.4159740166 2.4475202889 2.486385773 2.448570738 2.4736848652 2.5028148801 
2.5369440334 2.5773755784 2.6258554882 2.6847397011 2.5377803997 2.5675431237 2.6015718084 2.6407557529 2.6862098746 
2.7393287203 2.8018393335 2.8758309421 2.718901062 2.8307207459 2.7598010554 2.95115522 2.8800620952 2.8058000847 
3.0774230472 3.00855263 2.9351694502 2.8576792927 3.0774230472 3.1415926536 3.0719036933 2.9967168029 2.91630358 
2.95115522 3.00855263 3.0719036933 3.1415926536 3.0653475414 2.9825888767 2.8307207459 2.8800620952 2.9351694502 
2.9967168029 3.0653475414 3.1415926536 3.0574329311 2.718901062 2.7598010554 2.8058000847 2.8576792927 2.91630358 
2.9825888767 3.0574329311 3.1415926536 2.718901062 2.7598010554 2.8307207459 2.8058000847 2.8800620952 2.95115522 
2.8576792927 2.9351694502 3.00855263 3.0774230472 2.91630358 2.9967168029 3.0719036933 3.1415926536 3.0774230472 
2.9825888767 3.0653475414 3.1415926536 3.0719036933 3.00855263 2.95115522 3.0574329311 3.1415926536 3.0653475414 