# vtk DataFile Version 5.1
vtk output
ASCII
DATASET POLYDATA
POINTS 100 float
0.464541 0.763805 0.833187 0.464375 0.763635 0.832956 0.463832 0.763282 0.832012 
0.462846 0.762706 0.830263 0.461311 0.761843 0.827569 0.459091 0.760629 0.823758 
0.456031 0.759013 0.818648 0.451966 0.756967 0.812067 0.446739 0.754505 0.803877 
0.440206 0.751686 0.793991 0.432253 0.74861 0.782382 0.422796 0.74541 0.769093 
0.411794 0.742235 0.754233 0.399245 0.739225 0.737969 0.385188 0.736491 0.720512 
0.369702 0.734086 0.702097 0.352898 0.731991 0.682965 0.334916 0.730099 0.663338 
0.315913 0.728215 0.643406 0.296065 0.726064 0.623313 0.275551 0.723313 0.603146 
0.254555 0.719594 0.582936 0.233254 0.71454 0.562665 0.211821 0.707821 0.54227 
0.190416 0.699173 0.521661 0.169188 0.688426 0.500737 0.148269 0.675519 0.4794 
0.127776 0.660505 0.45757 0.107806 0.64354 0.435196 0.0884376 0.624863 0.412264 
0.06973 0.604766 0.388798 0.0517212 0.583556 0.364861 0.0344297 0.561519 0.340543 
0.017856 0.538879 0.315959 0.00198489 0.515776 0.291236 -0.0132107 0.492243 0.266502 
-0.027765 0.468204 0.24188 -0.0417136 0.443479 0.217481 -0.0550875 0.417808 0.193396 
-0.0679075 0.390876 0.1697 -0.0801784 0.362357 0.146453 -0.0918854 0.331949 0.1237 
-0.102992 0.299412 0.101478 -0.113438 0.264599 0.0798193 -0.123146 0.22748 0.0587556 
-0.132021 0.188147 0.0383189 -0.13996 0.146817 0.0185416 -0.146861 0.103814 -0.000545964 
-0.152629 0.0595502 -0.0189195 -0.157186 0.0144887 -0.0365655 -0.160482 -0.0308835 -0.0534866 
-0.162496 -0.0760918 -0.0697058 -0.163247 -0.120702 -0.0852688 -0.16279 -0.164345 -0.100244 
-0.161215 -0.206727 -0.114722 -0.158646 -0.247643 -0.128807 -0.15523 -0.286966 -0.142611 
-0.151128 -0.324644 -0.156248 -0.14651 -0.360686 -0.169817 -0.141539 -0.395142 -0.183401 
-0.136364 -0.428088 -0.197055 -0.131113 -0.459614 -0.210804 -0.125888 -0.489808 -0.224638 
-0.120758 -0.518753 -0.238518 -0.115768 -0.546518 -0.25238 -0.110935 -0.573164 -0.266144 
-0.106253 -0.598743 -0.279723 -0.101707 -0.623302 -0.293037 -0.0972731 -0.646886 -0.306021 
-0.0929318 -0.669544 -0.318633 -0.0886717 -0.691326 -0.330866 -0.0844959 -0.712284 -0.342744 
-0.0804247 -0.732472 -0.354325 -0.0764967 -0.751938 -0.365695 -0.0727661 -0.770727 -0.37696 
-0.0692993 -0.788874 -0.388235 -0.0661686 -0.806405 -0.399633 -0.0634454 -0.823341 -0.411249 
-0.0611933 -0.839695 -0.423156 -0.0594608 -0.855485 -0.435391 -0.0582764 -0.870731 -0.447949 
-0.0576446 -0.885464 -0.460783 -0.0575445 -0.899728 -0.473806 -0.0579306 -0.913581 -0.486895 
-0.0587355 -0.92709 -0.499899 -0.0598754 -0.940325 -0.512651 -0.0612558 -0.95335 -0.524978 
-0.062779 -0.966212 -0.536712 -0.0643506 -0.978928 -0.547703 -0.0658862 -0.991474 -0.557827 
-0.0673164 -1.00378 -0.566988 -0.0685901 -1.01571 -0.575125 -0.0696758 -1.0271 -0.582212 
-0.070561 -1.03771 -0.588251 -0.0712496 -1.04731 -0.593266 -0.071758 -1.05563 -0.597301 
-0.07211 -1.06241 -0.600404 -0.0723315 -1.06741 -0.602625 -0.0724455 -1.07047 -0.604002 
-0.072468 -1.07147 -0.604561 
LINES 2 100
OFFSETS vtktypeint64
0 100 
CONNECTIVITY vtktypeint64
0 1 2 3 4 5 6 7 8 
9 10 11 12 13 14 15 16 17 
18 19 20 21 22 23 24 25 26 
27 28 29 30 31 32 33 34 35 
36 37 38 39 40 41 42 43 44 
45 46 47 48 49 50 51 52 53 
54 55 56 57 58 59 60 61 62 
63 64 65 66 67 68 69 70 71 
72 73 74 75 76 77 78 79 80 
81 82 83 84 85 86 87 88 89 
90 91 92 93 94 95 96 97 98 
99 
POINT_DATA 100
FIELD FieldData 3
_theta 1 100 double
0 0.031733259127 0.063466518254 0.095199777382 0.12693303651 0.15866629564 0.19039955476 0.22213281389 0.25386607302 
0.28559933214 0.31733259127 0.3490658504 0.38079910953 0.41253236865 0.44426562778 0.47599888691 0.50773214603 0.53946540516 
0.57119866429 0.60293192342 0.63466518254 0.66639844167 0.6981317008 0.72986495992 0.76159821905 0.79333147818 0.82506473731 
0.85679799643 0.88853125556 0.92026451469 0.95199777382 0.98373103294 1.0154642921 1.0471975512 1.0789308103 1.1106640695 
1.1423973286 1.1741305877 1.2058638468 1.237597106 1.2693303651 1.3010636242 1.3327968833 1.3645301425 1.3962634016 
1.4279966607 1.4597299198 1.491463179 1.5231964381 1.5549296972 1.5866629564 1.6183962155 1.6501294746 1.6818627337 
1.7135959929 1.745329252 1.7770625111 1.8087957702 1.8405290294 1.8722622885 1.9039955476 1.9357288068 1.9674620659 
1.999195325 2.0309285841 2.0626618433 2.0943951024 2.1261283615 2.1578616206 2.1895948798 2.2213281389 2.253061398 
2.2847946572 2.3165279163 2.3482611754 2.3799944345 2.4117276937 2.4434609528 2.4751942119 2.506927471 2.5386607302 
2.5703939893 2.6021272484 2.6338605076 2.6655937667 2.6973270258 2.7290602849 2.7607935441 2.7925268032 2.8242600623 
2.8559933214 2.8877265806 2.9194598397 2.9511930988 2.982926358 3.0146596171 3.0463928762 3.0781261353 3.1098593945 
3.1415926536 
_radius 1 100 double
1.2375376729e-15 0.019023964695 0.037914973715 0.056529035057 0.074724254337 0.092362857314 0.10931378759 0.1254559628 0.14068212685 
0.15490296573 0.16805080271 0.18008191212 0.19097652414 0.20073611768 0.2093785624 0.21693262564 0.2234336033 0.22892104266 
0.2334382862 0.23703288259 0.2397571456 0.24166877902 0.24283184589 0.24331821676 0.2432091932 0.24259660099 0.24158250439 
0.2402768501 0.23879265944 0.23723862516 0.23570916355 0.23427275847 0.23296172101 0.23176949794 0.23066093822 0.22959299375 
0.22853470349 0.22747634447 0.22642689414 0.22540668391 0.22444328437 0.22357473603 0.22285883757 0.22238317247 0.22226921167 
0.22266533854 0.22372741673 0.22559030871 0.22833791824 0.23198163567 0.23645684051 0.24164274665 0.24740086838 0.25361647815 
0.2602243667 0.26720557117 0.27455011299 0.2821962158 0.2899822387 0.29764927485 0.30488779337 0.31139156771 0.31689741476 
0.32120933201 0.32421060846 0.32586579075 0.32621305786 0.3253479391 0.32340068058 0.32051092465 0.31680403933 0.31237325124 
0.30727085035 0.30151027474 0.2950788632 0.28795867096 0.28015048478 0.27169476495 0.26268350188 0.25325927373 0.24360122627 
0.23390055927 0.22432958394 0.21500924155 0.20598102918 0.19718998544 0.18848409576 0.17963157614 0.17035255729 0.16035814097 
0.14938889485 0.13724622292 0.12381258153 0.10905919516 0.093042193418 0.075889775673 0.057784126117 0.038942287619 0.019599855438 
1.8915272488e-15 
_area 1 100 double
0 0.00098799353293 0.0039394344458 0.0088131107748 0.015529064315 0.023954375848 0.03388905914 0.045057696802 0.05711234885 
0.069650231952 0.082245905283 0.094493140221 0.1060479356 0.11666280815 0.12620388372 0.13464584537 0.14204488606 0.1484958783 
0.15408633125 0.15886431506 0.16283412937 0.16597867443 0.16829292815 0.16981124469 0.17061711391 0.17082828521 0.17055782298 
0.1698742467 0.1687987009 0.16734316863 0.16555225051 0.16351726561 0.16135829826 0.15918909943 0.15709261062 0.15513751321 
0.15334932718 0.15180577949 0.15072075067 0.15014355879 0.15009645906 0.15057858929 0.15152195568 0.15284418356 0.15450334987 
0.15651415891 0.15894543064 0.16190609862 0.16551097379 0.16981984589 0.17478934317 0.1802923647 0.18619382211 0.19248544093 
0.19939446528 0.20734609743 0.21675295133 0.22778140464 0.24030984218 0.25397465515 0.26814569441 0.28194024407 0.29438761644 
0.30464901532 0.31217649807 0.31679835115 0.31875211266 0.31863799972 0.3171471414 0.31463686169 0.31104263678 0.30608224258 
0.29942310519 0.29077437318 0.27996391352 0.26699959344 0.25210814654 0.23574404716 0.21856011472 0.20133410581 0.18485460107 
0.16977782635 0.15647510092 0.1449309052 0.13478749568 0.12550151694 0.11648498892 0.1072100777 0.097293686762 0.086552283611 
0.075019554532 0.06293145963 0.050686811349 0.038789954718 0.027781754486 0.018168098579 0.010359755483 0.004639181886 0.0011638135861 
1.3183898417e-16 
