# vtk DataFile Version 5.1
vtk output
ASCII
DATASET POLYDATA
POINTS 100 float
0.310141 0.845197 0.664734 0.310022 0.843882 0.66418 0.309594 0.840093 0.662651 
0.308788 0.834171 0.660134 0.307497 0.826633 0.656617 0.305591 0.818107 0.652091 
0.302924 0.809253 0.646558 0.299356 0.800681 0.640039 0.294761 0.792882 0.632578 
0.289043 0.786168 0.62424 0.282149 0.78064 0.615115 0.274071 0.776184 0.605305 
0.264849 0.772496 0.59492 0.254573 0.769124 0.584064 0.243371 0.765542 0.572825 
0.231404 0.761214 0.561262 0.218852 0.755673 0.549399 0.205898 0.748579 0.53722 
0.192718 0.739756 0.524667 0.179471 0.729215 0.511648 0.166281 0.717138 0.49805 
0.153243 0.703845 0.48375 0.140409 0.68974 0.468633 0.127798 0.675241 0.452612 
0.115398 0.660716 0.435639 0.103174 0.646418 0.417722 0.0910755 0.632443 0.398927 
0.0790515 0.618703 0.379378 0.0670554 0.604933 0.359255 0.0550553 0.590714 0.338771 
0.0430394 0.575523 0.318164 0.0310184 0.558801 0.29767 0.0190259 0.540013 0.277499 
0.00711518 0.518724 0.257824 -0.0046457 0.494646 0.238755 -0.0161801 0.46768 0.220335 
-0.0274095 0.43792 0.202538 -0.0382601 0.405645 0.185271 -0.0486671 0.371281 0.168387 
-0.0585779 0.335345 0.151705 -0.0679528 0.298387 0.135028 -0.0767638 0.260918 0.118168 
-0.0849905 0.223357 0.100968 -0.092617 0.185985 0.0833164 -0.0996263 0.148925 0.0651621 
-0.105997 0.11214 0.0465195 -0.111699 0.0754565 0.0274659 -0.116698 0.0386093 0.00813354 
-0.12095 0.00129354 -0.0113054 -0.124412 -0.0367739 -0.0306568 -0.127045 -0.0757974 -0.049725 
-0.128822 -0.115856 -0.0683324 -0.129736 -0.156874 -0.0863365 -0.129806 -0.198612 -0.103642 
-0.129083 -0.24068 -0.12021 -0.127652 -0.282569 -0.136054 -0.125627 -0.3237 -0.15124 
-0.123151 -0.363478 -0.165873 -0.120382 -0.401353 -0.180085 -0.117487 -0.436871 -0.194017 
-0.114625 -0.469713 -0.207805 -0.111936 -0.499722 -0.221567 -0.109529 -0.526908 -0.235389 
-0.107473 -0.551434 -0.249321 -0.105792 -0.573587 -0.263371 -0.104467 -0.593744 -0.277513 
-0.103437 -0.61232 -0.291689 -0.102612 -0.629732 -0.30582 -0.101881 -0.646354 -0.319817 
-0.101133 -0.662496 -0.33359 -0.100266 -0.678386 -0.34706 -0.0992043 -0.694167 -0.360165 
-0.0979104 -0.709908 -0.372868 -0.0963883 -0.725624 -0.385156 -0.0946861 -0.741293 -0.397039 
-0.0928916 -0.756884 -0.408547 -0.0911223 -0.772368 -0.419727 -0.0895116 -0.787738 -0.43063 
-0.0881925 -0.803001 -0.441308 -0.087281 -0.818182 -0.451804 -0.0868606 -0.833302 -0.462152 
-0.0869699 -0.84837 -0.472367 -0.0875962 -0.863359 -0.482446 -0.0886742 -0.878197 -0.492368 
-0.0900909 -0.89276 -0.502094 -0.0916969 -0.906871 -0.511574 -0.0933217 -0.920316 -0.520743 
-0.0947923 -0.932856 -0.529534 -0.095952 -0.944258 -0.537875 -0.0966787 -0.95432 -0.545697 
-0.096898 -0.962898 -0.552934 -0.0965929 -0.96992 -0.559528 -0.0958055 -0.975406 -0.565426 
-0.0946325 -0.979458 -0.570588 -0.0932147 -0.982259 -0.574977 -0.0917205 -0.984039 -0.578569 
-0.0903273 -0.985056 -0.581345 -0.0892006 -0.985558 -0.583291 -0.0884752 -0.985751 -0.584402 
-0.0882393 -0.985773 -0.584674 
LINES 2 100
OFFSETS vtktypeint64
0 100 
CONNECTIVITY vtktypeint64
0 1 2 3 4 5 6 7 8 
9 10 11 12 13 14 15 16 17 
18 19 20 21 22 23 24 25 26 
27 28 29 30 31 32 33 34 35 
36 37 38 39 40 41 42 43 44 
45 46 47 48 49 50 51 52 53 
54 55 56 57 58 59 60 61 62 
63 64 65 66 67 68 69 70 71 
72 73 74 75 76 77 78 79 80 
81 82 83 84 85 86 87 88 89 
90 91 92 93 94 95 96 97 98 
99 
POINT_DATA 100
FIELD FieldData 3
_theta 1 100 double
0 0.031733259127 0.063466518254 0.095199777382 0.12693303651 0.15866629564 0.19039955476 0.22213281389 0.25386607302 
0.28559933214 0.31733259127 0.3490658504 0.38079910953 0.41253236865 0.44426562778 0.47599888691 0.50773214603 0.53946540516 
0.57119866429 0.60293192342 0.63466518254 0.66639844167 0.6981317008 0.72986495992 0.76159821905 0.79333147818 0.82506473731 
0.85679799643 0.88853125556 0.92026451469 0.95199777382 0.98373103294 1.0154642921 1.0471975512 1.0789308103 1.1106640695 
1.1423973286 1.1741305877 1.2058638468 1.237597106 1.2693303651 1.3010636242 1.3327968833 1.3645301425 1.3962634016 
1.4279966607 1.4597299198 1.491463179 1.5231964381 1.5549296972 1.5866629564 1.6183962155 1.6501294746 1.6818627337 
1.7135959929 1.745329252 1.7770625111 1.8087957702 1.8405290294 1.8722622885 1.9039955476 1.9357288068 1.9674620659 
1.999195325 2.0309285841 2.0626618433 2.0943951024 2.1261283615 2.1578616206 2.1895948798 2.2213281389 2.253061398 
2.2847946572 2.3165279163 2.3482611754 2.3799944345 2.4117276937 2.4434609528 2.4751942119 2.506927471 2.5386607302 
2.5703939893 2.6021272484 2.6338605076 2.6655937667 2.6973270258 2.7290602849 2.7607935441 2.7925268032 2.8242600623 
2.8559933214 2.8877265806 2.9194598397 2.9511930988 2.982926358 3.0146596171 3.0463928762 3.0781261353 3.1098593945 
3.1415926536 
_radius 1 100 double
1.2560739669e-15 0.015617884088 0.031469531512 0.04779562102 0.064813722201 0.082676275907 0.10141109275 0.1208747866 0.14074411149 
0.16054299106 0.17969261925 0.197575992 0.21360968151 0.22731356384 0.23836832621 0.24665239127 0.25225332024 0.25545257215 
0.2566861147 0.25648656777 0.25541509824 0.25399291606 0.25264272845 0.25164965382 0.25114826372 0.25113682219 0.25151229366 
0.2521141025 0.25276469756 0.25330005488 0.2535891011 0.25354427289 0.25312575244 0.25234097194 0.25124020721 0.24990878941 
0.24845638065 0.24700382228 0.24566843262 0.24454927334 0.24371453931 0.2431935528 0.24297558505 0.24301663974 0.24325349694 
0.24362237995 0.24407841963 0.24461209347 0.24525983646 0.24610750973 0.24728670796 0.24896443647 0.25132641564 0.25455394269 
0.25879522809 0.26413503843 0.2705696008 0.27799382908 0.28620399228 0.29491385486 0.30377955796 0.31242867253 0.32049026957 
0.32762384561 0.33354495106 0.33804492402 0.3410021525 0.34238323806 0.34223404545 0.3406623031 0.33781473487 0.33385247973 
0.32892870453 0.32317173845 0.31667577581 0.30949953466 0.3016717806 0.29320175245 0.28409225139 0.27435314256 0.26401300209 
0.25312665855 0.24177667513 0.23006763879 0.21811352468 0.20602014178 0.19386616846 0.18168686467 0.16946385341 0.15712280302 
0.14453933799 0.13155262335 0.11798555442 0.10366986874 0.088473713506 0.072328377545 0.055250023721 0.037351588593 0.018840468244 
2.1079779949e-15 
_area 1 100 double
0 0.00049323605309 0.0020464606589 0.0048853207837 0.0093770875035 0.015969742129 0.025088362801 0.037020828838 0.051812481939 
0.069175804527 0.088438657816 0.10857488367 0.12833625314 0.14645629598 0.16186796308 0.17387630704 0.18224590885 0.18719118785 
0.18928466968 0.18931514628 0.18813365382 0.18652116872 0.18509617145 0.18426171497 0.18418833601 0.18483761499 0.18602697819 
0.18751610677 0.1890838597 0.19057404538 0.19190675982 0.19306573174 0.19407531425 0.19497520801 0.19579578538 0.19653933004 
0.19717679643 0.19766459213 0.19797287888 0.19810805848 0.19811567775 0.19806493513 0.19802954232 0.19807445449 0.19824317172 
0.19854468491 0.19895585996 0.19945330548 0.20006554486 0.20091131724 0.20219071307 0.20414615438 0.20704104131 0.21115453899 
0.21677181115 0.22418125969 0.23368135963 0.24552926286 0.25973064676 0.27583246195 0.2930225404 0.31036531652 0.32693852898 
0.34189341098 0.3544983554 0.36418131247 0.3705617647 0.37346114704 0.3728890819 0.36901171166 0.36211250029 0.35255559508 
0.34076089362 0.32719557924 0.31237014831 0.29680933153 0.2809822299 0.26522180413 0.24968684058 0.23438351275 0.21921940898 
0.20406125225 0.18878661605 0.17332773727 0.15770086873 0.14201137935 0.12643200001 0.11116358547 0.096394200236 0.08227118261 
0.068894886737 0.056334161528 0.0446552574 0.033951099701 0.024358694539 0.016059477815 0.0092659827711 0.0042000492659 0.0010632500885 
1.3877787808e-17 
