# vtk DataFile Version 5.1
vtk output
ASCII
DATASET POLYDATA
POINTS 100 float
-109.637 -100.52 98.384 -109.637 -100.537 98.3846 -109.636 -100.59 98.3877 
-109.639 -100.674 98.3911 -109.652 -100.783 98.3912 -109.68 -100.908 98.3834 
-109.73 -101.038 98.3631 -109.809 -101.166 98.3253 -109.922 -101.282 98.2662 
-110.073 -101.382 98.1825 -110.261 -101.463 98.0726 -110.486 -101.523 97.9363 
-110.743 -101.565 97.7748 -111.026 -101.594 97.5905 -111.33 -101.617 97.3869 
-111.645 -101.639 97.168 -111.965 -101.668 96.938 -112.284 -101.71 96.7006 
-112.597 -101.769 96.4591 -112.9 -101.848 96.2156 -113.194 -101.948 95.9713 
-113.48 -102.067 95.7261 -113.761 -102.204 95.4789 -114.04 -102.354 95.2282 
-114.323 -102.515 94.9715 -114.612 -102.684 94.7065 -114.913 -102.858 94.4312 
-115.227 -103.037 94.1439 -115.555 -103.222 93.8436 -115.897 -103.413 93.5304 
-116.251 -103.614 93.2049 -116.616 -103.828 92.8687 -116.987 -104.059 92.5236 
-117.363 -104.308 92.1721 -117.74 -104.579 91.8164 -118.118 -104.873 91.4587 
-118.494 -105.19 91.1007 -118.869 -105.53 90.7435 -119.244 -105.891 90.3877 
-119.619 -106.272 90.0334 -119.996 -106.672 89.6799 -120.375 -107.09 89.3267 
-120.755 -107.527 88.9726 -121.135 -107.984 88.617 -121.512 -108.463 88.2592 
-121.881 -108.967 87.8991 -122.237 -109.497 87.537 -122.573 -110.057 87.1736 
-122.883 -110.648 86.8102 -123.16 -111.268 86.4482 -123.399 -111.917 86.0894 
-123.597 -112.591 85.7355 -123.749 -113.283 85.388 -123.857 -113.986 85.0483 
-123.922 -114.694 84.7173 -123.947 -115.396 84.3956 -123.937 -116.086 84.0833 
-123.899 -116.757 83.7803 -123.838 -117.403 83.4862 -123.761 -118.022 83.2004 
-123.673 -118.613 82.9223 -123.581 -119.176 82.6515 -123.486 -119.716 82.3875 
-123.391 -120.236 82.1303 -123.298 -120.74 81.88 -123.206 -121.233 81.6367 
-123.114 -121.718 81.4008 -123.02 -122.197 81.1727 -122.924 -122.671 80.9528 
-122.824 -123.138 80.7412 -122.718 -123.595 80.5382 -122.607 -124.039 80.3436 
-122.491 -124.466 80.1569 -122.371 -124.871 79.9778 -122.249 -125.252 79.8054 
-122.127 -125.605 79.6391 -122.008 -125.932 79.478 -121.894 -126.232 79.3215 
-121.787 -126.508 79.169 -121.69 -126.766 79.02 -121.603 -127.009 78.8743 
-121.528 -127.244 78.7321 -121.467 -127.474 78.5934 -121.419 -127.704 78.4588 
-121.384 -127.936 78.3287 -121.363 -128.172 78.2037 -121.355 -128.41 78.0846 
-121.359 -128.648 77.972 -121.374 -128.884 77.8666 -121.399 -129.113 77.769 
-121.432 -129.331 77.6798 -121.471 -129.534 77.5993 -121.514 -129.718 77.5281 
-121.558 -129.88 77.4663 -121.601 -130.019 77.4142 -121.641 -130.132 77.372 
-121.675 -130.22 77.3398 -121.702 -130.283 77.3176 -121.718 -130.321 77.3053 
-121.724 -130.334 77.3031 
LINES 2 100
OFFSETS vtktypeint64
0 100 
CONNECTIVITY vtktypeint64
0 1 2 3 4 5 6 7 8 
9 10 11 12 13 14 15 16 17 
18 19 20 21 22 23 24 25 26 
27 28 29 30 31 32 33 34 35 
36 37 38 39 40 41 42 43 44 
45 46 47 48 49 50 51 52 53 
54 55 56 57 58 59 60 61 62 
63 64 65 66 67 68 69 70 71 
72 73 74 75 76 77 78 79 80 
81 82 83 84 85 86 87 88 89 
90 91 92 93 94 95 96 97 98 
99 
POINT_DATA 100
FIELD FieldData 3
_theta 1 100 double
0 0.031733259127 0.063466518254 0.095199777382 0.12693303651 0.15866629564 0.19039955476 0.22213281389 0.25386607302 
0.28559933214 0.31733259127 0.3490658504 0.38079910953 0.41253236865 0.44426562778 0.47599888691 0.50773214603 0.53946540516 
0.57119866429 0.60293192342 0.63466518254 0.66639844167 0.6981317008 0.72986495992 0.76159821905 0.79333147818 0.82506473731 
0.85679799643 0.88853125556 0.92026451469 0.95199777382 0.98373103294 1.0154642921 1.0471975512 1.0789308103 1.1106640695 
1.1423973286 1.1741305877 1.2058638468 1.237597106 1.2693303651 1.3010636242 1.3327968833 1.3645301425 1.3962634016 
1.4279966607 1.4597299198 1.491463179 1.5231964381 1.5549296972 1.5866629564 1.6183962155 1.6501294746 1.6818627337 
1.7135959929 1.745329252 1.7770625111 1.8087957702 1.8405290294 1.8722622885 1.9039955476 1.9357288068 1.9674620659 
1.999195325 2.0309285841 2.0626618433 2.0943951024 2.1261283615 2.1578616206 2.1895948798 2.2213281389 2.253061398 
2.2847946572 2.3165279163 2.3482611754 2.3799944345 2.4117276937 2.4434609528 2.4751942119 2.506927471 2.5386607302 
2.5703939893 2.6021272484 2.6338605076 2.6655937667 2.6973270258 2.7290602849 2.7607935441 2.7925268032 2.8242600623 
2.8559933214 2.8877265806 2.9194598397 2.9511930988 2.982926358 3.0146596171 3.0463928762 3.0781261353 3.1098593945 
3.1415926536 
_radius 1 100 double
1.6572562046e-13 0.30235688812 0.60521066436 0.9080756431 1.2090863985 1.5048360841 1.7906504643 2.0612200125 2.3114087133 
2.5370282508 2.7354106465 2.9056935609 3.0488166843 3.1673012811 3.2649324237 3.3464479856 3.4172389243 3.4829449464 
3.5488168387 3.6188710659 3.6950777854 3.7769059189 3.8614136422 3.943837216 4.0184746495 4.0796462439 4.1225812077 
4.1441436864 4.1433337073 4.1214942367 4.0821663055 4.0305887529 3.9729305283 3.915429237 3.8636297196 3.8218347672 
3.7927425877 3.7771784547 3.7739102482 3.7796786486 3.7895973244 3.797938141 3.7991406825 3.7888172224 3.7645720632 
3.7265265081 3.6774741474 3.6226104166 3.5688544316 3.5239272928 3.4954621609 3.4903257337 3.5140517793 3.5701821334 
3.6595653833 3.7798710976 3.9255063138 4.0880336512 4.2571124197 4.4218161439 4.5720393493 4.6997115772 4.799643423 
4.8699380171 4.9119707226 4.9299794181 4.9303340135 4.9205740412 4.9083181024 4.9001587891 4.9006653575 4.9116278842 
4.9316802892 4.9564065903 4.9789475048 4.9910086879 4.9840817042 4.9506600285 4.8852600025 4.7851128536 4.6504545026 
4.4843947041 4.2923960115 4.0814394339 3.8589986412 3.6319820155 3.4058154206 3.1838095196 2.9668834902 2.7536344563 
2.5406928773 2.3233001938 2.0960553881 1.8537674262 1.592318507 1.3094135327 1.0050890669 0.68188716146 0.34465563215 
2.7000623959e-13 
_area 1 100 double
0 0.26243786852 1.0654208016 2.4481172367 4.450913199 7.0804823124 10.27234331 13.877041856 17.682198406 
21.457011741 25.000879988 28.180631536 30.945375378 33.317459946 35.369150183 37.197653249 38.905201022 40.584923153 
42.310902914 44.130488463 46.057435764 48.065911777 50.087476498 52.0137883 53.706629451 55.015851484 55.80459442 
55.977994264 55.507802665 54.444650554 52.914305658 51.101338637 49.22685892 47.522901791 46.195951959 45.369194072 
45.030729724 45.056888486 45.291474188 45.590311743 45.838723764 45.965858943 45.952177892 45.821345238 45.616595144 
45.370513794 45.080549322 44.724965785 44.317801808 43.936686163 43.697149316 43.705022311 44.0514682 44.81902077 
46.056725814 47.773487333 49.953105305 52.555464494 55.484351342 58.620737698 61.74261913 64.636480815 67.153907399 
69.157417223 70.526343594 71.212480476 71.263201562 70.80778796 70.036526893 69.181269619 68.483589238 68.135583894 
68.206929106 68.599923322 69.060058404 69.235999949 68.766729127 67.369415389 64.903021419 61.393475987 57.022121157 
52.087047404 46.944072876 41.934337588 37.313877988 33.207545204 29.606845817 26.412206492 23.492750737 20.73086398 
18.040926251 15.37193288 12.70652247 10.062675598 7.4976224234 5.1090058874 3.0276210444 1.3992820626 0.35840149139 
0 
