# vtk DataFile Version 5.1
vtk output
ASCII
DATASET POLYDATA
POINTS 1002 float
0.0651617 0.655219 0.262531 -0.0728719 -0.421508 -0.419558 0.0628989 0.502097 0.528607 
-0.185865 -0.622611 -0.163994 0.00459933 0.0906799 -0.0457425 -0.0616563 0.0264734 0.0713942 
-0.424943 0.159665 -0.10365 -0.471354 0.0261641 0.109727 0.462346 -0.955491 -0.32257 
0.51349 0.737512 0.601781 -0.30211 -0.828228 -0.47985 0.127682 0.698407 0.605214 
0.0157127 0.572086 0.206837 -0.0478279 0.491474 0.130894 -0.11639 0.400109 0.0379067 
-0.167091 0.267099 -0.0565117 -0.182948 0.0931659 -0.140164 -0.170374 -0.0714871 -0.215445 
-0.14703 -0.187738 -0.285459 -0.122194 -0.2687 -0.344306 -0.0971523 -0.343748 -0.387837 
0.0791015 0.629665 0.248203 0.0896171 0.596579 0.232285 0.0901206 0.554152 0.21237 
0.0805899 0.507782 0.181866 0.0682692 0.467392 0.138313 0.0559286 0.428312 0.0911439 
0.0397326 0.37045 0.0513225 0.0211226 0.285752 0.0183498 0.00794784 0.187313 -0.0136928 
0.0236322 0.624506 0.242817 -0.021224 0.58724 0.213787 -0.0735922 0.543117 0.173892 
-0.138164 0.495454 0.124124 -0.210791 0.44422 0.0692302 -0.276913 0.382892 0.0179484 
-0.326586 0.314378 -0.0228907 -0.363855 0.253475 -0.0541739 -0.396287 0.205133 -0.0804653 
0.119434 0.725769 0.300245 0.182152 0.793932 0.337974 0.25457 0.845238 0.380365 
0.331758 0.86924 0.425521 0.407222 0.866804 0.465925 0.474093 0.8487 0.499292 
0.520336 0.82643 0.530065 0.53672 0.803214 0.559496 0.529304 0.774713 0.584026 
0.0826158 0.720241 0.301035 0.100411 0.77435 0.342175 0.120064 0.804713 0.386606 
0.136847 0.818988 0.435117 0.142371 0.835106 0.487155 0.138062 0.846781 0.534891 
0.13643 0.827663 0.567349 0.141824 0.776541 0.58408 0.142873 0.724712 0.594518 
-0.0487412 -0.412209 -0.404732 -0.0271779 -0.401478 -0.386278 -0.00975384 -0.385232 -0.362679 
0.00230371 -0.362589 -0.330931 0.00527188 -0.332312 -0.290588 -0.00440543 -0.282862 -0.245134 
-0.0208979 -0.201334 -0.197032 -0.0296904 -0.0955137 -0.146218 -0.0207005 0.00872133 -0.0944121 
-0.114707 -0.384885 -0.413315 -0.161231 -0.346984 -0.401793 -0.209653 -0.297429 -0.383963 
-0.256446 -0.235285 -0.359201 -0.299096 -0.17917 -0.32537 -0.335774 -0.139336 -0.280225 
-0.365408 -0.0936687 -0.227708 -0.389202 -0.01921 -0.177652 -0.409102 0.0742087 -0.136635 
-0.031854 -0.500477 -0.438356 0.0145652 -0.591543 -0.454617 0.0667599 -0.680155 -0.466044 
0.122857 -0.752012 -0.469748 0.181182 -0.812595 -0.464661 0.245453 -0.872579 -0.451744 
0.318657 -0.919263 -0.430685 0.390849 -0.938203 -0.399819 0.442931 -0.943093 -0.361309 
-0.0749915 -0.477209 -0.444928 -0.0810578 -0.530387 -0.469998 -0.0946324 -0.573274 -0.49242 
-0.120473 -0.608716 -0.51086 -0.159564 -0.646408 -0.52753 -0.203527 -0.688432 -0.542616 
-0.240104 -0.729612 -0.548601 -0.265479 -0.767971 -0.537902 -0.284658 -0.802602 -0.512275 
0.00916768 0.437077 0.464854 -0.0508539 0.358054 0.390797 -0.114356 0.265022 0.309339 
-0.177994 0.149005 0.220875 -0.232735 0.00712976 0.128361 -0.263025 -0.143346 0.0437418 
-0.261116 -0.281589 -0.0237245 -0.237442 -0.404328 -0.0778401 -0.209276 -0.517989 -0.124742 
0.0752874 0.479009 0.515471 0.0830583 0.458434 0.493968 0.0830694 0.440945 0.458153 
0.073539 0.410541 0.408033 0.0568943 0.349233 0.354508 0.0379738 0.267034 0.308232 
0.0172918 0.194832 0.263931 -0.00856298 0.143101 0.208148 -0.0378745 0.0931935 0.139687 
0.0139224 0.484448 0.500179 -0.0419357 0.459522 0.463722 -0.0997272 0.430315 0.418244 
-0.156566 0.394154 0.3656 -0.214639 0.342645 0.310989 -0.275102 0.272994 0.259466 
-0.333429 0.19461 0.213121 -0.385394 0.121795 0.172548 -0.431159 0.0646898 0.138278 
0.121843 0.539126 0.579178 0.181691 0.563759 0.626806 0.246252 0.582454 0.670696 
0.319341 0.602592 0.709289 0.393386 0.620834 0.734379 0.452803 0.634212 0.735536 
0.490369 0.653167 0.713034 0.509908 0.684588 0.677843 0.516594 0.717546 0.639603 
0.0846148 0.54647 0.572096 0.10254 0.568935 0.619472 0.108498 0.566162 0.67001 
0.0957534 0.573229 0.714818 0.0742129 0.621583 0.740604 0.068243 0.68289 0.740029 
0.0876882 0.709243 0.716042 0.115472 0.701959 0.678623 0.130612 0.693216 0.63924 
-0.16368 -0.610035 -0.151636 -0.143606 -0.589766 -0.138335 -0.127567 -0.566274 -0.119766 
-0.115891 -0.528843 -0.0968171 -0.108696 -0.45813 -0.0771969 -0.106169 -0.35717 -0.0624668 
-0.105799 -0.249801 -0.0426221 -0.101499 -0.149358 -0.0104566 -0.0873282 -0.0561979 0.0300481 
-0.223056 -0.56605 -0.153285 -0.264698 -0.509808 -0.13568 -0.308688 -0.462212 -0.107952 
-0.350466 -0.418757 -0.0726813 -0.387044 -0.360867 -0.0384841 -0.418955 -0.281012 -0.00867132 
-0.445827 -0.194748 0.0218378 -0.464191 -0.116662 0.0548451 -0.472011 -0.0450036 0.085437 
-0.14954 -0.719555 -0.187693 -0.106035 -0.805753 -0.208082 -0.0495636 -0.857614 -0.232527 
0.0192441 -0.877165 -0.26377 0.0911952 -0.894771 -0.290472 0.1634 -0.930061 -0.299961 
0.244808 -0.96793 -0.296991 0.335157 -0.985012 -0.296562 0.414601 -0.977304 -0.305984 
-0.188307 -0.683654 -0.194767 -0.191517 -0.734911 -0.225617 -0.195631 -0.77757 -0.254034 
-0.205339 -0.81775 -0.283947 -0.221312 -0.858044 -0.320666 -0.236174 -0.889871 -0.360181 
-0.246981 -0.900953 -0.394205 -0.260345 -0.889005 -0.422948 -0.280229 -0.861894 -0.451564 
0.0239956 0.0700549 -0.0352319 0.0369878 0.0415577 -0.0231734 0.0364046 0.0122099 -0.0116452 
0.0226559 -0.00958003 -0.0018628 0.00337815 -0.0160758 0.00601995 -0.0152963 -0.00534514 0.0131329 
-0.031544 0.0125501 0.0228 -0.0443534 0.0240103 0.0375342 -0.0537221 0.0264398 0.0552263 
0.00133401 -0.0559234 -0.109323 0.0345437 -0.223646 -0.173021 0.101023 -0.40273 -0.224191 
0.177697 -0.566645 -0.260811 0.245776 -0.685016 -0.28947 0.314062 -0.75766 -0.30982 
0.393873 -0.814243 -0.317349 0.464012 -0.872556 -0.316879 0.489875 -0.923627 -0.317617 
0.0496214 0.211196 0.0193655 0.11646 0.312639 0.0829746 0.189132 0.390132 0.147442 
0.261249 0.450328 0.217879 0.335927 0.501221 0.294896 0.404114 0.546697 0.373065 
0.448418 0.593899 0.444847 0.470598 0.6486 0.505289 0.488885 0.702008 0.555709 
-0.0773173 -0.134235 -0.00743025 -0.0364119 -0.353509 -0.0492483 0.0499131 -0.553598 -0.0552459 
0.131865 -0.660232 -0.0693785 0.184794 -0.711041 -0.121915 0.244878 -0.794243 -0.18507 
0.338708 -0.90043 -0.225209 0.430781 -0.960543 -0.25117 0.474253 -0.965267 -0.283236 
-0.00233446 0.131942 0.158113 0.0762189 0.212354 0.242947 0.144948 0.298803 0.306578 
0.204429 0.399346 0.360262 0.286946 0.473492 0.43019 0.389965 0.501617 0.50834 
0.462766 0.528436 0.561119 0.485009 0.590823 0.581576 0.491103 0.67083 0.590303 
-0.45086 0.173343 -0.0980852 -0.476819 0.177352 -0.0895742 -0.496735 0.173129 -0.0716695 
-0.509167 0.171149 -0.0401197 -0.518534 0.175152 0.00135422 -0.525921 0.170104 0.0428121 
-0.525353 0.141992 0.0752445 -0.513051 0.0985299 0.0952755 -0.492887 0.0570786 0.105189 
-0.436881 0.0488415 -0.145083 -0.440814 -0.0801287 -0.194263 -0.444126 -0.188931 -0.254924 
-0.44598 -0.266541 -0.316683 -0.436762 -0.357968 -0.36592 -0.417939 -0.494723 -0.406052 
-0.400726 -0.636689 -0.445063 -0.381995 -0.734194 -0.474971 -0.349081 -0.789001 -0.485328 
-0.413086 0.251083 -0.0539855 -0.378108 0.315332 0.0132426 -0.324298 0.382554 0.0948479 
-0.265745 0.484343 0.175746 -0.204224 0.589267 0.253547 -0.129238 0.645125 0.341067 
-0.0457365 0.663149 0.433924 0.0274274 0.680543 0.510626 0.0831963 0.697084 0.564243 
-0.50577 -0.0455698 0.0668223 -0.522784 -0.124089 0.0127246 -0.513831 -0.231105 -0.0573747 
-0.482948 -0.369091 -0.142122 -0.449219 -0.51033 -0.230014 -0.428776 -0.628519 -0.305541 
-0.415305 -0.719323 -0.363194 -0.390858 -0.782882 -0.408997 -0.350086 -0.816991 -0.448143 
-0.438242 0.128094 0.148277 -0.396569 0.252443 0.193918 -0.353362 0.382764 0.251387 
-0.308904 0.493974 0.317295 -0.255282 0.575933 0.384739 -0.18492 0.635755 0.451356 
-0.0992896 0.676024 0.513156 -0.0100338 0.693482 0.560509 0.0682785 0.695556 0.589181 
0.391091 -0.966363 -0.353171 0.296008 -0.987622 -0.384579 0.203582 -1.02012 -0.417455 
0.117818 -1.04504 -0.455743 0.0303124 -1.04286 -0.491365 -0.0498393 -1.01113 -0.50717 
-0.112981 -0.959768 -0.502853 -0.171536 -0.904249 -0.494075 -0.236948 -0.859248 -0.487966 
0.561291 0.77415 0.645058 0.608968 0.788331 0.696174 0.608505 0.80019 0.736015 
0.541822 0.824362 0.750021 0.451326 0.83237 0.745674 0.379734 0.792751 0.733948 
0.319865 0.732449 0.711139 0.254162 0.698606 0.675958 0.187358 0.695508 0.638459 
0.0231515 0.545961 0.186434 0.0246264 0.515906 0.160546 -0.0459761 0.465529 0.101195 
0.0155554 0.477338 0.126718 -0.0502483 0.430767 0.0646898 -0.113665 0.358933 0.00171589 
0.00131881 0.428223 0.0855607 -0.0613264 0.377153 0.0238184 -0.113985 0.298482 -0.0376163 
-0.154621 0.196373 -0.092667 -0.00937691 0.368087 0.0442854 -0.069228 0.299324 -0.0138249 
-0.113427 0.213291 -0.0746196 -0.140522 0.108844 -0.128821 -0.15696 0.00666995 -0.17498 
-0.0173236 0.292481 0.00905199 -0.0672845 0.20109 -0.0439654 -0.101466 0.106449 -0.104249 
-0.118632 0.00982844 -0.161794 -0.126109 -0.0801359 -0.210164 -0.133691 -0.147234 -0.250675 
-0.0255965 0.200609 -0.0235536 -0.0600066 0.0943469 -0.0732557 -0.0779817 -0.00860852 -0.130865 
-0.0840776 -0.0947697 -0.190466 -0.0865835 -0.164636 -0.242969 -0.0918889 -0.216675 -0.284607 
-0.103685 -0.249019 -0.317643 -0.0288206 0.102426 -0.0588235 -0.0491675 -0.00678861 -0.108746 
-0.0508454 -0.114106 -0.16247 -0.0436553 -0.195524 -0.218028 -0.0403132 -0.249714 -0.270145 
-0.0452824 -0.287311 -0.312678 -0.0572232 -0.313057 -0.344481 -0.0750381 -0.329808 -0.368724 
0.139766 0.700169 0.287167 0.207399 0.77082 0.325142 0.154274 0.656417 0.276179 
0.28086 0.82271 0.365158 0.223823 0.715549 0.317962 0.156171 0.596368 0.262235 
0.353046 0.839503 0.404291 0.294498 0.757074 0.357055 0.225314 0.640181 0.306636 
0.147918 0.541731 0.23142 0.415419 0.822879 0.438408 0.357857 0.766209 0.390255 
0.291981 0.674365 0.341974 0.216215 0.581478 0.271294 0.13594 0.508914 0.179955 
0.460396 0.791838 0.469554 0.406627 0.745282 0.418151 0.349385 0.682042 0.368123 
0.279245 0.610782 0.300451 0.200948 0.54676 0.21271 0.11898 0.476293 0.125143 
[...]
POINT_DATA 1002
FIELD FieldData 4
_paraPhi 1 1002 double
6.2831853072 3.1415926536 6.2831853072 3.1415926536 4.7123889804 4.7123889804 1.5707963268 1.5707963268 3.6951670125 
5.7296109483 2.5880182947 0.5535743589 6.2831853072 6.2831853072 6.2831853072 6.2831853072 3.1415926536 3.1415926536 
3.1415926536 3.1415926536 3.1415926536 6.1053039672 5.898798347 5.6768734901 5.4599499503 5.2659633393 5.1032165617 
4.9713148346 4.8656852733 4.7809517865 0.17788134 0.38438696014 0.60631181711 0.82323535693 1.0172219679 1.1799687454 
1.3118704726 1.4175000338 1.5022335207 6.1892828907 6.1070320098 6.035312792 5.9728339911 5.9183214791 5.8706119594 
5.8286879411 5.7916808611 5.7588591896 0.093902416448 0.17615329733 0.2478725152 0.31035131605 0.36486382811 0.41257334776 
0.45449736604 0.4915044461 0.52432611754 3.3194739936 3.5259796137 3.7479044707 3.9648280105 4.1588146215 4.321561399 
4.4534631262 4.5590926874 4.6438261743 2.9637113136 2.7572056934 2.5352808365 2.3183572967 2.1243706857 1.9616239082 
1.829722181 1.7240926197 1.6393591329 3.23549507 3.3177459509 3.3894651688 3.4519439696 3.5064564817 3.5541660013 
3.5960900196 3.6330970997 3.6659187711 3.0476902371 2.9654393563 2.8937201384 2.8312413375 2.7767288255 2.7290193058 
2.6870952876 2.6500882075 2.617266536 6.2831853072 6.2831853072 6.2831853072 6.2831853072 3.1415926536 3.1415926536 
3.1415926536 3.1415926536 3.1415926536 6.1053039672 5.898798347 5.6768734901 5.4599499503 5.2659633393 5.1032165617 
4.9713148346 4.8656852733 4.7809517865 0.17788134 0.38438696014 0.60631181711 0.82323535693 1.0172219679 1.1799687454 
1.3118704726 1.4175000338 1.5022335207 6.1892828907 6.1070320098 6.035312792 5.9728339911 5.9183214791 5.8706119594 
5.8286879411 5.7916808611 5.7588591896 0.093902416448 0.17615329733 0.2478725152 0.31035131605 0.36486382811 0.41257334776 
0.45449736604 0.4915044461 0.52432611754 3.3194739936 3.5259796137 3.7479044707 3.9648280105 4.1588146215 4.321561399 
4.4534631262 4.5590926874 4.6438261743 2.9637113136 2.7572056934 2.5352808365 2.3183572967 2.1243706857 1.9616239082 
1.829722181 1.7240926197 1.6393591329 3.23549507 3.3177459509 3.3894651688 3.4519439696 3.5064564817 3.5541660013 
3.5960900196 3.6330970997 3.6659187711 3.0476902371 2.9654393563 2.8937201384 2.8312413375 2.7767288255 2.7290193058 
2.6870952876 2.6500882075 2.617266536 4.7123889804 4.7123889804 4.7123889804 4.7123889804 4.7123889804 4.7123889804 
4.7123889804 4.7123889804 4.7123889804 4.6087898617 4.4991390697 4.3857031936 4.2712800401 4.1588146215 4.0509635631 
3.94975894 3.8564636551 3.7716124825 4.8159880991 4.9256388911 5.0390747672 5.1534979207 5.2659633393 5.3738143976 
5.4750190208 5.5683143056 5.6531654782 4.6087898617 4.4991390697 4.3857031936 4.2712800401 4.1588146215 4.0509635631 
3.94975894 3.8564636551 3.7716124825 4.8159880991 4.9256388911 5.0390747672 5.1534979207 5.2659633393 5.3738143976 
5.4750190208 5.5683143056 5.6531654782 1.5707963268 1.5707963268 1.5707963268 1.5707963268 1.5707963268 1.5707963268 
1.5707963268 1.5707963268 1.5707963268 1.6743954455 1.7840462375 1.8974821136 2.0119052671 2.1243706857 2.232221744 
2.3334263672 2.426721652 2.5115728246 1.4671972081 1.3575464161 1.24411054 1.1296873865 1.0172219679 0.90937090954 
0.80816628637 0.71487100155 0.63001982895 1.6743954455 1.7840462375 1.8974821136 2.0119052671 2.1243706857 2.232221744 
2.3334263672 2.426721652 2.5115728246 1.4671972081 1.3575464161 1.24411054 1.1296873865 1.0172219679 0.90937090954 
0.80816628637 0.71487100155 0.63001982895 3.6007720849 3.4966939854 3.3839471039 3.2645756454 3.1415926536 3.0186096618 
2.8992382033 2.7864913217 2.6824132222 5.8240058758 5.9280839753 6.0408308569 6.1602023154 6.2831853072 0.12298299178 
0.2423544503 0.35510133185 0.45917943135 6.0560271438 5.7885595667 5.9702140275 5.5125918794 5.6029703303 5.7885595667 
5.2659633393 5.2659633393 5.2659633393 5.2659633393 5.0674903122 5.0120975802 4.9155579264 4.7123889804 4.1588146215 
4.9155579264 4.8353719722 4.7123889804 4.5092200343 4.1588146215 3.6362183941 4.8004512023 4.7123889804 4.5894059886 
4.4126803806 4.1588146215 3.8218076305 3.4545639333 4.7123889804 4.6243267584 4.5092200343 4.3572876485 4.1588146215 
3.9121860814 3.6362183941 3.368750817 6.0174235957 5.9434319871 5.8263323547 5.8809213739 5.7674481418 5.6279784266 
5.8278025282 5.718968232 5.5891129425 5.4372443565 5.7823484065 5.678536687 5.5575666702 5.4192596322 5.2659633393 
5.743164462 5.6444075337 5.5314983644 5.4046708639 5.2659633393 5.1195510325 5.7091357773 5.6152775188 5.5096229709 
5.3926039573 5.2659633393 5.1329233157 4.9978930058 5.6793730533 5.5901633916 5.4910209005 5.3824597928 5.2659633393 
5.1440684722 5.0201624502 4.8979782167 5.5683143056 5.4750190208 5.4750190208 5.3738143976 5.3738143976 5.3738143976 
5.2659633393 5.2659633393 5.2659633393 5.2659633393 5.1534979207 5.1534979207 5.1534979207 5.1534979207 5.1534979207 
5.0390747672 5.0390747672 5.0390747672 5.0390747672 5.0390747672 5.0390747672 4.9256388911 4.9256388911 4.9256388911 
4.9256388911 4.9256388911 4.9256388911 4.9256388911 4.8159880991 4.8159880991 4.8159880991 4.8159880991 4.8159880991 
4.8159880991 4.8159880991 4.8159880991 4.6087898617 4.6087898617 4.4991390697 4.6087898617 4.4991390697 4.3857031936 
4.6087898617 4.4991390697 4.3857031936 4.2712800401 4.6087898617 4.4991390697 4.3857031936 4.2712800401 4.1588146215 
4.6087898617 4.4991390697 4.3857031936 4.2712800401 4.1588146215 4.0509635631 4.6087898617 4.4991390697 4.3857031936 
4.2712800401 4.1588146215 4.0509635631 3.94975894 4.6087898617 4.4991390697 4.3857031936 4.2712800401 4.1588146215 
4.0509635631 3.94975894 3.8564636551 4.526799744 4.4046155105 4.426884955 4.2807094886 4.2918546451 4.3052269283 
4.1588146215 4.1588146215 4.1588146215 4.1588146215 4.042318168 4.0321740035 4.0201070968 4.0055183285 3.9875336042 
3.9337570603 3.9151549899 3.8932795963 3.8672112905 3.8356650183 3.7967995342 3.8346145692 3.809500442 3.7803704271 
3.7462412737 3.7058097288 3.657329819 3.5984456061 3.7454049075 3.7156421835 3.6816134988 3.6424295543 3.5969754326 
3.5438565869 3.4813459737 3.4073543651 3.5642842451 3.4524645613 3.5233842518 3.3320300872 3.403123212 3.4773852225 
3.20576226 3.2746326772 3.348015857 3.4255060145 3.0774230472 3.1415926536 3.2112816139 3.2864685043 3.3668817272 
2.95115522 3.00855263 3.0719036933 3.1415926536 3.2178377658 3.3005964304 2.8307207459 2.8800620952 2.9351694502 
2.9967168029 3.0653475414 3.1415926536 3.225752376 2.718901062 2.7598010554 2.8058000847 2.8576792927 2.91630358 
2.9825888767 3.0574329311 3.1415926536 3.5642842451 3.5233842518 3.4524645613 3.4773852225 3.403123212 3.3320300872 
3.4255060145 3.348015857 3.2746326772 3.20576226 3.3668817272 3.2864685043 3.2112816139 3.1415926536 3.0774230472 
3.3005964304 3.2178377658 3.1415926536 3.0719036933 3.00855263 2.95115522 3.225752376 3.1415926536 3.0653475414 
2.9967168029 2.9351694502 2.8800620952 2.8307207459 3.1415926536 3.0574329311 2.9825888767 2.91630358 2.8576792927 
2.8058000847 2.7598010554 2.718901062 4.526799744 4.426884955 4.4046155105 4.3052269283 4.2918546451 4.2807094886 
4.1588146215 4.1588146215 4.1588146215 4.1588146215 3.9875336042 4.0055183285 4.0201070968 4.0321740035 4.042318168 
3.7967995342 3.8356650183 3.8672112905 3.8932795963 3.9151549899 3.9337570603 3.5984456061 3.657329819 3.7058097288 
3.7462412737 3.7803704271 3.809500442 3.8346145692 3.4073543651 3.4813459737 3.5438565869 3.5969754326 3.6424295543 
3.6816134988 3.7156421835 3.7454049075 4.7123889804 4.8004512023 4.6243267584 4.9155579264 4.7123889804 4.5092200343 
5.0674903122 4.8353719722 4.5894059886 4.3572876485 5.2659633393 5.0120975802 4.7123889804 4.4126803806 4.1588146215 
5.5125918794 5.2659633393 4.9155579264 4.5092200343 4.1588146215 3.9121860814 5.7885595667 5.6029703303 5.2659633393 
4.7123889804 4.1588146215 3.8218076305 3.6362183941 6.0560271438 5.9702140275 5.7885595667 5.2659633393 4.1588146215 
3.6362183941 3.4545639333 3.368750817 0.22715816343 0.49462574053 0.3129712797 0.77059342779 0.68021497688 0.49462574053 
1.0172219679 1.0172219679 1.0172219679 1.0172219679 1.2156949949 1.271087727 1.3676273807 1.5707963268 2.1243706857 
1.3676273807 1.447813335 1.5707963268 1.7739652728 2.1243706857 2.6469669131 1.4827341049 1.5707963268 1.6937793186 
1.8705049266 2.1243706857 2.4613776767 2.8286213739 1.5707963268 1.6588585487 1.7739652728 1.9258976586 2.1243706857 
2.3709992258 2.6469669131 2.9144344902 1.7563855631 1.8785697967 1.8563003522 2.0024758186 1.9913306621 1.9779583789 
2.1243706857 2.1243706857 2.1243706857 2.1243706857 2.2408671392 2.2510113037 2.2630782103 2.2776669786 2.295651703 
2.3494282469 2.3680303173 2.3899057108 2.4159740166 2.4475202889 2.486385773 2.448570738 2.4736848652 2.5028148801 
2.5369440334 2.5773755784 2.6258554882 2.6847397011 2.5377803997 2.5675431237 2.6015718084 2.6407557529 2.6862098746 
2.7393287203 2.8018393335 2.8758309421 1.6743954455 1.6743954455 1.7840462375 1.6743954455 1.7840462375 1.8974821136 
1.6743954455 1.7840462375 1.8974821136 2.0119052671 1.6743954455 1.7840462375 1.8974821136 2.0119052671 2.1243706857 
1.6743954455 1.7840462375 1.8974821136 2.0119052671 2.1243706857 2.232221744 1.6743954455 1.7840462375 1.8974821136 
2.0119052671 2.1243706857 2.232221744 2.3334263672 1.6743954455 1.7840462375 1.8974821136 2.0119052671 2.1243706857 
2.232221744 2.3334263672 2.426721652 1.4671972081 1.3575464161 1.4671972081 1.24411054 1.3575464161 1.4671972081 
1.1296873865 1.24411054 1.3575464161 1.4671972081 1.0172219679 1.1296873865 1.24411054 1.3575464161 1.4671972081 
0.90937090954 1.0172219679 1.1296873865 1.24411054 1.3575464161 1.4671972081 0.80816628637 0.90937090954 1.0172219679 
1.1296873865 1.24411054 1.3575464161 1.4671972081 0.71487100155 0.80816628637 0.90937090954 1.0172219679 1.1296873865 
1.24411054 1.3575464161 1.4671972081 0.60381225391 0.57404952988 0.69302191562 0.54002084522 0.66790778838 0.79216440667 
0.50083690068 0.63877777351 0.77356233629 0.90072551443 0.45538277901 0.60464862014 0.75168694275 0.89058134991 1.0172219679 
0.40226393329 0.56421707518 0.72561863695 0.87851444325 1.0172219679 1.139116835 0.33975332011 0.51573716537 0.69407236469 
0.86392567495 1.0172219679 1.1502619915 1.2630228569 0.26576171152 0.45685295248 0.6552068806 0.84594095064 1.0172219679 
1.1636342747 1.2852923014 1.3852070904 0.22715816343 0.3129712797 0.49462574053 0.49462574053 0.68021497688 0.77059342779 
1.0172219679 1.0172219679 1.0172219679 1.0172219679 2.1243706857 1.5707963268 1.3676273807 1.271087727 1.2156949949 
2.6469669131 2.1243706857 1.7739652728 1.5707963268 1.447813335 1.3676273807 2.8286213739 2.4613776767 2.1243706857 
1.8705049266 1.6937793186 1.5707963268 1.4827341049 2.9144344902 2.6469669131 2.3709992258 2.1243706857 1.9258976586 
1.7739652728 1.6588585487 1.5707963268 1.7563855631 1.8563003522 1.8785697967 1.9779583789 1.9913306621 2.0024758186 
2.1243706857 2.1243706857 2.1243706857 2.1243706857 2.295651703 2.2776669786 2.2630782103 2.2510113037 2.2408671392 
2.486385773 2.4475202889 2.4159740166 2.3899057108 2.3680303173 2.3494282469 2.6847397011 2.6258554882 2.5773755784 
2.5369440334 2.5028148801 2.4736848652 2.448570738 2.8758309421 2.8018393335 2.7393287203 2.6862098746 2.6407557529 
2.6015718084 2.5675431237 2.5377803997 5.8604937156 5.901393709 5.9723133995 5.9473927383 6.0216547488 6.0927478736 
5.9992719463 6.0767621038 6.1501452836 6.2190157008 6.0578962336 6.1383094565 6.2134963469 0 0.064169606361 
6.1241815303 6.206940195 6.2831853072 0.069688960264 0.13304002361 0.19043743361 6.1990255847 0 0.07624511221 
0.14487585072 0.20642320337 0.26153055843 0.3108719077 0 0.084159722458 0.15900377685 0.22528907359 0.28391336087 
0.3357925689 0.38179159818 0.42269159155 5.8604937156 5.9723133995 5.901393709 6.0927478736 6.0216547488 5.9473927383 
6.2190157008 6.1501452836 6.0767621038 5.9992719463 0.064169606361 0 6.2134963469 6.1383094565 6.0578962336 
0.19043743361 0.13304002361 0.069688960264 6.2831853072 6.206940195 6.1241815303 0.3108719077 0.26153055843 0.20642320337 
0.14487585072 0.07624511221 6.2831853072 6.1990255847 0.42269159155 0.38179159818 0.3357925689 0.28391336087 0.22528907359 
0.15900377685 0.084159722458 0 5.6793730533 5.7091357773 5.5901633916 5.743164462 5.6152775188 5.4910209005 
5.7823484065 5.6444075337 5.5096229709 5.3824597928 5.8278025282 5.678536687 5.5314983644 5.3926039573 5.2659633393 
5.8809213739 5.718968232 5.5575666702 5.4046708639 5.2659633393 5.1440684722 5.9434319871 5.7674481418 5.5891129425 
5.4192596322 5.2659633393 5.1329233157 5.0201624502 6.0174235957 5.8263323547 5.6279784266 5.4372443565 5.2659633393 
5.1195510325 4.9978930058 4.8979782167 1.3852070904 1.2852923014 1.2630228569 1.1636342747 1.1502619915 1.139116835 
1.0172219679 1.0172219679 1.0172219679 1.0172219679 0.84594095064 0.86392567495 0.87851444325 0.89058134991 0.90072551443 
0.6552068806 0.69407236469 0.72561863695 0.75168694275 0.77356233629 0.79216440667 0.45685295248 0.51573716537 0.56421707518 
0.60464862014 0.63877777351 0.66790778838 0.69302191562 0.26576171152 0.33975332011 0.40226393329 0.45538277901 0.50083690068 
0.54002084522 0.57404952988 0.60381225391 
_paraPhiHalf 1 1002 double
0 3.1415926536 0 3.1415926536 1.5707963268 1.5707963268 1.5707963268 1.5707963268 2.5880182947 
0.5535743589 2.5880182947 0.5535743589 0 0 0 0 3.1415926536 3.1415926536 
3.1415926536 3.1415926536 3.1415926536 0.17788134 0.38438696014 0.60631181711 0.82323535693 1.0172219679 1.1799687454 
1.3118704726 1.4175000338 1.5022335207 0.17788134 0.38438696014 0.60631181711 0.82323535693 1.0172219679 1.1799687454 
1.3118704726 1.4175000338 1.5022335207 0.093902416448 0.17615329733 0.2478725152 0.31035131605 0.36486382811 0.41257334776 
0.45449736604 0.4915044461 0.52432611754 0.093902416448 0.17615329733 0.2478725152 0.31035131605 0.36486382811 0.41257334776 
0.45449736604 0.4915044461 0.52432611754 2.9637113136 2.7572056934 2.5352808365 2.3183572967 2.1243706857 1.9616239082 
1.829722181 1.7240926197 1.6393591329 2.9637113136 2.7572056934 2.5352808365 2.3183572967 2.1243706857 1.9616239082 
1.829722181 1.7240926197 1.6393591329 3.0476902371 2.9654393563 2.8937201384 2.8312413375 2.7767288255 2.7290193058 
2.6870952876 2.6500882075 2.617266536 3.0476902371 2.9654393563 2.8937201384 2.8312413375 2.7767288255 2.7290193058 
2.6870952876 2.6500882075 2.617266536 0 0 0 0 3.1415926536 3.1415926536 
3.1415926536 3.1415926536 3.1415926536 0.17788134 0.38438696014 0.60631181711 0.82323535693 1.0172219679 1.1799687454 
1.3118704726 1.4175000338 1.5022335207 0.17788134 0.38438696014 0.60631181711 0.82323535693 1.0172219679 1.1799687454 
1.3118704726 1.4175000338 1.5022335207 0.093902416448 0.17615329733 0.2478725152 0.31035131605 0.36486382811 0.41257334776 
0.45449736604 0.4915044461 0.52432611754 0.093902416448 0.17615329733 0.2478725152 0.31035131605 0.36486382811 0.41257334776 
0.45449736604 0.4915044461 0.52432611754 2.9637113136 2.7572056934 2.5352808365 2.3183572967 2.1243706857 1.9616239082 
1.829722181 1.7240926197 1.6393591329 2.9637113136 2.7572056934 2.5352808365 2.3183572967 2.1243706857 1.9616239082 
1.829722181 1.7240926197 1.6393591329 3.0476902371 2.9654393563 2.8937201384 2.8312413375 2.7767288255 2.7290193058 
2.6870952876 2.6500882075 2.617266536 3.0476902371 2.9654393563 2.8937201384 2.8312413375 2.7767288255 2.7290193058 
2.6870952876 2.6500882075 2.617266536 1.5707963268 1.5707963268 1.5707963268 1.5707963268 1.5707963268 1.5707963268 
1.5707963268 1.5707963268 1.5707963268 1.6743954455 1.7840462375 1.8974821136 2.0119052671 2.1243706857 2.232221744 
2.3334263672 2.426721652 2.5115728246 1.4671972081 1.3575464161 1.24411054 1.1296873865 1.0172219679 0.90937090954 
0.80816628637 0.71487100155 0.63001982895 1.6743954455 1.7840462375 1.8974821136 2.0119052671 2.1243706857 2.232221744 
2.3334263672 2.426721652 2.5115728246 1.4671972081 1.3575464161 1.24411054 1.1296873865 1.0172219679 0.90937090954 
0.80816628637 0.71487100155 0.63001982895 1.5707963268 1.5707963268 1.5707963268 1.5707963268 1.5707963268 1.5707963268 
1.5707963268 1.5707963268 1.5707963268 1.6743954455 1.7840462375 1.8974821136 2.0119052671 2.1243706857 2.232221744 
2.3334263672 2.426721652 2.5115728246 1.4671972081 1.3575464161 1.24411054 1.1296873865 1.0172219679 0.90937090954 
0.80816628637 0.71487100155 0.63001982895 1.6743954455 1.7840462375 1.8974821136 2.0119052671 2.1243706857 2.232221744 
2.3334263672 2.426721652 2.5115728246 1.4671972081 1.3575464161 1.24411054 1.1296873865 1.0172219679 0.90937090954 
0.80816628637 0.71487100155 0.63001982895 2.6824132222 2.7864913217 2.8992382033 3.0186096618 3.1415926536 3.0186096618 
2.8992382033 2.7864913217 2.6824132222 0.45917943135 0.35510133185 0.2423544503 0.12298299178 0 0.12298299178 
0.2423544503 0.35510133185 0.45917943135 0.22715816343 0.49462574053 0.3129712797 0.77059342779 0.68021497688 0.49462574053 
1.0172219679 1.0172219679 1.0172219679 1.0172219679 1.2156949949 1.271087727 1.3676273807 1.5707963268 2.1243706857 
1.3676273807 1.447813335 1.5707963268 1.7739652728 2.1243706857 2.6469669131 1.4827341049 1.5707963268 1.6937793186 
1.8705049266 2.1243706857 2.4613776767 2.8286213739 1.5707963268 1.6588585487 1.7739652728 1.9258976586 2.1243706857 
2.3709992258 2.6469669131 2.9144344902 0.26576171152 0.33975332011 0.45685295248 0.40226393329 0.51573716537 0.6552068806 
0.45538277901 0.56421707518 0.69407236469 0.84594095064 0.50083690068 0.60464862014 0.72561863695 0.86392567495 1.0172219679 
0.54002084522 0.63877777351 0.75168694275 0.87851444325 1.0172219679 1.1636342747 0.57404952988 0.66790778838 0.77356233629 
0.89058134991 1.0172219679 1.1502619915 1.2852923014 0.60381225391 0.69302191562 0.79216440667 0.90072551443 1.0172219679 
1.139116835 1.2630228569 1.3852070904 0.71487100155 0.80816628637 0.80816628637 0.90937090954 0.90937090954 0.90937090954 
1.0172219679 1.0172219679 1.0172219679 1.0172219679 1.1296873865 1.1296873865 1.1296873865 1.1296873865 1.1296873865 
1.24411054 1.24411054 1.24411054 1.24411054 1.24411054 1.24411054 1.3575464161 1.3575464161 1.3575464161 
1.3575464161 1.3575464161 1.3575464161 1.3575464161 1.4671972081 1.4671972081 1.4671972081 1.4671972081 1.4671972081 
1.4671972081 1.4671972081 1.4671972081 1.6743954455 1.6743954455 1.7840462375 1.6743954455 1.7840462375 1.8974821136 
1.6743954455 1.7840462375 1.8974821136 2.0119052671 1.6743954455 1.7840462375 1.8974821136 2.0119052671 2.1243706857 
1.6743954455 1.7840462375 1.8974821136 2.0119052671 2.1243706857 2.232221744 1.6743954455 1.7840462375 1.8974821136 
2.0119052671 2.1243706857 2.232221744 2.3334263672 1.6743954455 1.7840462375 1.8974821136 2.0119052671 2.1243706857 
2.232221744 2.3334263672 2.426721652 1.7563855631 1.8785697967 1.8563003522 2.0024758186 1.9913306621 1.9779583789 
2.1243706857 2.1243706857 2.1243706857 2.1243706857 2.2408671392 2.2510113037 2.2630782103 2.2776669786 2.295651703 
2.3494282469 2.3680303173 2.3899057108 2.4159740166 2.4475202889 2.486385773 2.448570738 2.4736848652 2.5028148801 
2.5369440334 2.5773755784 2.6258554882 2.6847397011 2.5377803997 2.5675431237 2.6015718084 2.6407557529 2.6862098746 
2.7393287203 2.8018393335 2.8758309421 2.718901062 2.8307207459 2.7598010554 2.95115522 2.8800620952 2.8058000847 
3.0774230472 3.00855263 2.9351694502 2.8576792927 3.0774230472 3.1415926536 3.0719036933 2.9967168029 2.91630358 
2.95115522 3.00855263 3.0719036933 3.1415926536 3.0653475414 2.9825888767 2.8307207459 2.8800620952 2.9351694502 
2.9967168029 3.0653475414 3.1415926536 3.0574329311 2.718901062 2.7598010554 2.8058000847 2.8576792927 2.91630358 
2.9825888767 3.0574329311 3.1415926536 2.718901062 2.7598010554 2.8307207459 2.8058000847 2.8800620952 2.95115522 
2.8576792927 2.9351694502 3.00855263 3.0774230472 2.91630358 2.9967168029 3.0719036933 3.1415926536 3.0774230472 
2.9825888767 3.0653475414 3.1415926536 3.0719036933 3.00855263 2.95115522 3.0574329311 3.1415926536 3.0653475414 