# vtk DataFile Version 5.1
vtk output
ASCII
DATASET POLYDATA
POINTS 100 float
0.459738 0.755663 0.611777 0.458913 0.754888 0.610966 0.456449 0.752617 0.608753 
0.452368 0.749019 0.605162 0.446704 0.744357 0.600237 0.439504 0.738953 0.594037 
0.430828 0.733158 0.58664 0.420741 0.727315 0.578146 0.409322 0.721719 0.568669 
0.396654 0.716588 0.558341 0.382827 0.712043 0.547296 0.367941 0.708094 0.535671 
0.352097 0.704644 0.523591 0.335402 0.701498 0.511162 0.317965 0.698388 0.498463 
0.299897 0.695004 0.485538 0.281308 0.691021 0.472399 0.262301 0.686139 0.459024 
0.242975 0.680103 0.445364 0.223414 0.672729 0.431357 0.203692 0.663913 0.416932 
0.183865 0.653629 0.402029 0.163969 0.64192 0.38661 0.144026 0.628879 0.370662 
0.124038 0.614623 0.354209 0.103995 0.599262 0.337309 0.0838802 0.582876 0.320045 
0.0636741 0.565491 0.302519 0.0433639 0.547063 0.284835 0.0229513 0.527477 0.267085 
0.00246045 0.506552 0.249335 -0.018055 0.484057 0.231613 -0.0385071 0.459738 0.213901 
-0.0587703 0.433353 0.19614 -0.0786824 0.4047 0.178233 -0.0980474 0.373655 0.160063 
-0.116642 0.340197 0.141508 -0.134227 0.304425 0.122466 -0.150554 0.266565 0.102874 
-0.165386 0.226965 0.0827276 -0.178502 0.186076 0.0620936 -0.189721 0.144422 0.0411121 
-0.198902 0.102567 0.0199927 -0.205963 0.0610687 -0.00100034 -0.21088 0.0204432 -0.0215711 
-0.213694 -0.0188746 -0.0414202 -0.214506 -0.0565586 -0.0602755 -0.213475 -0.0924094 -0.0779222 
-0.210807 -0.126359 -0.0942266 -0.206743 -0.158465 -0.109153 -0.201551 -0.18889 -0.122771 
-0.195504 -0.217873 -0.135247 -0.188874 -0.245698 -0.146831 -0.181914 -0.272656 -0.157828 
-0.17485 -0.299011 -0.168567 -0.167869 -0.324972 -0.179367 -0.161117 -0.350673 -0.190502 
-0.154693 -0.376165 -0.202174 -0.148652 -0.401417 -0.214496 -0.143007 -0.426327 -0.227482 
-0.137737 -0.450745 -0.241052 -0.132791 -0.474499 -0.255048 -0.128101 -0.497422 -0.269257 
-0.123589 -0.51938 -0.283442 -0.119177 -0.540296 -0.297374 -0.114797 -0.560163 -0.31086 
-0.110401 -0.579049 -0.323769 -0.105958 -0.597092 -0.336041 -0.101466 -0.614489 -0.347696 
-0.0969512 -0.631472 -0.358822 -0.0924626 -0.64828 -0.369559 -0.0880719 -0.665133 -0.380078 
-0.0838662 -0.682203 -0.390548 -0.0799406 -0.699591 -0.401109 -0.0763895 -0.717315 -0.411853 
-0.0732981 -0.735299 -0.422801 -0.0707331 -0.753381 -0.433903 -0.0687362 -0.771322 -0.445036 
-0.0673179 -0.78883 -0.456022 -0.0664545 -0.805585 -0.466647 -0.0660879 -0.821267 -0.476687 
-0.0661279 -0.835585 -0.485938 -0.0664578 -0.848302 -0.49424 -0.0669423 -0.859256 -0.501493 
-0.0674376 -0.868366 -0.507674 -0.0678027 -0.875642 -0.512833 -0.0679105 -0.881173 -0.517087 
-0.0676589 -0.88512 -0.520601 -0.0669795 -0.887696 -0.523565 -0.0658444 -0.889145 -0.526172 
-0.064269 -0.889722 -0.528587 -0.0623119 -0.889673 -0.530931 -0.0600707 -0.889219 -0.533268 
-0.0576742 -0.888548 -0.535596 -0.0552722 -0.887806 -0.537859 -0.0530229 -0.8871 -0.539953 
-0.0510801 -0.886501 -0.541749 -0.0495793 -0.886052 -0.543114 -0.048627 -0.885776 -0.543934 
-0.0482908 -0.885683 -0.544134 
LINES 2 100
OFFSETS vtktypeint64
0 100 
CONNECTIVITY vtktypeint64
0 1 2 3 4 5 6 7 8 
9 10 11 12 13 14 15 16 17 
18 19 20 21 22 23 24 25 26 
27 28 29 30 31 32 33 34 35 
36 37 38 39 40 41 42 43 44 
45 46 47 48 49 50 51 52 53 
54 55 56 57 58 59 60 61 62 
63 64 65 66 67 68 69 70 71 
72 73 74 75 76 77 78 79 80 
81 82 83 84 85 86 87 88 89 
90 91 92 93 94 95 96 97 98 
99 
POINT_DATA 100
FIELD FieldData 3
_theta 1 100 double
0 0.031733259127 0.063466518254 0.095199777382 0.12693303651 0.15866629564 0.19039955476 0.22213281389 0.25386607302 
0.28559933214 0.31733259127 0.3490658504 0.38079910953 0.41253236865 0.44426562778 0.47599888691 0.50773214603 0.53946540516 
0.57119866429 0.60293192342 0.63466518254 0.66639844167 0.6981317008 0.72986495992 0.76159821905 0.79333147818 0.82506473731 
0.85679799643 0.88853125556 0.92026451469 0.95199777382 0.98373103294 1.0154642921 1.0471975512 1.0789308103 1.1106640695 
1.1423973286 1.1741305877 1.2058638468 1.237597106 1.2693303651 1.3010636242 1.3327968833 1.3645301425 1.3962634016 
1.4279966607 1.4597299198 1.491463179 1.5231964381 1.5549296972 1.5866629564 1.6183962155 1.6501294746 1.6818627337 
1.7135959929 1.745329252 1.7770625111 1.8087957702 1.8405290294 1.8722622885 1.9039955476 1.9357288068 1.9674620659 
1.999195325 2.0309285841 2.0626618433 2.0943951024 2.1261283615 2.1578616206 2.1895948798 2.2213281389 2.253061398 
2.2847946572 2.3165279163 2.3482611754 2.3799944345 2.4117276937 2.4434609528 2.4751942119 2.506927471 2.5386607302 
2.5703939893 2.6021272484 2.6338605076 2.6655937667 2.6973270258 2.7290602849 2.7607935441 2.7925268032 2.8242600623 
2.8559933214 2.8877265806 2.9194598397 2.9511930988 2.982926358 3.0146596171 3.0463928762 3.0781261353 3.1098593945 
3.1415926536 
_radius 1 100 double
1.2959208739e-15 0.022628300207 0.045034440607 0.067020974661 0.088419737232 0.10909724258 0.12895283749 0.14791109476 0.16591136941 
0.18289786114 0.19881297589 0.2135954977 0.22718339551 0.23951949673 0.250557421 0.26026562594 0.26862914009 0.27565058476 
0.28135279375 0.28578376546 0.28902187116 0.29117756364 0.2923886356 0.29280864703 0.292590809 0.29187115231 0.29075486049 
0.28930853311 0.28755955119 0.28550226854 0.28310970396 0.28034871764 0.27719630198 0.27365484299 0.26976551627 0.26562142705 
0.26138360159 0.25729952611 0.25371520843 0.25106442948 0.2498207992 0.25041194369 0.25311679351 0.25798476071 0.26481355634 
0.27319628355 0.28261586726 0.29254875984 0.302545961 0.31227670635 0.32153509877 0.33021708319 0.33827813962 0.3456863979 
0.3523899201 0.35831118519 0.36336559468 0.36748878418 0.37065814319 0.37290096667 0.37428807951 0.37491599203 0.37488315656 
0.37426691987 0.373107188 0.37140074173 0.36910712328 0.36616389946 0.36250675602 0.35808898861 0.35289578403 0.34695077247 
0.34031467178 0.3330775361 0.32534684875 0.3172335758 0.3088376096 0.30023333065 0.29145603196 0.2824909617 0.27326807495 
0.26366598453 0.25352721828 0.24268396524 0.23099016365 0.21835335949 0.20475906312 0.1902814374 0.17507663463 0.15935846821 
0.14336005409 0.12728927169 0.11128945594 0.095417668415 0.07964890459 0.063905409125 0.048099742625 0.032174657415 0.016125580988 
1.3849160064e-15 
_area 1 100 double
0 0.00090124849663 0.0036138847183 0.0081565236532 0.014535137488 0.022709431918 0.032553901338 0.043832313841 0.056207158954 
0.069281153395 0.082648643451 0.095939253534 0.10884624097 0.1211359052 0.13263875074 0.14323364424 0.15284136997 0.16143417768 
0.16905289562 0.17581477665 0.18189589613 0.18748083346 0.19269091766 0.19752525551 0.20185055684 0.2054427195 0.20805393064 
0.20948217038 0.20963581603 0.20859171429 0.20663096105 0.20421047461 0.20183119443 0.19985081953 0.19837835575 0.19731730134 
0.19649787284 0.19581383855 0.19531479216 0.19523484288 0.1959648976 0.19798650942 0.20175605231 0.20753147246 0.21527850401 
0.22479593931 0.23607778504 0.24922201919 0.2635116737 0.27801384865 0.29216720686 0.3057620175 0.31884840353 0.331614321 
0.34419596241 0.35644117167 0.36783957886 0.37773916572 0.38558359477 0.39102267633 0.39395793125 0.3945428664 0.39312675887 
0.39016197999 0.38609497384 0.38124106834 0.37568104525 0.36927012089 0.36175128165 0.35289101789 0.34257717537 0.33086692147 
0.31798694492 0.30428130196 0.29013313034 0.27590825212 0.26194585506 0.24857092463 0.23604477208 0.22434201303 0.21294834349 
0.20112848184 0.18831896955 0.17424694579 0.15891303538 0.14254788934 0.12555453151 0.10843739769 0.091725550172 0.075900576451 
0.06133997205 0.048286213391 0.036848031896 0.02703143891 0.018787500511 0.012058916911 0.0068107722939 0.003039287011 0.00076205147698 
1.4306635036e-16 
