# vtk DataFile Version 5.1
vtk output
ASCII
DATASET POLYDATA
POINTS 1002 float
-11.9343 -1.64997 -4.12412 10.8004 0.412146 -3.78795 -12.7434 -0.323354 2.32957 
12.6681 -0.0708827 4.80161 1.06395 3.18567 -2.10594 -0.836035 2.27608 0.940938 
1.15939 -6.05591 -1.85017 1.03689 -6.62957 2.80434 19.2778 7.56272 1.26265 
-19.5568 9.30024 -0.0229899 16.8989 -3.92212 -0.804662 -19.1175 -3.4915 0.426746 
-9.8961 -1.86689 -4.27289 -7.41366 -1.86658 -4.19513 -4.75661 -1.72739 -4.09936 
-2.12728 -1.52678 -4.12941 0.561774 -1.20656 -4.09257 3.3314 -0.744784 -3.83473 
5.84463 -0.300705 -3.59983 7.83308 -0.00124727 -3.61298 9.41273 0.204701 -3.74438 
-11.4082 -1.2455 -4.08073 -10.7155 -0.788373 -4.05153 -9.92083 -0.345407 -4.05307 
-8.94995 0.0748624 -3.99442 -7.59661 0.556243 -3.73793 -5.86832 1.11218 -3.30115 
-4.07402 1.6399 -2.86754 -2.39896 2.10993 -2.55884 -0.726869 2.60802 -2.33586 
-11.1305 -2.20982 -4.26038 -10.0072 -2.73739 -4.17369 -8.58842 -3.22065 -3.86798 
-7.06431 -3.72161 -3.55021 -5.58067 -4.3162 -3.37494 -4.09847 -4.9461 -3.2233 
-2.60233 -5.438 -2.9381 -1.20484 -5.71725 -2.56169 0.0340766 -5.88142 -2.19409 
-13.4013 -0.994874 -3.70101 -14.7414 -0.119527 -3.14532 -15.9832 0.937437 -2.68041 
-17.2579 2.07447 -2.35463 -18.602 3.16989 -1.97912 -19.7151 4.25227 -1.4626 
-20.2161 5.51525 -0.973832 -20.1385 6.98941 -0.644552 -19.8401 8.37186 -0.379494 
-13.2276 -1.62471 -3.90718 -14.3989 -1.56014 -3.576 -15.5476 -1.60176 -3.21263 
-16.6878 -1.79559 -2.87405 -17.581 -2.02742 -2.4614 -18.0456 -2.23385 -1.84141 
-18.2957 -2.50082 -1.10702 -18.6192 -2.86258 -0.476783 -18.9705 -3.22198 -0.0013171 
10.7085 1.05662 -3.4602 10.402 1.70419 -3.20746 9.89157 2.32161 -3.01703 
9.20205 2.87503 -2.85122 8.31874 3.29203 -2.70921 7.2243 3.49233 -2.59619 
5.94045 3.49357 -2.46916 4.47631 3.39738 -2.30904 2.82828 3.28243 -2.17162 
9.91937 -0.367782 -4.13606 9.04351 -1.15085 -4.30245 8.33529 -1.93533 -4.1208 
7.75488 -2.75469 -3.63892 7.01302 -3.60442 -3.14062 5.90657 -4.38342 -2.85134 
4.596 -4.98617 -2.69442 3.35365 -5.41877 -2.47419 2.2374 -5.7583 -2.15735 
12.1902 1.10993 -3.49066 13.4923 1.95127 -3.27978 14.4243 2.87267 -3.38234 
15.1971 3.85628 -3.55331 16.4243 4.91067 -3.19976 18.0969 5.92375 -2.22771 
19.3667 6.70248 -1.17077 19.7272 7.18555 -0.341499 19.5294 7.45071 0.423876 
11.5923 0.130561 -4.00409 12.2993 -0.22598 -4.21657 12.9165 -0.714808 -4.36691 
13.5903 -1.37658 -4.34064 14.5038 -2.11712 -4.00448 15.5494 -2.737 -3.37948 
16.3638 -3.14636 -2.66858 16.7712 -3.43161 -2.0193 16.8987 -3.68861 -1.41435 
-10.7698 -0.754372 2.29649 -8.34411 -1.08457 2.40481 -5.62918 -1.25386 2.6485 
-2.81285 -1.31131 2.90929 0.0691503 -1.30941 3.13728 3.08333 -1.18388 3.47198 
6.12741 -0.891024 3.99237 8.88625 -0.535875 4.52404 11.0859 -0.24968 4.82585 
-12.3648 0.105164 2.21533 -11.7904 0.463559 2.00087 -11.0569 0.707492 1.661 
-10.1566 0.892061 1.33201 -8.9392 1.14501 1.24215 -7.29737 1.50747 1.40614 
-5.43148 1.8606 1.56139 -3.69493 2.0768 1.49053 -2.21338 2.17398 1.22708 
-11.834 -1.06472 2.38307 -10.7389 -1.84302 2.40353 -9.5576 -2.62656 2.31527 
-8.28452 -3.38716 2.19494 -6.82489 -4.13076 2.22209 -5.17171 -4.86785 2.42976 
-3.45665 -5.54227 2.65794 -1.818 -6.06509 2.77947 -0.317359 -6.41213 2.80843 
-14.203 0.477398 2.43761 -15.3709 1.44214 2.72609 -16.2391 2.56615 3.11669 
-17.0091 3.88964 3.40419 -17.8526 5.52683 3.37969 -18.6955 7.46044 2.93334 
-19.3379 9.2506 2.12443 -19.6726 10.2424 1.20576 -19.7197 10.1617 0.456967 
-13.9327 -0.336005 2.439 -14.9729 -0.407582 2.61398 -15.8317 -0.590346 2.9722 
-16.5077 -0.925827 3.49929 -17.0603 -1.37961 3.87688 -17.6571 -1.85982 3.71712 
-18.393 -2.31888 2.99831 -19.0619 -2.76223 2.04724 -19.3392 -3.17023 1.15866 
12.0435 0.435645 4.64315 11.2464 0.974135 4.42699 10.322 1.51181 4.2028 
9.24089 1.96733 3.95115 7.88547 2.25733 3.54901 6.21333 2.3518 2.92591 
4.34246 2.29454 2.20467 2.45504 2.19505 1.59075 0.701268 2.17173 1.18243 
12.3072 -0.676742 4.99411 11.7139 -1.3636 5.042 10.8278 -2.1231 4.90351 
9.65971 -2.90254 4.68362 8.25745 -3.66073 4.47698 6.70588 -4.3936 4.19985 
5.16857 -5.06943 3.78298 3.76886 -5.64135 3.35493 2.44087 -6.13701 3.04391 
13.5675 0.383723 4.43611 14.2813 0.900257 3.83119 14.8194 1.53943 3.02474 
15.3853 2.35724 2.21999 16.2978 3.30537 1.7921 17.5351 4.23128 1.91415 
18.6106 5.07114 2.22882 19.1605 5.91207 2.23182 19.2958 6.7852 1.82671 
13.7134 -0.342362 4.64893 14.638 -0.701796 4.31625 15.626 -1.10298 3.98023 
16.8155 -1.52057 3.7879 18.0361 -1.99914 3.60844 18.8711 -2.54744 3.11862 
19.0216 -3.04807 2.20552 18.536 -3.4023 1.08939 17.7221 -3.65921 0.0466744 
1.16191 3.51878 -1.90617 1.3466 3.78508 -1.62834 1.46612 3.86006 -1.25311 
1.29794 3.71391 -0.852097 0.77828 3.46334 -0.529236 0.12194 3.22784 -0.273814 
-0.397442 3.00454 0.00793278 -0.691031 2.75299 0.335851 -0.815062 2.49466 0.656855 
4.16171 4.00832 -1.81362 7.29111 5.2032 -1.41512 9.86718 6.65462 -1.03464 
11.6099 7.98028 -0.795748 13.0299 8.85003 -0.565193 14.7962 9.30962 -0.104904 
16.7356 9.49894 0.50999 18.1776 9.30718 0.980473 18.9222 8.61253 1.19333 
-2.07345 2.81062 -2.25301 -5.49749 2.67536 -2.49315 -8.89428 2.9747 -2.91083 
-11.8223 3.8538 -3.35903 -13.8503 5.03243 -3.33008 -15.0466 5.90574 -2.50598 
-16.0619 6.36846 -1.32375 -17.3374 6.97915 -0.484768 -18.6419 8.06846 -0.157872 
1.8205 2.53063 0.986769 5.38281 3.42931 1.61136 9.43406 4.98043 2.70844 
12.8676 6.60451 3.56107 15.0539 7.68363 3.69563 16.4691 8.24013 3.46059 
17.6418 8.56761 3.23225 18.4868 8.61767 2.8391 18.942 8.24154 2.11757 
-3.13432 2.46804 0.94152 -5.61646 2.78099 0.764049 -8.45645 3.11753 0.222283 
-11.3518 3.60861 -0.252869 -13.6167 4.43377 -0.0152449 -15.0806 5.56195 0.763294 
-16.2814 6.83583 1.22265 -17.5592 8.05919 0.987491 -18.7217 8.95433 0.426647 
1.11947 -6.39895 -1.4807 0.97886 -6.83278 -1.14764 0.712427 -7.33368 -0.860705 
0.295053 -7.84623 -0.566993 -0.19137 -8.2561 -0.151995 -0.464319 -8.39063 0.48081 
-0.273374 -8.15422 1.27991 0.265074 -7.65382 2.03334 0.781867 -7.10087 2.5486 
3.04028 -6.10459 -1.64241 5.07013 -6.18617 -1.42896 6.99618 -6.24296 -1.37842 
8.76996 -6.27431 -1.56206 10.6452 -6.39307 -1.79927 12.5626 -6.54195 -1.8944 
14.0173 -6.35905 -1.85066 14.9126 -5.65875 -1.69054 15.7548 -4.7225 -1.34586 
-0.708962 -6.21224 -1.79959 -2.84936 -6.35771 -1.80659 -5.32471 -6.49349 -1.9476 
-8.03029 -6.57451 -2.19143 -10.5984 -6.43592 -2.30172 -12.778 -5.9529 -2.0507 
-14.7255 -5.27109 -1.49607 -16.5772 -4.63658 -0.847597 -18.1197 -4.08468 -0.204951 
3.39555 -6.46227 3.02519 5.97658 -6.37572 3.37917 8.43053 -6.54823 3.6522 
10.3849 -6.87681 3.50978 11.8167 -6.97473 2.83283 13.0072 -6.62359 1.84652 
14.1185 -5.98232 0.86105 15.1266 -5.27285 0.0618973 16.0387 -4.57742 -0.484382 
-1.37009 -7.01862 2.57504 -4.01407 -7.26967 2.26686 -6.74933 -7.24063 1.75179 
-9.36874 -6.94985 1.12869 -11.7199 -6.50784 0.708819 -13.8145 -5.94802 0.623137 
-15.7083 -5.29384 0.664183 -17.3097 -4.65171 0.62323 -18.4564 -4.07463 0.511841 
19.7902 6.31771 0.796528 20.5332 5.07872 0.45865 21.1278 4.04119 0.1721 
21.0793 3.02576 -0.308788 20.6522 1.66801 -0.836231 20.5131 0.0409604 -0.91469 
20.458 -1.37866 -0.568031 19.749 -2.37546 -0.356203 18.3581 -3.1478 -0.520674 
-20.1539 9.76339 0.0103711 -20.4063 9.35664 0.394026 -20.7686 7.87476 0.959292 
-21.4823 5.84703 1.36888 -21.9554 4.02575 1.55779 -21.5849 2.45719 1.64423 
-20.7577 0.744921 1.56605 -20.1293 -1.04853 1.24766 -19.697 -2.51147 0.817093 
-9.0841 -1.36897 -4.19475 -8.08449 -0.825057 -4.06428 -6.34736 -1.27725 -4.07348 
-6.9834 -0.328509 -3.89791 -5.07199 -0.679177 -3.81284 -3.50554 -1.09089 -3.92651 
-5.682 0.166561 -3.65429 -3.66495 -0.135259 -3.48006 -1.98886 -0.459325 -3.54972 
-0.663323 -0.834583 -3.8518 -4.03442 0.777733 -3.30489 -2.06761 0.475648 -3.15464 
-0.310082 0.187652 -3.13799 1.06418 -0.116472 -3.4123 2.24034 -0.422958 -3.72009 
-2.20387 1.4482 -2.93522 -0.298627 1.22331 -2.8906 1.45657 0.971536 -2.84647 
2.86268 0.689545 -3.02558 3.99594 0.393073 -3.33717 5.00162 0.0787819 -3.53384 
-0.47609 2.04989 -2.64506 1.41367 1.97129 -2.70013 3.15281 1.84377 -2.69594 
4.57624 1.62326 -2.7845 5.66426 1.30289 -3.03238 6.55747 0.92584 -3.28535 
7.29945 0.496031 -3.45418 1.15033 2.62437 -2.41729 2.96399 2.65926 -2.53081 
4.62703 2.67261 -2.60404 6.04469 2.57798 -2.66581 7.14684 2.29862 -2.81449 
7.98743 1.86704 -3.03649 8.65354 1.3575 -3.25223 9.13835 0.796444 -3.47195 
-12.9821 -0.56858 -3.69035 -14.3939 0.383053 -3.17716 -12.4389 -0.132787 -3.76795 
-15.6136 1.54988 -2.68367 -13.9085 0.840812 -3.30312 -11.7476 0.26893 -3.88318 
-16.7934 2.7134 -2.22776 -15.0559 2.0403 -2.72974 -13.2046 1.22468 -3.43795 
-10.7249 0.666987 -3.85551 -17.9681 3.71113 -1.73584 -16.0962 3.19502 -2.16993 
-14.3226 2.40592 -2.87472 -12.1615 1.55537 -3.46575 -9.23856 1.10058 -3.56923 
-18.8068 4.69204 -1.24337 -17.0334 4.1945 -1.70164 -15.3321 3.59338 -2.46061 
-13.4363 2.64942 -3.15196 -10.7936 1.81961 -3.35247 -7.48868 1.5196 -3.14309 
-19.0506 5.86657 -0.853161 -17.534 5.18049 -1.3123 -16.061 4.70581 -2.1908 
-14.545 3.85814 -3.07972 -12.3334 2.74934 -3.38878 -9.23497 2.0286 -3.13157 
-5.74823 1.89955 -2.76831 -18.8905 7.1064 -0.534986 -17.5326 6.17601 -0.931226 
-16.237 5.68382 -1.84492 -15.0962 5.04029 -2.95377 -13.4726 3.90825 -3.51907 
-10.8506 2.80902 -3.31942 -7.49791 2.29302 -2.83392 -3.99286 2.31499 -2.49333 
-17.4836 7.70599 0.196792 -16.252 6.93247 0.412983 -16.0915 6.78439 -0.489055 
-15.1235 5.91751 0.178989 -14.9555 6.22038 -0.690352 -14.8996 6.30657 -1.66577 
-13.7983 4.89712 -0.36119 -13.7185 5.39785 -0.967873 -13.5927 5.8227 -1.80392 
-13.7163 5.75471 -2.6993 -11.6653 4.08481 -0.535118 -11.7715 4.58164 -0.911989 
-11.6754 5.0856 -1.45494 -11.7036 5.25972 -2.20876 -11.9082 4.78185 -2.9596 
-8.7788 3.54474 -0.0803799 -8.99766 3.95548 -0.388868 -8.98473 4.36446 -0.736259 
-8.9145 4.62819 -1.26423 -9.05963 4.43765 -1.99712 -9.19983 3.76714 -2.63508 
-5.86597 3.12881 0.455881 -6.05533 3.4547 0.129275 -6.03739 3.74245 -0.185797 
[...]
POINT_DATA 1002
FIELD FieldData 4
_paraPhi 1 1002 double
6.2831853072 3.1415926536 6.2831853072 3.1415926536 4.7123889804 4.7123889804 1.5707963268 1.5707963268 3.6951670125 
5.7296109483 2.5880182947 0.5535743589 6.2831853072 6.2831853072 6.2831853072 6.2831853072 3.1415926536 3.1415926536 
3.1415926536 3.1415926536 3.1415926536 6.1053039672 5.898798347 5.6768734901 5.4599499503 5.2659633393 5.1032165617 
4.9713148346 4.8656852733 4.7809517865 0.17788134 0.38438696014 0.60631181711 0.82323535693 1.0172219679 1.1799687454 
1.3118704726 1.4175000338 1.5022335207 6.1892828907 6.1070320098 6.035312792 5.9728339911 5.9183214791 5.8706119594 
5.8286879411 5.7916808611 5.7588591896 0.093902416448 0.17615329733 0.2478725152 0.31035131605 0.36486382811 0.41257334776 
0.45449736604 0.4915044461 0.52432611754 3.3194739936 3.5259796137 3.7479044707 3.9648280105 4.1588146215 4.321561399 
4.4534631262 4.5590926874 4.6438261743 2.9637113136 2.7572056934 2.5352808365 2.3183572967 2.1243706857 1.9616239082 
1.829722181 1.7240926197 1.6393591329 3.23549507 3.3177459509 3.3894651688 3.4519439696 3.5064564817 3.5541660013 
3.5960900196 3.6330970997 3.6659187711 3.0476902371 2.9654393563 2.8937201384 2.8312413375 2.7767288255 2.7290193058 
2.6870952876 2.6500882075 2.617266536 6.2831853072 6.2831853072 6.2831853072 6.2831853072 3.1415926536 3.1415926536 
3.1415926536 3.1415926536 3.1415926536 6.1053039672 5.898798347 5.6768734901 5.4599499503 5.2659633393 5.1032165617 
4.9713148346 4.8656852733 4.7809517865 0.17788134 0.38438696014 0.60631181711 0.82323535693 1.0172219679 1.1799687454 
1.3118704726 1.4175000338 1.5022335207 6.1892828907 6.1070320098 6.035312792 5.9728339911 5.9183214791 5.8706119594 
5.8286879411 5.7916808611 5.7588591896 0.093902416448 0.17615329733 0.2478725152 0.31035131605 0.36486382811 0.41257334776 
0.45449736604 0.4915044461 0.52432611754 3.3194739936 3.5259796137 3.7479044707 3.9648280105 4.1588146215 4.321561399 
4.4534631262 4.5590926874 4.6438261743 2.9637113136 2.7572056934 2.5352808365 2.3183572967 2.1243706857 1.9616239082 
1.829722181 1.7240926197 1.6393591329 3.23549507 3.3177459509 3.3894651688 3.4519439696 3.5064564817 3.5541660013 
3.5960900196 3.6330970997 3.6659187711 3.0476902371 2.9654393563 2.8937201384 2.8312413375 2.7767288255 2.7290193058 
2.6870952876 2.6500882075 2.617266536 4.7123889804 4.7123889804 4.7123889804 4.7123889804 4.7123889804 4.7123889804 
4.7123889804 4.7123889804 4.7123889804 4.6087898617 4.4991390697 4.3857031936 4.2712800401 4.1588146215 4.0509635631 
3.94975894 3.8564636551 3.7716124825 4.8159880991 4.9256388911 5.0390747672 5.1534979207 5.2659633393 5.3738143976 
5.4750190208 5.5683143056 5.6531654782 4.6087898617 4.4991390697 4.3857031936 4.2712800401 4.1588146215 4.0509635631 
3.94975894 3.8564636551 3.7716124825 4.8159880991 4.9256388911 5.0390747672 5.1534979207 5.2659633393 5.3738143976 
5.4750190208 5.5683143056 5.6531654782 1.5707963268 1.5707963268 1.5707963268 1.5707963268 1.5707963268 1.5707963268 
1.5707963268 1.5707963268 1.5707963268 1.6743954455 1.7840462375 1.8974821136 2.0119052671 2.1243706857 2.232221744 
2.3334263672 2.426721652 2.5115728246 1.4671972081 1.3575464161 1.24411054 1.1296873865 1.0172219679 0.90937090954 
0.80816628637 0.71487100155 0.63001982895 1.6743954455 1.7840462375 1.8974821136 2.0119052671 2.1243706857 2.232221744 
2.3334263672 2.426721652 2.5115728246 1.4671972081 1.3575464161 1.24411054 1.1296873865 1.0172219679 0.90937090954 
0.80816628637 0.71487100155 0.63001982895 3.6007720849 3.4966939854 3.3839471039 3.2645756454 3.1415926536 3.0186096618 
2.8992382033 2.7864913217 2.6824132222 5.8240058758 5.9280839753 6.0408308569 6.1602023154 6.2831853072 0.12298299178 
0.2423544503 0.35510133185 0.45917943135 6.0560271438 5.7885595667 5.9702140275 5.5125918794 5.6029703303 5.7885595667 
5.2659633393 5.2659633393 5.2659633393 5.2659633393 5.0674903122 5.0120975802 4.9155579264 4.7123889804 4.1588146215 
4.9155579264 4.8353719722 4.7123889804 4.5092200343 4.1588146215 3.6362183941 4.8004512023 4.7123889804 4.5894059886 
4.4126803806 4.1588146215 3.8218076305 3.4545639333 4.7123889804 4.6243267584 4.5092200343 4.3572876485 4.1588146215 
3.9121860814 3.6362183941 3.368750817 6.0174235957 5.9434319871 5.8263323547 5.8809213739 5.7674481418 5.6279784266 
5.8278025282 5.718968232 5.5891129425 5.4372443565 5.7823484065 5.678536687 5.5575666702 5.4192596322 5.2659633393 
5.743164462 5.6444075337 5.5314983644 5.4046708639 5.2659633393 5.1195510325 5.7091357773 5.6152775188 5.5096229709 
5.3926039573 5.2659633393 5.1329233157 4.9978930058 5.6793730533 5.5901633916 5.4910209005 5.3824597928 5.2659633393 
5.1440684722 5.0201624502 4.8979782167 5.5683143056 5.4750190208 5.4750190208 5.3738143976 5.3738143976 5.3738143976 
5.2659633393 5.2659633393 5.2659633393 5.2659633393 5.1534979207 5.1534979207 5.1534979207 5.1534979207 5.1534979207 
5.0390747672 5.0390747672 5.0390747672 5.0390747672 5.0390747672 5.0390747672 4.9256388911 4.9256388911 4.9256388911 
4.9256388911 4.9256388911 4.9256388911 4.9256388911 4.8159880991 4.8159880991 4.8159880991 4.8159880991 4.8159880991 
4.8159880991 4.8159880991 4.8159880991 4.6087898617 4.6087898617 4.4991390697 4.6087898617 4.4991390697 4.3857031936 
4.6087898617 4.4991390697 4.3857031936 4.2712800401 4.6087898617 4.4991390697 4.3857031936 4.2712800401 4.1588146215 
4.6087898617 4.4991390697 4.3857031936 4.2712800401 4.1588146215 4.0509635631 4.6087898617 4.4991390697 4.3857031936 
4.2712800401 4.1588146215 4.0509635631 3.94975894 4.6087898617 4.4991390697 4.3857031936 4.2712800401 4.1588146215 
4.0509635631 3.94975894 3.8564636551 4.526799744 4.4046155105 4.426884955 4.2807094886 4.2918546451 4.3052269283 
4.1588146215 4.1588146215 4.1588146215 4.1588146215 4.042318168 4.0321740035 4.0201070968 4.0055183285 3.9875336042 
3.9337570603 3.9151549899 3.8932795963 3.8672112905 3.8356650183 3.7967995342 3.8346145692 3.809500442 3.7803704271 
3.7462412737 3.7058097288 3.657329819 3.5984456061 3.7454049075 3.7156421835 3.6816134988 3.6424295543 3.5969754326 
3.5438565869 3.4813459737 3.4073543651 3.5642842451 3.4524645613 3.5233842518 3.3320300872 3.403123212 3.4773852225 
3.20576226 3.2746326772 3.348015857 3.4255060145 3.0774230472 3.1415926536 3.2112816139 3.2864685043 3.3668817272 
2.95115522 3.00855263 3.0719036933 3.1415926536 3.2178377658 3.3005964304 2.8307207459 2.8800620952 2.9351694502 
2.9967168029 3.0653475414 3.1415926536 3.225752376 2.718901062 2.7598010554 2.8058000847 2.8576792927 2.91630358 
2.9825888767 3.0574329311 3.1415926536 3.5642842451 3.5233842518 3.4524645613 3.4773852225 3.403123212 3.3320300872 
3.4255060145 3.348015857 3.2746326772 3.20576226 3.3668817272 3.2864685043 3.2112816139 3.1415926536 3.0774230472 
3.3005964304 3.2178377658 3.1415926536 3.0719036933 3.00855263 2.95115522 3.225752376 3.1415926536 3.0653475414 
2.9967168029 2.9351694502 2.8800620952 2.8307207459 3.1415926536 3.0574329311 2.9825888767 2.91630358 2.8576792927 
2.8058000847 2.7598010554 2.718901062 4.526799744 4.426884955 4.4046155105 4.3052269283 4.2918546451 4.2807094886 
4.1588146215 4.1588146215 4.1588146215 4.1588146215 3.9875336042 4.0055183285 4.0201070968 4.0321740035 4.042318168 
3.7967995342 3.8356650183 3.8672112905 3.8932795963 3.9151549899 3.9337570603 3.5984456061 3.657329819 3.7058097288 
3.7462412737 3.7803704271 3.809500442 3.8346145692 3.4073543651 3.4813459737 3.5438565869 3.5969754326 3.6424295543 
3.6816134988 3.7156421835 3.7454049075 4.7123889804 4.8004512023 4.6243267584 4.9155579264 4.7123889804 4.5092200343 
5.0674903122 4.8353719722 4.5894059886 4.3572876485 5.2659633393 5.0120975802 4.7123889804 4.4126803806 4.1588146215 
5.5125918794 5.2659633393 4.9155579264 4.5092200343 4.1588146215 3.9121860814 5.7885595667 5.6029703303 5.2659633393 
4.7123889804 4.1588146215 3.8218076305 3.6362183941 6.0560271438 5.9702140275 5.7885595667 5.2659633393 4.1588146215 
3.6362183941 3.4545639333 3.368750817 0.22715816343 0.49462574053 0.3129712797 0.77059342779 0.68021497688 0.49462574053 
1.0172219679 1.0172219679 1.0172219679 1.0172219679 1.2156949949 1.271087727 1.3676273807 1.5707963268 2.1243706857 
1.3676273807 1.447813335 1.5707963268 1.7739652728 2.1243706857 2.6469669131 1.4827341049 1.5707963268 1.6937793186 
1.8705049266 2.1243706857 2.4613776767 2.8286213739 1.5707963268 1.6588585487 1.7739652728 1.9258976586 2.1243706857 
2.3709992258 2.6469669131 2.9144344902 1.7563855631 1.8785697967 1.8563003522 2.0024758186 1.9913306621 1.9779583789 
2.1243706857 2.1243706857 2.1243706857 2.1243706857 2.2408671392 2.2510113037 2.2630782103 2.2776669786 2.295651703 
2.3494282469 2.3680303173 2.3899057108 2.4159740166 2.4475202889 2.486385773 2.448570738 2.4736848652 2.5028148801 
2.5369440334 2.5773755784 2.6258554882 2.6847397011 2.5377803997 2.5675431237 2.6015718084 2.6407557529 2.6862098746 
2.7393287203 2.8018393335 2.8758309421 1.6743954455 1.6743954455 1.7840462375 1.6743954455 1.7840462375 1.8974821136 
1.6743954455 1.7840462375 1.8974821136 2.0119052671 1.6743954455 1.7840462375 1.8974821136 2.0119052671 2.1243706857 
1.6743954455 1.7840462375 1.8974821136 2.0119052671 2.1243706857 2.232221744 1.6743954455 1.7840462375 1.8974821136 
2.0119052671 2.1243706857 2.232221744 2.3334263672 1.6743954455 1.7840462375 1.8974821136 2.0119052671 2.1243706857 
2.232221744 2.3334263672 2.426721652 1.4671972081 1.3575464161 1.4671972081 1.24411054 1.3575464161 1.4671972081 
1.1296873865 1.24411054 1.3575464161 1.4671972081 1.0172219679 1.1296873865 1.24411054 1.3575464161 1.4671972081 
0.90937090954 1.0172219679 1.1296873865 1.24411054 1.3575464161 1.4671972081 0.80816628637 0.90937090954 1.0172219679 
1.1296873865 1.24411054 1.3575464161 1.4671972081 0.71487100155 0.80816628637 0.90937090954 1.0172219679 1.1296873865 
1.24411054 1.3575464161 1.4671972081 0.60381225391 0.57404952988 0.69302191562 0.54002084522 0.66790778838 0.79216440667 
0.50083690068 0.63877777351 0.77356233629 0.90072551443 0.45538277901 0.60464862014 0.75168694275 0.89058134991 1.0172219679 
0.40226393329 0.56421707518 0.72561863695 0.87851444325 1.0172219679 1.139116835 0.33975332011 0.51573716537 0.69407236469 
0.86392567495 1.0172219679 1.1502619915 1.2630228569 0.26576171152 0.45685295248 0.6552068806 0.84594095064 1.0172219679 
1.1636342747 1.2852923014 1.3852070904 0.22715816343 0.3129712797 0.49462574053 0.49462574053 0.68021497688 0.77059342779 
1.0172219679 1.0172219679 1.0172219679 1.0172219679 2.1243706857 1.5707963268 1.3676273807 1.271087727 1.2156949949 
2.6469669131 2.1243706857 1.7739652728 1.5707963268 1.447813335 1.3676273807 2.8286213739 2.4613776767 2.1243706857 
1.8705049266 1.6937793186 1.5707963268 1.4827341049 2.9144344902 2.6469669131 2.3709992258 2.1243706857 1.9258976586 
1.7739652728 1.6588585487 1.5707963268 1.7563855631 1.8563003522 1.8785697967 1.9779583789 1.9913306621 2.0024758186 
2.1243706857 2.1243706857 2.1243706857 2.1243706857 2.295651703 2.2776669786 2.2630782103 2.2510113037 2.2408671392 
2.486385773 2.4475202889 2.4159740166 2.3899057108 2.3680303173 2.3494282469 2.6847397011 2.6258554882 2.5773755784 
2.5369440334 2.5028148801 2.4736848652 2.448570738 2.8758309421 2.8018393335 2.7393287203 2.6862098746 2.6407557529 
2.6015718084 2.5675431237 2.5377803997 5.8604937156 5.901393709 5.9723133995 5.9473927383 6.0216547488 6.0927478736 
5.9992719463 6.0767621038 6.1501452836 6.2190157008 6.0578962336 6.1383094565 6.2134963469 0 0.064169606361 
6.1241815303 6.206940195 6.2831853072 0.069688960264 0.13304002361 0.19043743361 6.1990255847 0 0.07624511221 
0.14487585072 0.20642320337 0.26153055843 0.3108719077 0 0.084159722458 0.15900377685 0.22528907359 0.28391336087 
0.3357925689 0.38179159818 0.42269159155 5.8604937156 5.9723133995 5.901393709 6.0927478736 6.0216547488 5.9473927383 
6.2190157008 6.1501452836 6.0767621038 5.9992719463 0.064169606361 0 6.2134963469 6.1383094565 6.0578962336 
0.19043743361 0.13304002361 0.069688960264 6.2831853072 6.206940195 6.1241815303 0.3108719077 0.26153055843 0.20642320337 
0.14487585072 0.07624511221 6.2831853072 6.1990255847 0.42269159155 0.38179159818 0.3357925689 0.28391336087 0.22528907359 
0.15900377685 0.084159722458 0 5.6793730533 5.7091357773 5.5901633916 5.743164462 5.6152775188 5.4910209005 
5.7823484065 5.6444075337 5.5096229709 5.3824597928 5.8278025282 5.678536687 5.5314983644 5.3926039573 5.2659633393 
5.8809213739 5.718968232 5.5575666702 5.4046708639 5.2659633393 5.1440684722 5.9434319871 5.7674481418 5.5891129425 
5.4192596322 5.2659633393 5.1329233157 5.0201624502 6.0174235957 5.8263323547 5.6279784266 5.4372443565 5.2659633393 
5.1195510325 4.9978930058 4.8979782167 1.3852070904 1.2852923014 1.2630228569 1.1636342747 1.1502619915 1.139116835 
1.0172219679 1.0172219679 1.0172219679 1.0172219679 0.84594095064 0.86392567495 0.87851444325 0.89058134991 0.90072551443 
0.6552068806 0.69407236469 0.72561863695 0.75168694275 0.77356233629 0.79216440667 0.45685295248 0.51573716537 0.56421707518 
0.60464862014 0.63877777351 0.66790778838 0.69302191562 0.26576171152 0.33975332011 0.40226393329 0.45538277901 0.50083690068 
0.54002084522 0.57404952988 0.60381225391 
_paraPhiHalf 1 1002 double
0 3.1415926536 0 3.1415926536 1.5707963268 1.5707963268 1.5707963268 1.5707963268 2.5880182947 
0.5535743589 2.5880182947 0.5535743589 0 0 0 0 3.1415926536 3.1415926536 
3.1415926536 3.1415926536 3.1415926536 0.17788134 0.38438696014 0.60631181711 0.82323535693 1.0172219679 1.1799687454 
1.3118704726 1.4175000338 1.5022335207 0.17788134 0.38438696014 0.60631181711 0.82323535693 1.0172219679 1.1799687454 
1.3118704726 1.4175000338 1.5022335207 0.093902416448 0.17615329733 0.2478725152 0.31035131605 0.36486382811 0.41257334776 
0.45449736604 0.4915044461 0.52432611754 0.093902416448 0.17615329733 0.2478725152 0.31035131605 0.36486382811 0.41257334776 
0.45449736604 0.4915044461 0.52432611754 2.9637113136 2.7572056934 2.5352808365 2.3183572967 2.1243706857 1.9616239082 
1.829722181 1.7240926197 1.6393591329 2.9637113136 2.7572056934 2.5352808365 2.3183572967 2.1243706857 1.9616239082 
1.829722181 1.7240926197 1.6393591329 3.0476902371 2.9654393563 2.8937201384 2.8312413375 2.7767288255 2.7290193058 
2.6870952876 2.6500882075 2.617266536 3.0476902371 2.9654393563 2.8937201384 2.8312413375 2.7767288255 2.7290193058 
2.6870952876 2.6500882075 2.617266536 0 0 0 0 3.1415926536 3.1415926536 
3.1415926536 3.1415926536 3.1415926536 0.17788134 0.38438696014 0.60631181711 0.82323535693 1.0172219679 1.1799687454 
1.3118704726 1.4175000338 1.5022335207 0.17788134 0.38438696014 0.60631181711 0.82323535693 1.0172219679 1.1799687454 
1.3118704726 1.4175000338 1.5022335207 0.093902416448 0.17615329733 0.2478725152 0.31035131605 0.36486382811 0.41257334776 
0.45449736604 0.4915044461 0.52432611754 0.093902416448 0.17615329733 0.2478725152 0.31035131605 0.36486382811 0.41257334776 
0.45449736604 0.4915044461 0.52432611754 2.9637113136 2.7572056934 2.5352808365 2.3183572967 2.1243706857 1.9616239082 
1.829722181 1.7240926197 1.6393591329 2.9637113136 2.7572056934 2.5352808365 2.3183572967 2.1243706857 1.9616239082 
1.829722181 1.7240926197 1.6393591329 3.0476902371 2.9654393563 2.8937201384 2.8312413375 2.7767288255 2.7290193058 
2.6870952876 2.6500882075 2.617266536 3.0476902371 2.9654393563 2.8937201384 2.8312413375 2.7767288255 2.7290193058 
2.6870952876 2.6500882075 2.617266536 1.5707963268 1.5707963268 1.5707963268 1.5707963268 1.5707963268 1.5707963268 
1.5707963268 1.5707963268 1.5707963268 1.6743954455 1.7840462375 1.8974821136 2.0119052671 2.1243706857 2.232221744 
2.3334263672 2.426721652 2.5115728246 1.4671972081 1.3575464161 1.24411054 1.1296873865 1.0172219679 0.90937090954 
0.80816628637 0.71487100155 0.63001982895 1.6743954455 1.7840462375 1.8974821136 2.0119052671 2.1243706857 2.232221744 
2.3334263672 2.426721652 2.5115728246 1.4671972081 1.3575464161 1.24411054 1.1296873865 1.0172219679 0.90937090954 
0.80816628637 0.71487100155 0.63001982895 1.5707963268 1.5707963268 1.5707963268 1.5707963268 1.5707963268 1.5707963268 
1.5707963268 1.5707963268 1.5707963268 1.6743954455 1.7840462375 1.8974821136 2.0119052671 2.1243706857 2.232221744 
2.3334263672 2.426721652 2.5115728246 1.4671972081 1.3575464161 1.24411054 1.1296873865 1.0172219679 0.90937090954 
0.80816628637 0.71487100155 0.63001982895 1.6743954455 1.7840462375 1.8974821136 2.0119052671 2.1243706857 2.232221744 
2.3334263672 2.426721652 2.5115728246 1.4671972081 1.3575464161 1.24411054 1.1296873865 1.0172219679 0.90937090954 
0.80816628637 0.71487100155 0.63001982895 2.6824132222 2.7864913217 2.8992382033 3.0186096618 3.1415926536 3.0186096618 
2.8992382033 2.7864913217 2.6824132222 0.45917943135 0.35510133185 0.2423544503 0.12298299178 0 0.12298299178 
0.2423544503 0.35510133185 0.45917943135 0.22715816343 0.49462574053 0.3129712797 0.77059342779 0.68021497688 0.49462574053 
1.0172219679 1.0172219679 1.0172219679 1.0172219679 1.2156949949 1.271087727 1.3676273807 1.5707963268 2.1243706857 
1.3676273807 1.447813335 1.5707963268 1.7739652728 2.1243706857 2.6469669131 1.4827341049 1.5707963268 1.6937793186 
1.8705049266 2.1243706857 2.4613776767 2.8286213739 1.5707963268 1.6588585487 1.7739652728 1.9258976586 2.1243706857 
2.3709992258 2.6469669131 2.9144344902 0.26576171152 0.33975332011 0.45685295248 0.40226393329 0.51573716537 0.6552068806 
0.45538277901 0.56421707518 0.69407236469 0.84594095064 0.50083690068 0.60464862014 0.72561863695 0.86392567495 1.0172219679 
0.54002084522 0.63877777351 0.75168694275 0.87851444325 1.0172219679 1.1636342747 0.57404952988 0.66790778838 0.77356233629 
0.89058134991 1.0172219679 1.1502619915 1.2852923014 0.60381225391 0.69302191562 0.79216440667 0.90072551443 1.0172219679 
1.139116835 1.2630228569 1.3852070904 0.71487100155 0.80816628637 0.80816628637 0.90937090954 0.90937090954 0.90937090954 
1.0172219679 1.0172219679 1.0172219679 1.0172219679 1.1296873865 1.1296873865 1.1296873865 1.1296873865 1.1296873865 
1.24411054 1.24411054 1.24411054 1.24411054 1.24411054 1.24411054 1.3575464161 1.3575464161 1.3575464161 
1.3575464161 1.3575464161 1.3575464161 1.3575464161 1.4671972081 1.4671972081 1.4671972081 1.4671972081 1.4671972081 
1.4671972081 1.4671972081 1.4671972081 1.6743954455 1.6743954455 1.7840462375 1.6743954455 1.7840462375 1.8974821136 
1.6743954455 1.7840462375 1.8974821136 2.0119052671 1.6743954455 1.7840462375 1.8974821136 2.0119052671 2.1243706857 
1.6743954455 1.7840462375 1.8974821136 2.0119052671 2.1243706857 2.232221744 1.6743954455 1.7840462375 1.8974821136 
2.0119052671 2.1243706857 2.232221744 2.3334263672 1.6743954455 1.7840462375 1.8974821136 2.0119052671 2.1243706857 
2.232221744 2.3334263672 2.426721652 1.7563855631 1.8785697967 1.8563003522 2.0024758186 1.9913306621 1.9779583789 
2.1243706857 2.1243706857 2.1243706857 2.1243706857 2.2408671392 2.2510113037 2.2630782103 2.2776669786 2.295651703 
2.3494282469 2.3680303173 2.3899057108 2.4159740166 2.4475202889 2.486385773 2.448570738 2.4736848652 2.5028148801 
2.5369440334 2.5773755784 2.6258554882 2.6847397011 2.5377803997 2.5675431237 2.6015718084 2.6407557529 2.6862098746 
2.7393287203 2.8018393335 2.8758309421 2.718901062 2.8307207459 2.7598010554 2.95115522 2.8800620952 2.8058000847 
3.0774230472 3.00855263 2.9351694502 2.8576792927 3.0774230472 3.1415926536 3.0719036933 2.9967168029 2.91630358 
2.95115522 3.00855263 3.0719036933 3.1415926536 3.0653475414 2.9825888767 2.8307207459 2.8800620952 2.9351694502 
2.9967168029 3.0653475414 3.1415926536 3.0574329311 2.718901062 2.7598010554 2.8058000847 2.8576792927 2.91630358 
2.9825888767 3.0574329311 3.1415926536 2.718901062 2.7598010554 2.8307207459 2.8058000847 2.8800620952 2.95115522 
2.8576792927 2.9351694502 3.00855263 3.0774230472 2.91630358 2.9967168029 3.0719036933 3.1415926536 3.0774230472 
2.9825888767 3.0653475414 3.1415926536 3.0719036933 3.00855263 2.95115522 3.0574329311 3.1415926536 3.0653475414 