# vtk DataFile Version 5.1
vtk output
ASCII
DATASET POLYDATA
POINTS 1002 float
-11.107 -1.89722 -3.41212 9.89815 0.449665 -4.9769 -11.531 -0.952876 1.58393 
11.5499 0.0796676 3.3396 3.38825 4.34837 -1.85804 4.43113 4.03172 2.34997 
-0.00553839 -8.74899 -2.04989 0.989597 -9.46169 3.24776 16.2764 8.48322 1.38469 
-19.0542 11.2817 0.374679 15.6541 -3.62047 -0.243885 -16.1478 -3.51452 -0.260342 
-8.51428 -2.08069 -3.16156 -5.51224 -2.10785 -2.85771 -2.58104 -2.02181 -2.74579 
-0.00691825 -1.85207 -2.88724 2.38094 -1.60138 -3.0857 4.73236 -1.2522 -3.25284 
6.75832 -0.808958 -3.55562 8.16455 -0.334633 -4.06102 9.09216 0.094263 -4.59427 
-10.7405 -1.34429 -3.43478 -9.93545 -0.828394 -3.25783 -8.75673 -0.466836 -2.88694 
-7.29498 -0.206924 -2.46788 -5.45588 0.133612 -2.14399 -3.20743 0.640825 -1.95137 
-0.899765 1.31287 -1.87659 1.02582 2.18749 -1.88402 2.42602 3.24824 -1.89938 
-9.73835 -2.56944 -3.19091 -8.23382 -3.2124 -2.97203 -6.82018 -3.88693 -2.80444 
-5.55617 -4.62567 -2.61512 -4.31658 -5.36989 -2.35039 -3.12344 -6.07432 -2.13789 
-2.17538 -6.78752 -2.10908 -1.47109 -7.52967 -2.17935 -0.788867 -8.21465 -2.17802 
-13.2268 -1.12077 -3.53683 -15.0723 0.116166 -3.37411 -16.5815 1.82125 -2.88728 
-17.9333 3.76943 -2.24336 -19.1958 5.72445 -1.65044 -20.0898 7.62842 -1.18758 
-20.3298 9.37989 -0.831202 -20.0106 10.6776 -0.503464 -19.4899 11.2923 -0.107609 
-12.4614 -2.00225 -3.36075 -13.5112 -1.98215 -3.15065 -14.4251 -1.89409 -2.89087 
-15.2962 -1.88407 -2.6599 -15.9061 -2.01481 -2.38994 -16.0807 -2.21633 -1.99059 
-16.0671 -2.45795 -1.51032 -16.1492 -2.78164 -1.04941 -16.2464 -3.16446 -0.636136 
9.73467 1.16859 -4.79669 9.39529 1.86623 -4.54359 8.8232 2.53026 -4.2476 
8.08068 3.12076 -3.91558 7.21327 3.5822 -3.57087 6.20048 3.94925 -3.27064 
5.17471 4.30364 -3.01303 4.38757 4.58112 -2.70999 3.86876 4.61258 -2.30825 
9.47295 -0.534594 -4.86843 9.01494 -1.59292 -4.60293 8.55715 -2.62563 -4.12593 
8.02905 -3.56522 -3.44619 7.15874 -4.44643 -2.76055 5.73417 -5.36973 -2.3563 
3.96354 -6.36669 -2.2972 2.30188 -7.34175 -2.355 0.996459 -8.1596 -2.28886 
10.8049 1.25771 -5.0928 12.0544 2.15658 -4.96449 13.5681 3.14539 -4.50232 
15.0178 4.14789 -3.74715 16.0838 5.0585 -2.88673 16.7375 5.87787 -2.02746 
17.0831 6.67434 -1.11355 17.1068 7.42668 -0.160172 16.7935 8.04396 0.696419 
10.5905 0.146456 -5.17543 11.5923 -0.299217 -5.20719 12.9322 -0.871064 -5.02939 
14.3577 -1.41722 -4.619 15.397 -1.79503 -3.97545 15.7541 -2.09466 -3.18714 
15.6471 -2.49609 -2.39544 15.5381 -2.97249 -1.65505 15.5993 -3.36579 -0.93791 
-9.6499 -1.51598 1.59179 -7.34713 -1.94971 1.67643 -4.78962 -2.33271 1.84422 
-2.13682 -2.62501 2.0577 0.731735 -2.58965 2.41309 3.96502 -2.0702 3.03952 
7.15923 -1.27384 3.7199 9.57602 -0.579034 4.02092 10.9324 -0.157737 3.81396 
-11.2478 -0.657242 1.3561 -10.7829 -0.422738 1.08415 -10.0453 -0.189531 0.895745 
-8.83421 0.087816 0.898199 -6.96452 0.323125 1.00072 -4.45902 0.458687 1.04463 
-1.61696 0.732106 1.10071 1.069 1.47152 1.36775 3.14326 2.67518 1.84949 
-10.6155 -1.76362 1.71781 -9.48153 -2.72994 1.76641 -8.03744 -3.73024 1.86387 
-6.23962 -4.64496 2.18989 -4.28039 -5.55465 2.73961 -2.52884 -6.59305 3.28511 
-1.20342 -7.64932 3.61005 -0.262584 -8.49299 3.66432 0.427585 -9.06566 3.51197 
-13.0657 0.0231621 1.428 -14.5852 1.33581 1.19912 -16.0474 3.02133 1.07661 
-17.3387 4.916 1.35244 -18.2993 6.72163 2.03811 -18.8644 8.26411 2.62756 
-19.1164 9.56296 2.58391 -19.1834 10.5956 1.92816 -19.1513 11.2031 1.08284 
-12.6007 -0.697708 1.71991 -13.4909 -0.357434 1.90147 -14.3554 -0.122646 2.13021 
-15.4223 -0.249714 2.26976 -16.4949 -0.743137 2.09612 -17.0117 -1.30961 1.61547 
-16.8568 -1.77549 1.09155 -16.507 -2.26226 0.658328 -16.3015 -2.8732 0.226634 
11.2727 0.981561 3.32188 10.8694 2.02999 3.34004 10.1233 2.99061 3.39848 
9.07507 3.64416 3.56884 8.11762 4.04501 3.8589 7.50072 4.42118 4.07256 
7.00151 4.78649 3.97575 6.32162 4.90249 3.54963 5.43302 4.61719 2.95477 
11.5042 -0.800087 3.74397 11.2069 -1.69511 4.12856 10.4224 -2.77757 4.26756 
9.06137 -4.0703 4.11679 7.44978 -5.37791 3.9707 6.05048 -6.53563 4.05656 
4.92268 -7.52263 4.16433 3.78526 -8.33156 4.01054 2.45811 -8.95951 3.63791 
11.7037 0.879652 2.82995 11.888 1.94507 2.4994 12.4079 3.18703 2.42356 
13.333 4.33267 2.47509 14.3923 5.21935 2.52036 15.2135 5.99007 2.55942 
15.6615 6.81535 2.55784 15.8923 7.61535 2.37493 16.0933 8.19883 1.951 
12.028 -0.269855 3.05644 12.6517 -0.529355 2.81692 13.3103 -0.737723 2.58415 
13.8308 -1.07334 2.26545 14.344 -1.59318 1.93604 15.115 -2.12956 1.74896 
15.9659 -2.56942 1.58096 16.402 -2.96709 1.15868 16.2286 -3.34118 0.47339 
3.55866 4.72209 -1.47455 3.70503 4.97644 -0.969045 3.71842 5.14936 -0.36983 
3.62592 5.29608 0.249701 3.62081 5.32462 0.794538 3.81454 5.1205 1.22791 
4.08235 4.80502 1.59731 4.26676 4.5628 1.93617 4.36047 4.35489 2.20329 
4.26284 5.6365 -2.05178 4.95932 6.74071 -2.17205 6.00059 7.5244 -2.083 
7.57827 8.04014 -1.66261 9.49725 8.40856 -0.965505 11.5246 8.70824 -0.265469 
13.4316 8.95865 0.237799 14.9107 9.08092 0.618696 15.8129 8.93768 1.00759 
1.79693 3.21593 -1.496 -1.29778 2.26509 -1.31829 -5.68676 2.20964 -1.43278 
-9.94288 3.34891 -1.7006 -12.7054 5.10814 -1.75946 -14.1976 6.72056 -1.39794 
-15.5157 8.065 -0.819861 -17.0056 9.34884 -0.346287 -18.2718 10.5049 -0.0119328 
5.51687 5.84626 3.12258 5.92615 7.42975 3.57158 6.55582 8.37929 3.45555 
8.14664 8.94542 3.06155 10.3554 9.63401 2.87964 12.2559 10.3054 2.87397 
13.5403 10.4183 2.67182 14.5272 9.92753 2.23953 15.4483 9.20683 1.78924 
2.22243 2.60282 1.52474 -1.26339 1.66357 0.846528 -5.57837 1.69103 0.325221 
-9.72262 2.72372 -0.0790571 -12.9168 4.37848 -0.194067 -15.0832 6.20106 0.133267 
-16.5228 7.89908 0.605421 -17.5301 9.34882 0.782776 -18.3305 10.498 0.621383 
-0.000370486 -9.30054 -1.70767 0.0726814 -9.75575 -1.27775 0.071305 -10.0888 -0.768933 
-0.142561 -10.4208 -0.166495 -0.506227 -10.8395 0.537183 -0.75794 -11.1356 1.26696 
-0.681548 -11.0246 1.89986 -0.264742 -10.5531 2.4009 0.352899 -9.98388 2.83463 
1.50146 -8.7653 -1.95626 3.32781 -8.50032 -1.65237 5.49282 -8.12442 -1.30496 
7.7657 -7.818 -1.14373 9.67766 -7.41137 -1.14244 10.9662 -6.62584 -1.10853 
11.9281 -5.61531 -1.00233 13.0398 -4.76138 -0.855274 14.3832 -4.15199 -0.60982 
-1.52474 -8.83102 -1.79702 -3.39963 -8.79444 -1.62415 -5.57808 -8.79627 -1.74959 
-7.64388 -8.69465 -1.95053 -9.34318 -8.17142 -1.82977 -10.9468 -7.3014 -1.48217 
-12.6864 -6.45476 -1.24532 -14.2985 -5.67339 -1.06336 -15.4475 -4.7175 -0.719331 
2.53269 -9.48228 3.15176 4.27524 -9.36864 3.02617 6.22925 -9.02959 2.90262 
8.22118 -8.49298 2.74748 9.8829 -7.84124 2.4288 11.0832 -7.02268 1.87213 
12.1706 -6.00543 1.20988 13.4407 -4.99582 0.631243 14.7133 -4.20869 0.172868 
-0.991702 -9.7101 3.0653 -3.20619 -9.8918 2.82309 -5.39191 -9.78463 2.43579 
-7.25087 -9.12789 1.90723 -8.79096 -7.98762 1.35542 -10.3761 -6.82484 0.858176 
-12.2143 -5.97903 0.416346 -14.0151 -5.31609 0.0650807 -15.3584 -4.52904 -0.151053 
16.903 7.5318 1.28055 17.4433 6.28246 0.975311 17.7611 4.87259 0.409158 
17.5583 3.57986 -0.292821 16.8476 2.46713 -0.828227 16.3035 1.23492 -0.96292 
16.4385 -0.267675 -0.753057 16.7827 -1.7356 -0.461432 16.5646 -2.84724 -0.288833 
-19.7426 11.7592 0.678156 -20.3362 11.6225 1.29075 -20.9346 10.6933 1.93018 
-21.3265 9.08154 2.02121 -21.0371 7.10715 1.37383 -19.9648 4.98892 0.554752 
-18.6223 2.73152 0.145112 -17.5443 0.38758 0.0623908 -16.8008 -1.7826 -0.0449218 
-7.68818 -1.52068 -3.0682 -6.43031 -1.04083 -2.79687 -4.2931 -1.51458 -2.70472 
-4.87325 -0.656319 -2.42719 -2.76694 -1.00268 -2.46904 -1.18861 -1.37111 -2.64442 
-3.10153 -0.172211 -2.13157 -1.09862 -0.451525 -2.2668 0.3372 -0.749875 -2.56631 
1.40129 -1.11794 -2.88764 -1.12779 0.551561 -2.01498 0.592782 0.355621 -2.21455 
1.82611 0.02905 -2.58583 2.78837 -0.330036 -2.96862 3.75843 -0.738901 -3.18503 
0.798038 1.42758 -2.0612 2.1402 1.37178 -2.32426 3.12283 1.05995 -2.71291 
3.97131 0.6507 -3.12668 4.93427 0.246201 -3.38429 5.94729 -0.229018 -3.48089 
2.28628 2.39227 -2.18891 3.28287 2.40969 -2.51271 4.09783 2.16505 -2.8811 
4.88004 1.77821 -3.28234 5.79354 1.36895 -3.59861 6.8088 0.904584 -3.77107 
7.65744 0.324252 -3.89748 3.24628 3.47772 -2.29542 3.96194 3.46837 -2.66716 
4.73549 3.2278 -3.00045 5.5932 2.88694 -3.34186 6.49201 2.51228 -3.68608 
7.41906 2.05388 -3.96643 8.25601 1.47349 -4.18339 8.81935 0.80106 -4.39319 
-12.9755 -0.482159 -3.54531 -14.8946 0.838202 -3.32652 -12.2878 0.0476554 -3.31993 
-16.4499 2.55208 -2.80517 -14.3475 1.36299 -3.09974 -11.2693 0.345174 -2.93099 
-17.7923 4.42782 -2.21017 -15.98 3.04305 -2.67929 -13.5192 1.60518 -2.81723 
-9.89597 0.482561 -2.53693 -18.8598 6.29076 -1.71178 -17.1736 4.87369 -2.23821 
-15.1873 3.27284 -2.59085 -12.2439 1.63081 -2.53831 -7.90684 0.624955 -2.19312 
-19.3379 8.03369 -1.30661 -17.7934 6.61264 -1.82387 -16.1032 5.07226 -2.29707 
-13.9022 3.21839 -2.44076 -10.1925 1.53966 -2.19449 -5.29542 0.884979 -1.89723 
-19.1617 9.43761 -0.926195 -17.7571 8.02337 -1.38103 -16.2409 6.59317 -1.90538 
-14.6401 4.8633 -2.2294 -11.8685 2.8656 -2.12989 -7.37761 1.48303 -1.82049 
-2.52341 1.38132 -1.69496 -18.68 10.2703 -0.501298 -17.3508 8.93946 -0.880673 
-15.8793 7.57981 -1.39576 -14.5728 6.07911 -1.88008 -12.6541 4.19332 -2.00101 
-9.02498 2.41617 -1.76096 -4.23303 1.69002 -1.52977 -0.0830055 2.19113 -1.5867 
-17.2242 9.59774 0.267016 -16.1758 8.36754 0.366938 -15.7009 8.39712 -0.15957 
-15.0056 6.86073 0.127923 -14.5113 7.13706 -0.184961 -14.1313 7.0724 -0.772719 
-13.2414 5.10301 -0.21262 -13.0486 5.57285 -0.37434 -12.6455 5.72097 -0.806794 
-12.54 5.58079 -1.34672 -10.2702 3.31205 -0.242544 -10.4769 3.83648 -0.404063 
-10.2882 4.1471 -0.719163 -10.0743 4.17986 -1.16049 -10.0549 3.91607 -1.52 
-6.03175 2.03374 0.103023 -6.41534 2.44756 -0.0900853 -6.51322 2.82803 -0.330913 
-6.35994 3.01412 -0.687632 -6.20793 2.94458 -1.0572 -6.05734 2.65095 -1.30093 
-1.46112 1.83924 0.655927 -1.7411 2.09419 0.459565 -1.98869 2.44589 0.263572 
[...]
POINT_DATA 1002
FIELD FieldData 4
_paraPhi 1 1002 double
6.2831853072 3.1415926536 6.2831853072 3.1415926536 4.7123889804 4.7123889804 1.5707963268 1.5707963268 3.6951670125 
5.7296109483 2.5880182947 0.5535743589 6.2831853072 6.2831853072 6.2831853072 6.2831853072 3.1415926536 3.1415926536 
3.1415926536 3.1415926536 3.1415926536 6.1053039672 5.898798347 5.6768734901 5.4599499503 5.2659633393 5.1032165617 
4.9713148346 4.8656852733 4.7809517865 0.17788134 0.38438696014 0.60631181711 0.82323535693 1.0172219679 1.1799687454 
1.3118704726 1.4175000338 1.5022335207 6.1892828907 6.1070320098 6.035312792 5.9728339911 5.9183214791 5.8706119594 
5.8286879411 5.7916808611 5.7588591896 0.093902416448 0.17615329733 0.2478725152 0.31035131605 0.36486382811 0.41257334776 
0.45449736604 0.4915044461 0.52432611754 3.3194739936 3.5259796137 3.7479044707 3.9648280105 4.1588146215 4.321561399 
4.4534631262 4.5590926874 4.6438261743 2.9637113136 2.7572056934 2.5352808365 2.3183572967 2.1243706857 1.9616239082 
1.829722181 1.7240926197 1.6393591329 3.23549507 3.3177459509 3.3894651688 3.4519439696 3.5064564817 3.5541660013 
3.5960900196 3.6330970997 3.6659187711 3.0476902371 2.9654393563 2.8937201384 2.8312413375 2.7767288255 2.7290193058 
2.6870952876 2.6500882075 2.617266536 6.2831853072 6.2831853072 6.2831853072 6.2831853072 3.1415926536 3.1415926536 
3.1415926536 3.1415926536 3.1415926536 6.1053039672 5.898798347 5.6768734901 5.4599499503 5.2659633393 5.1032165617 
4.9713148346 4.8656852733 4.7809517865 0.17788134 0.38438696014 0.60631181711 0.82323535693 1.0172219679 1.1799687454 
1.3118704726 1.4175000338 1.5022335207 6.1892828907 6.1070320098 6.035312792 5.9728339911 5.9183214791 5.8706119594 
5.8286879411 5.7916808611 5.7588591896 0.093902416448 0.17615329733 0.2478725152 0.31035131605 0.36486382811 0.41257334776 
0.45449736604 0.4915044461 0.52432611754 3.3194739936 3.5259796137 3.7479044707 3.9648280105 4.1588146215 4.321561399 
4.4534631262 4.5590926874 4.6438261743 2.9637113136 2.7572056934 2.5352808365 2.3183572967 2.1243706857 1.9616239082 
1.829722181 1.7240926197 1.6393591329 3.23549507 3.3177459509 3.3894651688 3.4519439696 3.5064564817 3.5541660013 
3.5960900196 3.6330970997 3.6659187711 3.0476902371 2.9654393563 2.8937201384 2.8312413375 2.7767288255 2.7290193058 
2.6870952876 2.6500882075 2.617266536 4.7123889804 4.7123889804 4.7123889804 4.7123889804 4.7123889804 4.7123889804 
4.7123889804 4.7123889804 4.7123889804 4.6087898617 4.4991390697 4.3857031936 4.2712800401 4.1588146215 4.0509635631 
3.94975894 3.8564636551 3.7716124825 4.8159880991 4.9256388911 5.0390747672 5.1534979207 5.2659633393 5.3738143976 
5.4750190208 5.5683143056 5.6531654782 4.6087898617 4.4991390697 4.3857031936 4.2712800401 4.1588146215 4.0509635631 
3.94975894 3.8564636551 3.7716124825 4.8159880991 4.9256388911 5.0390747672 5.1534979207 5.2659633393 5.3738143976 
5.4750190208 5.5683143056 5.6531654782 1.5707963268 1.5707963268 1.5707963268 1.5707963268 1.5707963268 1.5707963268 
1.5707963268 1.5707963268 1.5707963268 1.6743954455 1.7840462375 1.8974821136 2.0119052671 2.1243706857 2.232221744 
2.3334263672 2.426721652 2.5115728246 1.4671972081 1.3575464161 1.24411054 1.1296873865 1.0172219679 0.90937090954 
0.80816628637 0.71487100155 0.63001982895 1.6743954455 1.7840462375 1.8974821136 2.0119052671 2.1243706857 2.232221744 
2.3334263672 2.426721652 2.5115728246 1.4671972081 1.3575464161 1.24411054 1.1296873865 1.0172219679 0.90937090954 
0.80816628637 0.71487100155 0.63001982895 3.6007720849 3.4966939854 3.3839471039 3.2645756454 3.1415926536 3.0186096618 
2.8992382033 2.7864913217 2.6824132222 5.8240058758 5.9280839753 6.0408308569 6.1602023154 6.2831853072 0.12298299178 
0.2423544503 0.35510133185 0.45917943135 6.0560271438 5.7885595667 5.9702140275 5.5125918794 5.6029703303 5.7885595667 
5.2659633393 5.2659633393 5.2659633393 5.2659633393 5.0674903122 5.0120975802 4.9155579264 4.7123889804 4.1588146215 
4.9155579264 4.8353719722 4.7123889804 4.5092200343 4.1588146215 3.6362183941 4.8004512023 4.7123889804 4.5894059886 
4.4126803806 4.1588146215 3.8218076305 3.4545639333 4.7123889804 4.6243267584 4.5092200343 4.3572876485 4.1588146215 
3.9121860814 3.6362183941 3.368750817 6.0174235957 5.9434319871 5.8263323547 5.8809213739 5.7674481418 5.6279784266 
5.8278025282 5.718968232 5.5891129425 5.4372443565 5.7823484065 5.678536687 5.5575666702 5.4192596322 5.2659633393 
5.743164462 5.6444075337 5.5314983644 5.4046708639 5.2659633393 5.1195510325 5.7091357773 5.6152775188 5.5096229709 
5.3926039573 5.2659633393 5.1329233157 4.9978930058 5.6793730533 5.5901633916 5.4910209005 5.3824597928 5.2659633393 
5.1440684722 5.0201624502 4.8979782167 5.5683143056 5.4750190208 5.4750190208 5.3738143976 5.3738143976 5.3738143976 
5.2659633393 5.2659633393 5.2659633393 5.2659633393 5.1534979207 5.1534979207 5.1534979207 5.1534979207 5.1534979207 
5.0390747672 5.0390747672 5.0390747672 5.0390747672 5.0390747672 5.0390747672 4.9256388911 4.9256388911 4.9256388911 
4.9256388911 4.9256388911 4.9256388911 4.9256388911 4.8159880991 4.8159880991 4.8159880991 4.8159880991 4.8159880991 
4.8159880991 4.8159880991 4.8159880991 4.6087898617 4.6087898617 4.4991390697 4.6087898617 4.4991390697 4.3857031936 
4.6087898617 4.4991390697 4.3857031936 4.2712800401 4.6087898617 4.4991390697 4.3857031936 4.2712800401 4.1588146215 
4.6087898617 4.4991390697 4.3857031936 4.2712800401 4.1588146215 4.0509635631 4.6087898617 4.4991390697 4.3857031936 
4.2712800401 4.1588146215 4.0509635631 3.94975894 4.6087898617 4.4991390697 4.3857031936 4.2712800401 4.1588146215 
4.0509635631 3.94975894 3.8564636551 4.526799744 4.4046155105 4.426884955 4.2807094886 4.2918546451 4.3052269283 
4.1588146215 4.1588146215 4.1588146215 4.1588146215 4.042318168 4.0321740035 4.0201070968 4.0055183285 3.9875336042 
3.9337570603 3.9151549899 3.8932795963 3.8672112905 3.8356650183 3.7967995342 3.8346145692 3.809500442 3.7803704271 
3.7462412737 3.7058097288 3.657329819 3.5984456061 3.7454049075 3.7156421835 3.6816134988 3.6424295543 3.5969754326 
3.5438565869 3.4813459737 3.4073543651 3.5642842451 3.4524645613 3.5233842518 3.3320300872 3.403123212 3.4773852225 
3.20576226 3.2746326772 3.348015857 3.4255060145 3.0774230472 3.1415926536 3.2112816139 3.2864685043 3.3668817272 
2.95115522 3.00855263 3.0719036933 3.1415926536 3.2178377658 3.3005964304 2.8307207459 2.8800620952 2.9351694502 
2.9967168029 3.0653475414 3.1415926536 3.225752376 2.718901062 2.7598010554 2.8058000847 2.8576792927 2.91630358 
2.9825888767 3.0574329311 3.1415926536 3.5642842451 3.5233842518 3.4524645613 3.4773852225 3.403123212 3.3320300872 
3.4255060145 3.348015857 3.2746326772 3.20576226 3.3668817272 3.2864685043 3.2112816139 3.1415926536 3.0774230472 
3.3005964304 3.2178377658 3.1415926536 3.0719036933 3.00855263 2.95115522 3.225752376 3.1415926536 3.0653475414 
2.9967168029 2.9351694502 2.8800620952 2.8307207459 3.1415926536 3.0574329311 2.9825888767 2.91630358 2.8576792927 
2.8058000847 2.7598010554 2.718901062 4.526799744 4.426884955 4.4046155105 4.3052269283 4.2918546451 4.2807094886 
4.1588146215 4.1588146215 4.1588146215 4.1588146215 3.9875336042 4.0055183285 4.0201070968 4.0321740035 4.042318168 
3.7967995342 3.8356650183 3.8672112905 3.8932795963 3.9151549899 3.9337570603 3.5984456061 3.657329819 3.7058097288 
3.7462412737 3.7803704271 3.809500442 3.8346145692 3.4073543651 3.4813459737 3.5438565869 3.5969754326 3.6424295543 
3.6816134988 3.7156421835 3.7454049075 4.7123889804 4.8004512023 4.6243267584 4.9155579264 4.7123889804 4.5092200343 
5.0674903122 4.8353719722 4.5894059886 4.3572876485 5.2659633393 5.0120975802 4.7123889804 4.4126803806 4.1588146215 
5.5125918794 5.2659633393 4.9155579264 4.5092200343 4.1588146215 3.9121860814 5.7885595667 5.6029703303 5.2659633393 
4.7123889804 4.1588146215 3.8218076305 3.6362183941 6.0560271438 5.9702140275 5.7885595667 5.2659633393 4.1588146215 
3.6362183941 3.4545639333 3.368750817 0.22715816343 0.49462574053 0.3129712797 0.77059342779 0.68021497688 0.49462574053 
1.0172219679 1.0172219679 1.0172219679 1.0172219679 1.2156949949 1.271087727 1.3676273807 1.5707963268 2.1243706857 
1.3676273807 1.447813335 1.5707963268 1.7739652728 2.1243706857 2.6469669131 1.4827341049 1.5707963268 1.6937793186 
1.8705049266 2.1243706857 2.4613776767 2.8286213739 1.5707963268 1.6588585487 1.7739652728 1.9258976586 2.1243706857 
2.3709992258 2.6469669131 2.9144344902 1.7563855631 1.8785697967 1.8563003522 2.0024758186 1.9913306621 1.9779583789 
2.1243706857 2.1243706857 2.1243706857 2.1243706857 2.2408671392 2.2510113037 2.2630782103 2.2776669786 2.295651703 
2.3494282469 2.3680303173 2.3899057108 2.4159740166 2.4475202889 2.486385773 2.448570738 2.4736848652 2.5028148801 
2.5369440334 2.5773755784 2.6258554882 2.6847397011 2.5377803997 2.5675431237 2.6015718084 2.6407557529 2.6862098746 
2.7393287203 2.8018393335 2.8758309421 1.6743954455 1.6743954455 1.7840462375 1.6743954455 1.7840462375 1.8974821136 
1.6743954455 1.7840462375 1.8974821136 2.0119052671 1.6743954455 1.7840462375 1.8974821136 2.0119052671 2.1243706857 
1.6743954455 1.7840462375 1.8974821136 2.0119052671 2.1243706857 2.232221744 1.6743954455 1.7840462375 1.8974821136 
2.0119052671 2.1243706857 2.232221744 2.3334263672 1.6743954455 1.7840462375 1.8974821136 2.0119052671 2.1243706857 
2.232221744 2.3334263672 2.426721652 1.4671972081 1.3575464161 1.4671972081 1.24411054 1.3575464161 1.4671972081 
1.1296873865 1.24411054 1.3575464161 1.4671972081 1.0172219679 1.1296873865 1.24411054 1.3575464161 1.4671972081 
0.90937090954 1.0172219679 1.1296873865 1.24411054 1.3575464161 1.4671972081 0.80816628637 0.90937090954 1.0172219679 
1.1296873865 1.24411054 1.3575464161 1.4671972081 0.71487100155 0.80816628637 0.90937090954 1.0172219679 1.1296873865 
1.24411054 1.3575464161 1.4671972081 0.60381225391 0.57404952988 0.69302191562 0.54002084522 0.66790778838 0.79216440667 
0.50083690068 0.63877777351 0.77356233629 0.90072551443 0.45538277901 0.60464862014 0.75168694275 0.89058134991 1.0172219679 
0.40226393329 0.56421707518 0.72561863695 0.87851444325 1.0172219679 1.139116835 0.33975332011 0.51573716537 0.69407236469 
0.86392567495 1.0172219679 1.1502619915 1.2630228569 0.26576171152 0.45685295248 0.6552068806 0.84594095064 1.0172219679 
1.1636342747 1.2852923014 1.3852070904 0.22715816343 0.3129712797 0.49462574053 0.49462574053 0.68021497688 0.77059342779 
1.0172219679 1.0172219679 1.0172219679 1.0172219679 2.1243706857 1.5707963268 1.3676273807 1.271087727 1.2156949949 
2.6469669131 2.1243706857 1.7739652728 1.5707963268 1.447813335 1.3676273807 2.8286213739 2.4613776767 2.1243706857 
1.8705049266 1.6937793186 1.5707963268 1.4827341049 2.9144344902 2.6469669131 2.3709992258 2.1243706857 1.9258976586 
1.7739652728 1.6588585487 1.5707963268 1.7563855631 1.8563003522 1.8785697967 1.9779583789 1.9913306621 2.0024758186 
2.1243706857 2.1243706857 2.1243706857 2.1243706857 2.295651703 2.2776669786 2.2630782103 2.2510113037 2.2408671392 
2.486385773 2.4475202889 2.4159740166 2.3899057108 2.3680303173 2.3494282469 2.6847397011 2.6258554882 2.5773755784 
2.5369440334 2.5028148801 2.4736848652 2.448570738 2.8758309421 2.8018393335 2.7393287203 2.6862098746 2.6407557529 
2.6015718084 2.5675431237 2.5377803997 5.8604937156 5.901393709 5.9723133995 5.9473927383 6.0216547488 6.0927478736 
5.9992719463 6.0767621038 6.1501452836 6.2190157008 6.0578962336 6.1383094565 6.2134963469 0 0.064169606361 
6.1241815303 6.206940195 6.2831853072 0.069688960264 0.13304002361 0.19043743361 6.1990255847 0 0.07624511221 
0.14487585072 0.20642320337 0.26153055843 0.3108719077 0 0.084159722458 0.15900377685 0.22528907359 0.28391336087 
0.3357925689 0.38179159818 0.42269159155 5.8604937156 5.9723133995 5.901393709 6.0927478736 6.0216547488 5.9473927383 
6.2190157008 6.1501452836 6.0767621038 5.9992719463 0.064169606361 0 6.2134963469 6.1383094565 6.0578962336 
0.19043743361 0.13304002361 0.069688960264 6.2831853072 6.206940195 6.1241815303 0.3108719077 0.26153055843 0.20642320337 
0.14487585072 0.07624511221 6.2831853072 6.1990255847 0.42269159155 0.38179159818 0.3357925689 0.28391336087 0.22528907359 
0.15900377685 0.084159722458 0 5.6793730533 5.7091357773 5.5901633916 5.743164462 5.6152775188 5.4910209005 
5.7823484065 5.6444075337 5.5096229709 5.3824597928 5.8278025282 5.678536687 5.5314983644 5.3926039573 5.2659633393 
5.8809213739 5.718968232 5.5575666702 5.4046708639 5.2659633393 5.1440684722 5.9434319871 5.7674481418 5.5891129425 
5.4192596322 5.2659633393 5.1329233157 5.0201624502 6.0174235957 5.8263323547 5.6279784266 5.4372443565 5.2659633393 
5.1195510325 4.9978930058 4.8979782167 1.3852070904 1.2852923014 1.2630228569 1.1636342747 1.1502619915 1.139116835 
1.0172219679 1.0172219679 1.0172219679 1.0172219679 0.84594095064 0.86392567495 0.87851444325 0.89058134991 0.90072551443 
0.6552068806 0.69407236469 0.72561863695 0.75168694275 0.77356233629 0.79216440667 0.45685295248 0.51573716537 0.56421707518 
0.60464862014 0.63877777351 0.66790778838 0.69302191562 0.26576171152 0.33975332011 0.40226393329 0.45538277901 0.50083690068 
0.54002084522 0.57404952988 0.60381225391 
_paraPhiHalf 1 1002 double
0 3.1415926536 0 3.1415926536 1.5707963268 1.5707963268 1.5707963268 1.5707963268 2.5880182947 
0.5535743589 2.5880182947 0.5535743589 0 0 0 0 3.1415926536 3.1415926536 
3.1415926536 3.1415926536 3.1415926536 0.17788134 0.38438696014 0.60631181711 0.82323535693 1.0172219679 1.1799687454 
1.3118704726 1.4175000338 1.5022335207 0.17788134 0.38438696014 0.60631181711 0.82323535693 1.0172219679 1.1799687454 
1.3118704726 1.4175000338 1.5022335207 0.093902416448 0.17615329733 0.2478725152 0.31035131605 0.36486382811 0.41257334776 
0.45449736604 0.4915044461 0.52432611754 0.093902416448 0.17615329733 0.2478725152 0.31035131605 0.36486382811 0.41257334776 
0.45449736604 0.4915044461 0.52432611754 2.9637113136 2.7572056934 2.5352808365 2.3183572967 2.1243706857 1.9616239082 
1.829722181 1.7240926197 1.6393591329 2.9637113136 2.7572056934 2.5352808365 2.3183572967 2.1243706857 1.9616239082 
1.829722181 1.7240926197 1.6393591329 3.0476902371 2.9654393563 2.8937201384 2.8312413375 2.7767288255 2.7290193058 
2.6870952876 2.6500882075 2.617266536 3.0476902371 2.9654393563 2.8937201384 2.8312413375 2.7767288255 2.7290193058 
2.6870952876 2.6500882075 2.617266536 0 0 0 0 3.1415926536 3.1415926536 
3.1415926536 3.1415926536 3.1415926536 0.17788134 0.38438696014 0.60631181711 0.82323535693 1.0172219679 1.1799687454 
1.3118704726 1.4175000338 1.5022335207 0.17788134 0.38438696014 0.60631181711 0.82323535693 1.0172219679 1.1799687454 
1.3118704726 1.4175000338 1.5022335207 0.093902416448 0.17615329733 0.2478725152 0.31035131605 0.36486382811 0.41257334776 
0.45449736604 0.4915044461 0.52432611754 0.093902416448 0.17615329733 0.2478725152 0.31035131605 0.36486382811 0.41257334776 
0.45449736604 0.4915044461 0.52432611754 2.9637113136 2.7572056934 2.5352808365 2.3183572967 2.1243706857 1.9616239082 
1.829722181 1.7240926197 1.6393591329 2.9637113136 2.7572056934 2.5352808365 2.3183572967 2.1243706857 1.9616239082 
1.829722181 1.7240926197 1.6393591329 3.0476902371 2.9654393563 2.8937201384 2.8312413375 2.7767288255 2.7290193058 
2.6870952876 2.6500882075 2.617266536 3.0476902371 2.9654393563 2.8937201384 2.8312413375 2.7767288255 2.7290193058 
2.6870952876 2.6500882075 2.617266536 1.5707963268 1.5707963268 1.5707963268 1.5707963268 1.5707963268 1.5707963268 
1.5707963268 1.5707963268 1.5707963268 1.6743954455 1.7840462375 1.8974821136 2.0119052671 2.1243706857 2.232221744 
2.3334263672 2.426721652 2.5115728246 1.4671972081 1.3575464161 1.24411054 1.1296873865 1.0172219679 0.90937090954 
0.80816628637 0.71487100155 0.63001982895 1.6743954455 1.7840462375 1.8974821136 2.0119052671 2.1243706857 2.232221744 
2.3334263672 2.426721652 2.5115728246 1.4671972081 1.3575464161 1.24411054 1.1296873865 1.0172219679 0.90937090954 
0.80816628637 0.71487100155 0.63001982895 1.5707963268 1.5707963268 1.5707963268 1.5707963268 1.5707963268 1.5707963268 
1.5707963268 1.5707963268 1.5707963268 1.6743954455 1.7840462375 1.8974821136 2.0119052671 2.1243706857 2.232221744 
2.3334263672 2.426721652 2.5115728246 1.4671972081 1.3575464161 1.24411054 1.1296873865 1.0172219679 0.90937090954 
0.80816628637 0.71487100155 0.63001982895 1.6743954455 1.7840462375 1.8974821136 2.0119052671 2.1243706857 2.232221744 
2.3334263672 2.426721652 2.5115728246 1.4671972081 1.3575464161 1.24411054 1.1296873865 1.0172219679 0.90937090954 
0.80816628637 0.71487100155 0.63001982895 2.6824132222 2.7864913217 2.8992382033 3.0186096618 3.1415926536 3.0186096618 
2.8992382033 2.7864913217 2.6824132222 0.45917943135 0.35510133185 0.2423544503 0.12298299178 0 0.12298299178 
0.2423544503 0.35510133185 0.45917943135 0.22715816343 0.49462574053 0.3129712797 0.77059342779 0.68021497688 0.49462574053 
1.0172219679 1.0172219679 1.0172219679 1.0172219679 1.2156949949 1.271087727 1.3676273807 1.5707963268 2.1243706857 
1.3676273807 1.447813335 1.5707963268 1.7739652728 2.1243706857 2.6469669131 1.4827341049 1.5707963268 1.6937793186 
1.8705049266 2.1243706857 2.4613776767 2.8286213739 1.5707963268 1.6588585487 1.7739652728 1.9258976586 2.1243706857 
2.3709992258 2.6469669131 2.9144344902 0.26576171152 0.33975332011 0.45685295248 0.40226393329 0.51573716537 0.6552068806 
0.45538277901 0.56421707518 0.69407236469 0.84594095064 0.50083690068 0.60464862014 0.72561863695 0.86392567495 1.0172219679 
0.54002084522 0.63877777351 0.75168694275 0.87851444325 1.0172219679 1.1636342747 0.57404952988 0.66790778838 0.77356233629 
0.89058134991 1.0172219679 1.1502619915 1.2852923014 0.60381225391 0.69302191562 0.79216440667 0.90072551443 1.0172219679 
1.139116835 1.2630228569 1.3852070904 0.71487100155 0.80816628637 0.80816628637 0.90937090954 0.90937090954 0.90937090954 
1.0172219679 1.0172219679 1.0172219679 1.0172219679 1.1296873865 1.1296873865 1.1296873865 1.1296873865 1.1296873865 
1.24411054 1.24411054 1.24411054 1.24411054 1.24411054 1.24411054 1.3575464161 1.3575464161 1.3575464161 
1.3575464161 1.3575464161 1.3575464161 1.3575464161 1.4671972081 1.4671972081 1.4671972081 1.4671972081 1.4671972081 
1.4671972081 1.4671972081 1.4671972081 1.6743954455 1.6743954455 1.7840462375 1.6743954455 1.7840462375 1.8974821136 
1.6743954455 1.7840462375 1.8974821136 2.0119052671 1.6743954455 1.7840462375 1.8974821136 2.0119052671 2.1243706857 
1.6743954455 1.7840462375 1.8974821136 2.0119052671 2.1243706857 2.232221744 1.6743954455 1.7840462375 1.8974821136 
2.0119052671 2.1243706857 2.232221744 2.3334263672 1.6743954455 1.7840462375 1.8974821136 2.0119052671 2.1243706857 
2.232221744 2.3334263672 2.426721652 1.7563855631 1.8785697967 1.8563003522 2.0024758186 1.9913306621 1.9779583789 
2.1243706857 2.1243706857 2.1243706857 2.1243706857 2.2408671392 2.2510113037 2.2630782103 2.2776669786 2.295651703 
2.3494282469 2.3680303173 2.3899057108 2.4159740166 2.4475202889 2.486385773 2.448570738 2.4736848652 2.5028148801 
2.5369440334 2.5773755784 2.6258554882 2.6847397011 2.5377803997 2.5675431237 2.6015718084 2.6407557529 2.6862098746 
2.7393287203 2.8018393335 2.8758309421 2.718901062 2.8307207459 2.7598010554 2.95115522 2.8800620952 2.8058000847 
3.0774230472 3.00855263 2.9351694502 2.8576792927 3.0774230472 3.1415926536 3.0719036933 2.9967168029 2.91630358 
2.95115522 3.00855263 3.0719036933 3.1415926536 3.0653475414 2.9825888767 2.8307207459 2.8800620952 2.9351694502 
2.9967168029 3.0653475414 3.1415926536 3.0574329311 2.718901062 2.7598010554 2.8058000847 2.8576792927 2.91630358 
2.9825888767 3.0574329311 3.1415926536 2.718901062 2.7598010554 2.8307207459 2.8058000847 2.8800620952 2.95115522 
2.8576792927 2.9351694502 3.00855263 3.0774230472 2.91630358 2.9967168029 3.0719036933 3.1415926536 3.0774230472 
2.9825888767 3.0653475414 3.1415926536 3.0719036933 3.00855263 2.95115522 3.0574329311 3.1415926536 3.0653475414 