# vtk DataFile Version 5.1
vtk output
ASCII
DATASET POLYDATA
POINTS 1002 float
-0.588497 -0.0240899 -0.149441 0.573222 0.0151591 -0.189518 -0.59046 0.049162 0.164865 
0.549405 -0.0264462 0.23477 0.0235463 0.412828 -0.111663 0.00685496 0.384682 0.16897 
0.0552628 -0.020916 -0.0124663 0.0479375 -0.0645843 0.176741 0.939466 0.0910994 -0.0247438 
-0.965608 0.0506511 0.00395432 0.913647 -0.402111 -0.096017 -1.01067 -0.368575 -0.0583506 
-0.504322 0.0382334 -0.106551 -0.392143 0.0939111 -0.0803968 -0.255301 0.131283 -0.0766075 
-0.10972 0.147944 -0.0899683 0.0334397 0.14613 -0.120391 0.172116 0.127493 -0.16402 
0.300195 0.0980416 -0.198241 0.409141 0.067444 -0.206525 0.498526 0.0402502 -0.1984 
-0.55191 0.0215829 -0.133979 -0.503684 0.0734408 -0.117156 -0.439561 0.129652 -0.102452 
-0.361625 0.18714 -0.0942665 -0.281383 0.242249 -0.0935166 -0.209184 0.290597 -0.0960139 
-0.144714 0.329384 -0.0978691 -0.0838625 0.360461 -0.0999414 -0.0269599 0.387823 -0.104709 
-0.572519 -0.0266101 -0.135113 -0.546884 -0.0250917 -0.121247 -0.507274 -0.0207307 -0.106765 
-0.454784 -0.0118959 -0.0857706 -0.393254 0.00421906 -0.0547684 -0.320797 0.0229431 -0.0221824 
-0.233398 0.0322786 -0.0019264 -0.135467 0.0255536 0.00208678 -0.0370435 0.00597948 -0.00354011 
-0.641864 -0.0563269 -0.187528 -0.699295 -0.0773708 -0.216822 -0.76172 -0.0811765 -0.219496 
-0.820934 -0.0713676 -0.193138 -0.868316 -0.0561151 -0.155393 -0.905905 -0.0382756 -0.121394 
-0.93867 -0.0167248 -0.0898314 -0.963165 0.00715128 -0.0563899 -0.972659 0.0302072 -0.0236787 
-0.653888 -0.0907172 -0.186106 -0.724993 -0.156627 -0.209717 -0.806664 -0.211896 -0.207028 
-0.890939 -0.256263 -0.187615 -0.960261 -0.302413 -0.173745 -1.00607 -0.356118 -0.166086 
-1.03238 -0.400414 -0.146596 -1.04216 -0.414657 -0.112894 -1.03433 -0.398734 -0.0801749 
0.537523 0.0555843 -0.184384 0.495935 0.0976989 -0.18486 0.449324 0.141324 -0.193789 
0.398412 0.188246 -0.203896 0.343759 0.237052 -0.207268 0.284149 0.282792 -0.20345 
0.218543 0.323453 -0.191824 0.150267 0.359797 -0.169738 0.0845774 0.390382 -0.140541 
0.559768 -0.00885004 -0.196518 0.536187 -0.0299002 -0.192334 0.500704 -0.0439332 -0.177049 
0.457169 -0.0529852 -0.163071 0.408018 -0.0602863 -0.154949 0.349346 -0.0622433 -0.138925 
0.279375 -0.0548252 -0.107367 0.203841 -0.0421185 -0.0709479 0.128674 -0.0303017 -0.0394237 
0.62347 0.0134627 -0.179742 0.678933 0.010104 -0.173852 0.7375 0.00920392 -0.168657 
0.790075 0.0144264 -0.15368 0.833629 0.0221071 -0.129358 0.878119 0.0283834 -0.111355 
0.926232 0.038386 -0.103621 0.960534 0.0565079 -0.090242 0.964185 0.0768482 -0.0614269 
0.636291 -0.0271396 -0.187468 0.696428 -0.0752057 -0.176742 0.75024 -0.127144 -0.154939 
0.801649 -0.179797 -0.140709 0.853112 -0.231203 -0.154084 0.895029 -0.281199 -0.180167 
0.917589 -0.328093 -0.185336 0.924323 -0.36677 -0.16251 0.922669 -0.39192 -0.128691 
-0.472781 0.0839846 0.164176 -0.339978 0.118436 0.176456 -0.205944 0.144594 0.205617 
-0.0770269 0.150451 0.231338 0.0552696 0.129195 0.2274 0.191862 0.0904389 0.205433 
0.312998 0.0520671 0.201884 0.405721 0.0216236 0.221156 0.480033 -0.00387085 0.236807 
-0.530274 0.0813363 0.149962 -0.462344 0.117686 0.142031 -0.392329 0.158334 0.149295 
-0.323273 0.202371 0.166747 -0.256497 0.248173 0.184334 -0.194356 0.293255 0.199883 
-0.138616 0.332797 0.211831 -0.0880216 0.361462 0.212125 -0.0399848 0.377835 0.196296 
-0.572316 0.0400741 0.172323 -0.536889 0.0320754 0.167691 -0.482986 0.0260606 0.158746 
-0.418822 0.0228456 0.162061 -0.353689 0.021393 0.177971 -0.286325 0.0190146 0.186929 
-0.2092 0.0124142 0.181703 -0.122041 -0.00264798 0.175725 -0.0334474 -0.0290334 0.176558 
-0.662209 0.0346576 0.156302 -0.732275 0.0230277 0.144895 -0.801928 0.0169384 0.137396 
-0.865146 0.016236 0.133704 -0.914568 0.0191816 0.124788 -0.953863 0.0261052 0.108032 
-0.987491 0.0368189 0.089119 -1.00585 0.0465898 0.0676297 -0.997649 0.0508396 0.0387613 
-0.689569 0.00706268 0.174582 -0.777732 -0.040195 0.171157 -0.842885 -0.0916737 0.143234 
-0.884945 -0.144971 0.0974056 -0.91736 -0.195669 0.0508281 -0.952533 -0.238989 0.012533 
-0.988608 -0.274765 -0.0161728 -1.01432 -0.307891 -0.0344595 -1.02162 -0.340604 -0.0459373 
0.524404 0.0107028 0.235394 0.493115 0.0523302 0.226281 0.457375 0.0938711 0.202735 
0.415554 0.132201 0.168712 0.36065 0.171599 0.140205 0.289755 0.218147 0.131643 
0.210957 0.269143 0.14077 0.134976 0.316112 0.15469 0.0666816 0.354488 0.16461 
0.524441 -0.0475296 0.238732 0.492526 -0.0686083 0.242841 0.457494 -0.0905051 0.238597 
0.420623 -0.110625 0.223612 0.378298 -0.123298 0.207155 0.32747 -0.125152 0.197177 
0.268359 -0.116884 0.190936 0.200908 -0.100938 0.184761 0.125813 -0.0815589 0.179937 
0.606531 -0.0234961 0.229698 0.664562 -0.0131799 0.232779 0.721347 0.00348982 0.23772 
0.780499 0.0167057 0.219633 0.842396 0.0182779 0.166215 0.89573 0.0165138 0.103353 
0.929781 0.0269063 0.0607584 0.945958 0.0503075 0.0346372 0.949063 0.0745205 0.00733758 
0.608922 -0.0611987 0.220357 0.672089 -0.0966029 0.19966 0.729063 -0.13232 0.183985 
0.774435 -0.169391 0.169504 0.815026 -0.208809 0.135797 0.859626 -0.251617 0.075904 
0.902797 -0.298174 0.0103768 0.929021 -0.344004 -0.0394014 0.930576 -0.38051 -0.0718156 
0.0146411 0.440571 -0.0978053 0.000991025 0.469541 -0.0755158 -0.0153973 0.490962 -0.0391334 
-0.0257616 0.495932 0.00664433 -0.0238858 0.484925 0.0488929 -0.0148178 0.466311 0.0803916 
-0.0072293 0.445953 0.104785 -0.00278215 0.424963 0.127547 0.00146723 0.404125 0.149535 
0.108978 0.418895 -0.135323 0.19866 0.409202 -0.152729 0.297635 0.383411 -0.157304 
0.41159 0.34771 -0.14972 0.532823 0.30707 -0.134718 0.641707 0.261242 -0.11459 
0.729113 0.211667 -0.0901803 0.803629 0.164425 -0.0647761 0.874197 0.124197 -0.0424751 
-0.0710284 0.409405 -0.0812571 -0.175602 0.39255 -0.0601501 -0.285131 0.367578 -0.0526179 
-0.397661 0.336612 -0.0512468 -0.509026 0.29133 -0.0509363 -0.609143 0.226429 -0.0570569 
-0.696719 0.15614 -0.0660239 -0.784459 0.101944 -0.0598914 -0.877966 0.0700246 -0.0319063 
0.0951552 0.365242 0.130636 0.195979 0.336352 0.0875886 0.301238 0.305485 0.0566088 
0.403307 0.27857 0.0481527 0.500064 0.254183 0.0553498 0.592722 0.225954 0.0604523 
0.683027 0.191528 0.0518322 0.772819 0.155084 0.0303792 0.860559 0.121267 0.00293908 
-0.0781259 0.403584 0.183817 -0.162951 0.404979 0.180915 -0.248548 0.38039 0.15575 
-0.342451 0.328583 0.113403 -0.452635 0.261384 0.0675169 -0.575514 0.197597 0.031556 
-0.696409 0.148182 0.011204 -0.803455 0.111331 0.0045107 -0.893295 0.0803416 0.00482951 
0.065719 -0.033381 0.000115351 0.0773622 -0.0444309 0.0180778 0.0886722 -0.056421 0.0363047 
0.0948648 -0.0730491 0.0486561 0.090172 -0.0917565 0.0594451 0.0757078 -0.103428 0.080856 
0.0604181 -0.102897 0.114456 0.0513005 -0.0932191 0.147349 0.0481781 -0.0794826 0.168202 
0.192482 -0.0652513 -0.0435221 0.332817 -0.128251 -0.081606 0.465738 -0.209221 -0.119609 
0.574814 -0.302072 -0.148632 0.647462 -0.386816 -0.158576 0.693117 -0.439507 -0.147017 
0.73782 -0.454664 -0.125737 0.795381 -0.44572 -0.109203 0.858194 -0.426348 -0.101013 
-0.0834716 -0.0013828 0.0145386 -0.239823 -0.009419 0.0222487 -0.394141 -0.0640757 3.11325e-05 
-0.518364 -0.163076 -0.0450309 -0.603066 -0.269501 -0.0863175 -0.672979 -0.340262 -0.100579 
-0.756655 -0.367262 -0.0906152 -0.852691 -0.372127 -0.0753442 -0.941271 -0.372007 -0.0654074 
0.17259 -0.122828 0.168853 0.29621 -0.195422 0.143265 0.415918 -0.26652 0.100316 
0.524113 -0.327773 0.0569848 0.609312 -0.380682 0.0329885 0.673302 -0.421418 0.0241242 
0.733263 -0.439706 0.00799248 0.798644 -0.435719 -0.0245683 0.862159 -0.420549 -0.0632345 
-0.0871951 -0.0370433 0.172434 -0.236222 -0.0394238 0.157076 -0.379012 -0.0770178 0.126962 
-0.496024 -0.139378 0.0902256 -0.586222 -0.206827 0.0611581 -0.667733 -0.261602 0.039908 
-0.755732 -0.296643 0.0142571 -0.848606 -0.319145 -0.0169371 -0.936204 -0.341636 -0.0427784 
1.02299 0.0551386 -0.0318693 1.09798 0.0188453 -0.0365366 1.14507 -0.0217781 -0.034074 
1.15657 -0.0713602 -0.0272231 1.14071 -0.132222 -0.0287075 1.10869 -0.201962 -0.0476867 
1.06721 -0.27136 -0.0767061 1.02042 -0.328968 -0.0991424 0.969378 -0.370903 -0.105011 
-1.05112 0.0163801 0.0152094 -1.12183 -0.0332379 3.72143e-05 -1.17312 -0.100628 -0.044599 
-1.21617 -0.17771 -0.0901483 -1.25459 -0.251404 -0.10034 -1.26601 -0.313268 -0.0764012 
-1.2321 -0.358133 -0.0526414 -1.1655 -0.380341 -0.0490265 -1.08856 -0.380394 -0.0560714 
-0.453705 0.0841939 -0.0946341 -0.389309 0.134579 -0.0859178 -0.327193 0.135501 -0.0783636 
-0.311099 0.185792 -0.0837506 -0.251669 0.179121 -0.0800934 -0.183093 0.165111 -0.0843122 
-0.225955 0.232984 -0.0925693 -0.167842 0.218946 -0.0913729 -0.105457 0.19829 -0.0961325 
-0.0360759 0.172599 -0.108416 -0.145362 0.274322 -0.110585 -0.0819044 0.251543 -0.118684 
-0.0226151 0.225238 -0.122592 0.0408447 0.195374 -0.134146 0.108964 0.162146 -0.151531 
-0.0754669 0.310569 -0.127505 -0.0033227 0.281089 -0.15282 0.0601115 0.247875 -0.164056 
0.119408 0.214558 -0.171489 0.183108 0.178823 -0.183992 0.245896 0.139232 -0.194889 
-0.0149758 0.341966 -0.135811 0.0610041 0.311208 -0.17376 0.131152 0.273464 -0.197622 
0.191223 0.23498 -0.206552 0.249456 0.196338 -0.21037 0.308621 0.155175 -0.211729 
0.362759 0.111256 -0.209776 0.0381837 0.368416 -0.138263 0.110699 0.338706 -0.175696 
0.182806 0.30115 -0.204127 0.246514 0.259627 -0.217361 0.303177 0.216155 -0.219123 
0.357906 0.171949 -0.213159 0.410225 0.127629 -0.203874 0.457377 0.0831938 -0.198415 
-0.607062 -0.0057405 -0.171953 -0.661976 -0.0229338 -0.204702 -0.558877 0.0523338 -0.150487 
-0.714575 -0.02434 -0.214678 -0.607859 0.0393333 -0.182637 -0.491499 0.116164 -0.12797 
-0.759931 -0.0134503 -0.197613 -0.648037 0.0401719 -0.198333 -0.533536 0.109132 -0.155323 
-0.410627 0.183672 -0.109588 -0.797854 0.00234711 -0.165265 -0.682675 0.0524053 -0.189966 
-0.566824 0.113907 -0.172167 -0.450688 0.184348 -0.12822 -0.331454 0.248763 -0.0957384 
-0.831729 0.019333 -0.129267 -0.718126 0.0686248 -0.16183 -0.602119 0.128229 -0.16656 
[...]
POINT_DATA 1002
FIELD FieldData 4
_paraPhi 1 1002 double
6.2831853072 3.1415926536 6.2831853072 3.1415926536 4.7123889804 4.7123889804 1.5707963268 1.5707963268 3.6951670125 
5.7296109483 2.5880182947 0.5535743589 6.2831853072 6.2831853072 6.2831853072 6.2831853072 3.1415926536 3.1415926536 
3.1415926536 3.1415926536 3.1415926536 6.1053039672 5.898798347 5.6768734901 5.4599499503 5.2659633393 5.1032165617 
4.9713148346 4.8656852733 4.7809517865 0.17788134 0.38438696014 0.60631181711 0.82323535693 1.0172219679 1.1799687454 
1.3118704726 1.4175000338 1.5022335207 6.1892828907 6.1070320098 6.035312792 5.9728339911 5.9183214791 5.8706119594 
5.8286879411 5.7916808611 5.7588591896 0.093902416448 0.17615329733 0.2478725152 0.31035131605 0.36486382811 0.41257334776 
0.45449736604 0.4915044461 0.52432611754 3.3194739936 3.5259796137 3.7479044707 3.9648280105 4.1588146215 4.321561399 
4.4534631262 4.5590926874 4.6438261743 2.9637113136 2.7572056934 2.5352808365 2.3183572967 2.1243706857 1.9616239082 
1.829722181 1.7240926197 1.6393591329 3.23549507 3.3177459509 3.3894651688 3.4519439696 3.5064564817 3.5541660013 
3.5960900196 3.6330970997 3.6659187711 3.0476902371 2.9654393563 2.8937201384 2.8312413375 2.7767288255 2.7290193058 
2.6870952876 2.6500882075 2.617266536 6.2831853072 6.2831853072 6.2831853072 6.2831853072 3.1415926536 3.1415926536 
3.1415926536 3.1415926536 3.1415926536 6.1053039672 5.898798347 5.6768734901 5.4599499503 5.2659633393 5.1032165617 
4.9713148346 4.8656852733 4.7809517865 0.17788134 0.38438696014 0.60631181711 0.82323535693 1.0172219679 1.1799687454 
1.3118704726 1.4175000338 1.5022335207 6.1892828907 6.1070320098 6.035312792 5.9728339911 5.9183214791 5.8706119594 
5.8286879411 5.7916808611 5.7588591896 0.093902416448 0.17615329733 0.2478725152 0.31035131605 0.36486382811 0.41257334776 
0.45449736604 0.4915044461 0.52432611754 3.3194739936 3.5259796137 3.7479044707 3.9648280105 4.1588146215 4.321561399 
4.4534631262 4.5590926874 4.6438261743 2.9637113136 2.7572056934 2.5352808365 2.3183572967 2.1243706857 1.9616239082 
1.829722181 1.7240926197 1.6393591329 3.23549507 3.3177459509 3.3894651688 3.4519439696 3.5064564817 3.5541660013 
3.5960900196 3.6330970997 3.6659187711 3.0476902371 2.9654393563 2.8937201384 2.8312413375 2.7767288255 2.7290193058 
2.6870952876 2.6500882075 2.617266536 4.7123889804 4.7123889804 4.7123889804 4.7123889804 4.7123889804 4.7123889804 
4.7123889804 4.7123889804 4.7123889804 4.6087898617 4.4991390697 4.3857031936 4.2712800401 4.1588146215 4.0509635631 
3.94975894 3.8564636551 3.7716124825 4.8159880991 4.9256388911 5.0390747672 5.1534979207 5.2659633393 5.3738143976 
5.4750190208 5.5683143056 5.6531654782 4.6087898617 4.4991390697 4.3857031936 4.2712800401 4.1588146215 4.0509635631 
3.94975894 3.8564636551 3.7716124825 4.8159880991 4.9256388911 5.0390747672 5.1534979207 5.2659633393 5.3738143976 
5.4750190208 5.5683143056 5.6531654782 1.5707963268 1.5707963268 1.5707963268 1.5707963268 1.5707963268 1.5707963268 
1.5707963268 1.5707963268 1.5707963268 1.6743954455 1.7840462375 1.8974821136 2.0119052671 2.1243706857 2.232221744 
2.3334263672 2.426721652 2.5115728246 1.4671972081 1.3575464161 1.24411054 1.1296873865 1.0172219679 0.90937090954 
0.80816628637 0.71487100155 0.63001982895 1.6743954455 1.7840462375 1.8974821136 2.0119052671 2.1243706857 2.232221744 
2.3334263672 2.426721652 2.5115728246 1.4671972081 1.3575464161 1.24411054 1.1296873865 1.0172219679 0.90937090954 
0.80816628637 0.71487100155 0.63001982895 3.6007720849 3.4966939854 3.3839471039 3.2645756454 3.1415926536 3.0186096618 
2.8992382033 2.7864913217 2.6824132222 5.8240058758 5.9280839753 6.0408308569 6.1602023154 6.2831853072 0.12298299178 
0.2423544503 0.35510133185 0.45917943135 6.0560271438 5.7885595667 5.9702140275 5.5125918794 5.6029703303 5.7885595667 
5.2659633393 5.2659633393 5.2659633393 5.2659633393 5.0674903122 5.0120975802 4.9155579264 4.7123889804 4.1588146215 
4.9155579264 4.8353719722 4.7123889804 4.5092200343 4.1588146215 3.6362183941 4.8004512023 4.7123889804 4.5894059886 
4.4126803806 4.1588146215 3.8218076305 3.4545639333 4.7123889804 4.6243267584 4.5092200343 4.3572876485 4.1588146215 
3.9121860814 3.6362183941 3.368750817 6.0174235957 5.9434319871 5.8263323547 5.8809213739 5.7674481418 5.6279784266 
5.8278025282 5.718968232 5.5891129425 5.4372443565 5.7823484065 5.678536687 5.5575666702 5.4192596322 5.2659633393 
5.743164462 5.6444075337 5.5314983644 5.4046708639 5.2659633393 5.1195510325 5.7091357773 5.6152775188 5.5096229709 
5.3926039573 5.2659633393 5.1329233157 4.9978930058 5.6793730533 5.5901633916 5.4910209005 5.3824597928 5.2659633393 
5.1440684722 5.0201624502 4.8979782167 5.5683143056 5.4750190208 5.4750190208 5.3738143976 5.3738143976 5.3738143976 
5.2659633393 5.2659633393 5.2659633393 5.2659633393 5.1534979207 5.1534979207 5.1534979207 5.1534979207 5.1534979207 
5.0390747672 5.0390747672 5.0390747672 5.0390747672 5.0390747672 5.0390747672 4.9256388911 4.9256388911 4.9256388911 
4.9256388911 4.9256388911 4.9256388911 4.9256388911 4.8159880991 4.8159880991 4.8159880991 4.8159880991 4.8159880991 
4.8159880991 4.8159880991 4.8159880991 4.6087898617 4.6087898617 4.4991390697 4.6087898617 4.4991390697 4.3857031936 
4.6087898617 4.4991390697 4.3857031936 4.2712800401 4.6087898617 4.4991390697 4.3857031936 4.2712800401 4.1588146215 
4.6087898617 4.4991390697 4.3857031936 4.2712800401 4.1588146215 4.0509635631 4.6087898617 4.4991390697 4.3857031936 
4.2712800401 4.1588146215 4.0509635631 3.94975894 4.6087898617 4.4991390697 4.3857031936 4.2712800401 4.1588146215 
4.0509635631 3.94975894 3.8564636551 4.526799744 4.4046155105 4.426884955 4.2807094886 4.2918546451 4.3052269283 
4.1588146215 4.1588146215 4.1588146215 4.1588146215 4.042318168 4.0321740035 4.0201070968 4.0055183285 3.9875336042 
3.9337570603 3.9151549899 3.8932795963 3.8672112905 3.8356650183 3.7967995342 3.8346145692 3.809500442 3.7803704271 
3.7462412737 3.7058097288 3.657329819 3.5984456061 3.7454049075 3.7156421835 3.6816134988 3.6424295543 3.5969754326 
3.5438565869 3.4813459737 3.4073543651 3.5642842451 3.4524645613 3.5233842518 3.3320300872 3.403123212 3.4773852225 
3.20576226 3.2746326772 3.348015857 3.4255060145 3.0774230472 3.1415926536 3.2112816139 3.2864685043 3.3668817272 
2.95115522 3.00855263 3.0719036933 3.1415926536 3.2178377658 3.3005964304 2.8307207459 2.8800620952 2.9351694502 
2.9967168029 3.0653475414 3.1415926536 3.225752376 2.718901062 2.7598010554 2.8058000847 2.8576792927 2.91630358 
2.9825888767 3.0574329311 3.1415926536 3.5642842451 3.5233842518 3.4524645613 3.4773852225 3.403123212 3.3320300872 
3.4255060145 3.348015857 3.2746326772 3.20576226 3.3668817272 3.2864685043 3.2112816139 3.1415926536 3.0774230472 
3.3005964304 3.2178377658 3.1415926536 3.0719036933 3.00855263 2.95115522 3.225752376 3.1415926536 3.0653475414 
2.9967168029 2.9351694502 2.8800620952 2.8307207459 3.1415926536 3.0574329311 2.9825888767 2.91630358 2.8576792927 
2.8058000847 2.7598010554 2.718901062 4.526799744 4.426884955 4.4046155105 4.3052269283 4.2918546451 4.2807094886 
4.1588146215 4.1588146215 4.1588146215 4.1588146215 3.9875336042 4.0055183285 4.0201070968 4.0321740035 4.042318168 
3.7967995342 3.8356650183 3.8672112905 3.8932795963 3.9151549899 3.9337570603 3.5984456061 3.657329819 3.7058097288 
3.7462412737 3.7803704271 3.809500442 3.8346145692 3.4073543651 3.4813459737 3.5438565869 3.5969754326 3.6424295543 
3.6816134988 3.7156421835 3.7454049075 4.7123889804 4.8004512023 4.6243267584 4.9155579264 4.7123889804 4.5092200343 
5.0674903122 4.8353719722 4.5894059886 4.3572876485 5.2659633393 5.0120975802 4.7123889804 4.4126803806 4.1588146215 
5.5125918794 5.2659633393 4.9155579264 4.5092200343 4.1588146215 3.9121860814 5.7885595667 5.6029703303 5.2659633393 
4.7123889804 4.1588146215 3.8218076305 3.6362183941 6.0560271438 5.9702140275 5.7885595667 5.2659633393 4.1588146215 
3.6362183941 3.4545639333 3.368750817 0.22715816343 0.49462574053 0.3129712797 0.77059342779 0.68021497688 0.49462574053 
1.0172219679 1.0172219679 1.0172219679 1.0172219679 1.2156949949 1.271087727 1.3676273807 1.5707963268 2.1243706857 
1.3676273807 1.447813335 1.5707963268 1.7739652728 2.1243706857 2.6469669131 1.4827341049 1.5707963268 1.6937793186 
1.8705049266 2.1243706857 2.4613776767 2.8286213739 1.5707963268 1.6588585487 1.7739652728 1.9258976586 2.1243706857 
2.3709992258 2.6469669131 2.9144344902 1.7563855631 1.8785697967 1.8563003522 2.0024758186 1.9913306621 1.9779583789 
2.1243706857 2.1243706857 2.1243706857 2.1243706857 2.2408671392 2.2510113037 2.2630782103 2.2776669786 2.295651703 
2.3494282469 2.3680303173 2.3899057108 2.4159740166 2.4475202889 2.486385773 2.448570738 2.4736848652 2.5028148801 
2.5369440334 2.5773755784 2.6258554882 2.6847397011 2.5377803997 2.5675431237 2.6015718084 2.6407557529 2.6862098746 
2.7393287203 2.8018393335 2.8758309421 1.6743954455 1.6743954455 1.7840462375 1.6743954455 1.7840462375 1.8974821136 
1.6743954455 1.7840462375 1.8974821136 2.0119052671 1.6743954455 1.7840462375 1.8974821136 2.0119052671 2.1243706857 
1.6743954455 1.7840462375 1.8974821136 2.0119052671 2.1243706857 2.232221744 1.6743954455 1.7840462375 1.8974821136 
2.0119052671 2.1243706857 2.232221744 2.3334263672 1.6743954455 1.7840462375 1.8974821136 2.0119052671 2.1243706857 
2.232221744 2.3334263672 2.426721652 1.4671972081 1.3575464161 1.4671972081 1.24411054 1.3575464161 1.4671972081 
1.1296873865 1.24411054 1.3575464161 1.4671972081 1.0172219679 1.1296873865 1.24411054 1.3575464161 1.4671972081 
0.90937090954 1.0172219679 1.1296873865 1.24411054 1.3575464161 1.4671972081 0.80816628637 0.90937090954 1.0172219679 
1.1296873865 1.24411054 1.3575464161 1.4671972081 0.71487100155 0.80816628637 0.90937090954 1.0172219679 1.1296873865 
1.24411054 1.3575464161 1.4671972081 0.60381225391 0.57404952988 0.69302191562 0.54002084522 0.66790778838 0.79216440667 
0.50083690068 0.63877777351 0.77356233629 0.90072551443 0.45538277901 0.60464862014 0.75168694275 0.89058134991 1.0172219679 
0.40226393329 0.56421707518 0.72561863695 0.87851444325 1.0172219679 1.139116835 0.33975332011 0.51573716537 0.69407236469 
0.86392567495 1.0172219679 1.1502619915 1.2630228569 0.26576171152 0.45685295248 0.6552068806 0.84594095064 1.0172219679 
1.1636342747 1.2852923014 1.3852070904 0.22715816343 0.3129712797 0.49462574053 0.49462574053 0.68021497688 0.77059342779 
1.0172219679 1.0172219679 1.0172219679 1.0172219679 2.1243706857 1.5707963268 1.3676273807 1.271087727 1.2156949949 
2.6469669131 2.1243706857 1.7739652728 1.5707963268 1.447813335 1.3676273807 2.8286213739 2.4613776767 2.1243706857 
1.8705049266 1.6937793186 1.5707963268 1.4827341049 2.9144344902 2.6469669131 2.3709992258 2.1243706857 1.9258976586 
1.7739652728 1.6588585487 1.5707963268 1.7563855631 1.8563003522 1.8785697967 1.9779583789 1.9913306621 2.0024758186 
2.1243706857 2.1243706857 2.1243706857 2.1243706857 2.295651703 2.2776669786 2.2630782103 2.2510113037 2.2408671392 
2.486385773 2.4475202889 2.4159740166 2.3899057108 2.3680303173 2.3494282469 2.6847397011 2.6258554882 2.5773755784 
2.5369440334 2.5028148801 2.4736848652 2.448570738 2.8758309421 2.8018393335 2.7393287203 2.6862098746 2.6407557529 
2.6015718084 2.5675431237 2.5377803997 5.8604937156 5.901393709 5.9723133995 5.9473927383 6.0216547488 6.0927478736 
5.9992719463 6.0767621038 6.1501452836 6.2190157008 6.0578962336 6.1383094565 6.2134963469 0 0.064169606361 
6.1241815303 6.206940195 6.2831853072 0.069688960264 0.13304002361 0.19043743361 6.1990255847 0 0.07624511221 
0.14487585072 0.20642320337 0.26153055843 0.3108719077 0 0.084159722458 0.15900377685 0.22528907359 0.28391336087 
0.3357925689 0.38179159818 0.42269159155 5.8604937156 5.9723133995 5.901393709 6.0927478736 6.0216547488 5.9473927383 
6.2190157008 6.1501452836 6.0767621038 5.9992719463 0.064169606361 0 6.2134963469 6.1383094565 6.0578962336 
0.19043743361 0.13304002361 0.069688960264 6.2831853072 6.206940195 6.1241815303 0.3108719077 0.26153055843 0.20642320337 
0.14487585072 0.07624511221 6.2831853072 6.1990255847 0.42269159155 0.38179159818 0.3357925689 0.28391336087 0.22528907359 
0.15900377685 0.084159722458 0 5.6793730533 5.7091357773 5.5901633916 5.743164462 5.6152775188 5.4910209005 
5.7823484065 5.6444075337 5.5096229709 5.3824597928 5.8278025282 5.678536687 5.5314983644 5.3926039573 5.2659633393 
5.8809213739 5.718968232 5.5575666702 5.4046708639 5.2659633393 5.1440684722 5.9434319871 5.7674481418 5.5891129425 
5.4192596322 5.2659633393 5.1329233157 5.0201624502 6.0174235957 5.8263323547 5.6279784266 5.4372443565 5.2659633393 
5.1195510325 4.9978930058 4.8979782167 1.3852070904 1.2852923014 1.2630228569 1.1636342747 1.1502619915 1.139116835 
1.0172219679 1.0172219679 1.0172219679 1.0172219679 0.84594095064 0.86392567495 0.87851444325 0.89058134991 0.90072551443 
0.6552068806 0.69407236469 0.72561863695 0.75168694275 0.77356233629 0.79216440667 0.45685295248 0.51573716537 0.56421707518 
0.60464862014 0.63877777351 0.66790778838 0.69302191562 0.26576171152 0.33975332011 0.40226393329 0.45538277901 0.50083690068 
0.54002084522 0.57404952988 0.60381225391 
_paraPhiHalf 1 1002 double
0 3.1415926536 0 3.1415926536 1.5707963268 1.5707963268 1.5707963268 1.5707963268 2.5880182947 
0.5535743589 2.5880182947 0.5535743589 0 0 0 0 3.1415926536 3.1415926536 
3.1415926536 3.1415926536 3.1415926536 0.17788134 0.38438696014 0.60631181711 0.82323535693 1.0172219679 1.1799687454 
1.3118704726 1.4175000338 1.5022335207 0.17788134 0.38438696014 0.60631181711 0.82323535693 1.0172219679 1.1799687454 
1.3118704726 1.4175000338 1.5022335207 0.093902416448 0.17615329733 0.2478725152 0.31035131605 0.36486382811 0.41257334776 
0.45449736604 0.4915044461 0.52432611754 0.093902416448 0.17615329733 0.2478725152 0.31035131605 0.36486382811 0.41257334776 
0.45449736604 0.4915044461 0.52432611754 2.9637113136 2.7572056934 2.5352808365 2.3183572967 2.1243706857 1.9616239082 
1.829722181 1.7240926197 1.6393591329 2.9637113136 2.7572056934 2.5352808365 2.3183572967 2.1243706857 1.9616239082 
1.829722181 1.7240926197 1.6393591329 3.0476902371 2.9654393563 2.8937201384 2.8312413375 2.7767288255 2.7290193058 
2.6870952876 2.6500882075 2.617266536 3.0476902371 2.9654393563 2.8937201384 2.8312413375 2.7767288255 2.7290193058 
2.6870952876 2.6500882075 2.617266536 0 0 0 0 3.1415926536 3.1415926536 
3.1415926536 3.1415926536 3.1415926536 0.17788134 0.38438696014 0.60631181711 0.82323535693 1.0172219679 1.1799687454 
1.3118704726 1.4175000338 1.5022335207 0.17788134 0.38438696014 0.60631181711 0.82323535693 1.0172219679 1.1799687454 
1.3118704726 1.4175000338 1.5022335207 0.093902416448 0.17615329733 0.2478725152 0.31035131605 0.36486382811 0.41257334776 
0.45449736604 0.4915044461 0.52432611754 0.093902416448 0.17615329733 0.2478725152 0.31035131605 0.36486382811 0.41257334776 
0.45449736604 0.4915044461 0.52432611754 2.9637113136 2.7572056934 2.5352808365 2.3183572967 2.1243706857 1.9616239082 
1.829722181 1.7240926197 1.6393591329 2.9637113136 2.7572056934 2.5352808365 2.3183572967 2.1243706857 1.9616239082 
1.829722181 1.7240926197 1.6393591329 3.0476902371 2.9654393563 2.8937201384 2.8312413375 2.7767288255 2.7290193058 
2.6870952876 2.6500882075 2.617266536 3.0476902371 2.9654393563 2.8937201384 2.8312413375 2.7767288255 2.7290193058 
2.6870952876 2.6500882075 2.617266536 1.5707963268 1.5707963268 1.5707963268 1.5707963268 1.5707963268 1.5707963268 
1.5707963268 1.5707963268 1.5707963268 1.6743954455 1.7840462375 1.8974821136 2.0119052671 2.1243706857 2.232221744 
2.3334263672 2.426721652 2.5115728246 1.4671972081 1.3575464161 1.24411054 1.1296873865 1.0172219679 0.90937090954 
0.80816628637 0.71487100155 0.63001982895 1.6743954455 1.7840462375 1.8974821136 2.0119052671 2.1243706857 2.232221744 
2.3334263672 2.426721652 2.5115728246 1.4671972081 1.3575464161 1.24411054 1.1296873865 1.0172219679 0.90937090954 
0.80816628637 0.71487100155 0.63001982895 1.5707963268 1.5707963268 1.5707963268 1.5707963268 1.5707963268 1.5707963268 
1.5707963268 1.5707963268 1.5707963268 1.6743954455 1.7840462375 1.8974821136 2.0119052671 2.1243706857 2.232221744 
2.3334263672 2.426721652 2.5115728246 1.4671972081 1.3575464161 1.24411054 1.1296873865 1.0172219679 0.90937090954 
0.80816628637 0.71487100155 0.63001982895 1.6743954455 1.7840462375 1.8974821136 2.0119052671 2.1243706857 2.232221744 
2.3334263672 2.426721652 2.5115728246 1.4671972081 1.3575464161 1.24411054 1.1296873865 1.0172219679 0.90937090954 
0.80816628637 0.71487100155 0.63001982895 2.6824132222 2.7864913217 2.8992382033 3.0186096618 3.1415926536 3.0186096618 
2.8992382033 2.7864913217 2.6824132222 0.45917943135 0.35510133185 0.2423544503 0.12298299178 0 0.12298299178 
0.2423544503 0.35510133185 0.45917943135 0.22715816343 0.49462574053 0.3129712797 0.77059342779 0.68021497688 0.49462574053 
1.0172219679 1.0172219679 1.0172219679 1.0172219679 1.2156949949 1.271087727 1.3676273807 1.5707963268 2.1243706857 
1.3676273807 1.447813335 1.5707963268 1.7739652728 2.1243706857 2.6469669131 1.4827341049 1.5707963268 1.6937793186 
1.8705049266 2.1243706857 2.4613776767 2.8286213739 1.5707963268 1.6588585487 1.7739652728 1.9258976586 2.1243706857 
2.3709992258 2.6469669131 2.9144344902 0.26576171152 0.33975332011 0.45685295248 0.40226393329 0.51573716537 0.6552068806 
0.45538277901 0.56421707518 0.69407236469 0.84594095064 0.50083690068 0.60464862014 0.72561863695 0.86392567495 1.0172219679 
0.54002084522 0.63877777351 0.75168694275 0.87851444325 1.0172219679 1.1636342747 0.57404952988 0.66790778838 0.77356233629 
0.89058134991 1.0172219679 1.1502619915 1.2852923014 0.60381225391 0.69302191562 0.79216440667 0.90072551443 1.0172219679 
1.139116835 1.2630228569 1.3852070904 0.71487100155 0.80816628637 0.80816628637 0.90937090954 0.90937090954 0.90937090954 
1.0172219679 1.0172219679 1.0172219679 1.0172219679 1.1296873865 1.1296873865 1.1296873865 1.1296873865 1.1296873865 
1.24411054 1.24411054 1.24411054 1.24411054 1.24411054 1.24411054 1.3575464161 1.3575464161 1.3575464161 
1.3575464161 1.3575464161 1.3575464161 1.3575464161 1.4671972081 1.4671972081 1.4671972081 1.4671972081 1.4671972081 
1.4671972081 1.4671972081 1.4671972081 1.6743954455 1.6743954455 1.7840462375 1.6743954455 1.7840462375 1.8974821136 
1.6743954455 1.7840462375 1.8974821136 2.0119052671 1.6743954455 1.7840462375 1.8974821136 2.0119052671 2.1243706857 
1.6743954455 1.7840462375 1.8974821136 2.0119052671 2.1243706857 2.232221744 1.6743954455 1.7840462375 1.8974821136 
2.0119052671 2.1243706857 2.232221744 2.3334263672 1.6743954455 1.7840462375 1.8974821136 2.0119052671 2.1243706857 
2.232221744 2.3334263672 2.426721652 1.7563855631 1.8785697967 1.8563003522 2.0024758186 1.9913306621 1.9779583789 
2.1243706857 2.1243706857 2.1243706857 2.1243706857 2.2408671392 2.2510113037 2.2630782103 2.2776669786 2.295651703 
2.3494282469 2.3680303173 2.3899057108 2.4159740166 2.4475202889 2.486385773 2.448570738 2.4736848652 2.5028148801 
2.5369440334 2.5773755784 2.6258554882 2.6847397011 2.5377803997 2.5675431237 2.6015718084 2.6407557529 2.6862098746 
2.7393287203 2.8018393335 2.8758309421 2.718901062 2.8307207459 2.7598010554 2.95115522 2.8800620952 2.8058000847 
3.0774230472 3.00855263 2.9351694502 2.8576792927 3.0774230472 3.1415926536 3.0719036933 2.9967168029 2.91630358 
2.95115522 3.00855263 3.0719036933 3.1415926536 3.0653475414 2.9825888767 2.8307207459 2.8800620952 2.9351694502 
2.9967168029 3.0653475414 3.1415926536 3.0574329311 2.718901062 2.7598010554 2.8058000847 2.8576792927 2.91630358 
2.9825888767 3.0574329311 3.1415926536 2.718901062 2.7598010554 2.8307207459 2.8058000847 2.8800620952 2.95115522 
2.8576792927 2.9351694502 3.00855263 3.0774230472 2.91630358 2.9967168029 3.0719036933 3.1415926536 3.0774230472 
2.9825888767 3.0653475414 3.1415926536 3.0719036933 3.00855263 2.95115522 3.0574329311 3.1415926536 3.0653475414 