# vtk DataFile Version 5.1
vtk output
ASCII
DATASET POLYDATA
POINTS 100 float
-115.233 -103.442 112.875 -115.236 -103.445 112.871 -115.247 -103.453 112.852 
-115.267 -103.464 112.816 -115.298 -103.482 112.762 -115.343 -103.506 112.685 
-115.405 -103.539 112.582 -115.486 -103.58 112.45 -115.592 -103.629 112.284 
-115.724 -103.686 112.085 -115.884 -103.748 111.851 -116.075 -103.813 111.583 
-116.296 -103.877 111.284 -116.549 -103.938 110.956 -116.833 -103.993 110.604 
-117.145 -104.041 110.233 -117.484 -104.083 109.847 -117.846 -104.122 109.451 
-118.229 -104.16 109.049 -118.629 -104.203 108.644 -119.043 -104.258 108.238 
-119.466 -104.333 107.83 -119.896 -104.435 107.422 -120.328 -104.571 107.011 
-120.759 -104.745 106.595 -121.187 -104.962 106.173 -121.609 -105.222 105.743 
-122.022 -105.525 105.303 -122.425 -105.867 104.852 -122.815 -106.243 104.39 
-123.192 -106.648 103.917 -123.555 -107.076 103.434 -123.904 -107.52 102.944 
-124.238 -107.976 102.448 -124.558 -108.442 101.95 -124.864 -108.917 101.451 
-125.158 -109.401 100.955 -125.439 -109.9 100.463 -125.708 -110.417 99.9775 
-125.967 -110.96 99.4998 -126.214 -111.535 99.0311 -126.45 -112.148 98.5724 
-126.674 -112.804 98.1244 -126.885 -113.506 97.6878 -127.081 -114.254 97.2632 
-127.259 -115.047 96.8512 -127.419 -115.88 96.4525 -127.559 -116.747 96.0677 
-127.675 -117.64 95.6973 -127.767 -118.548 95.3415 -127.833 -119.463 95.0004 
-127.874 -120.374 94.6735 -127.889 -121.273 94.3597 -127.88 -122.153 94.0578 
-127.848 -123.008 93.7659 -127.796 -123.832 93.482 -127.727 -124.625 93.2037 
-127.645 -125.385 92.9288 -127.552 -126.111 92.6553 -127.451 -126.806 92.3814 
-127.347 -127.47 92.1061 -127.241 -128.106 91.829 -127.136 -128.714 91.5501 
-127.032 -129.298 91.2703 -126.932 -129.858 90.9908 -126.834 -130.395 90.7133 
-126.74 -130.91 90.4396 -126.648 -131.406 90.1712 -126.559 -131.881 89.9094 
-126.471 -132.338 89.6552 -126.386 -132.777 89.4086 -126.301 -133.199 89.1691 
-126.219 -133.606 88.9357 -126.14 -133.999 88.7064 -126.065 -134.378 88.4793 
-125.995 -134.743 88.252 -125.932 -135.097 88.0223 -125.877 -135.438 87.7881 
-125.832 -135.768 87.548 -125.797 -136.086 87.3014 -125.773 -136.394 87.0482 
-125.76 -136.691 86.7895 -125.758 -136.978 86.527 -125.766 -137.257 86.2631 
-125.782 -137.53 86.0009 -125.805 -137.797 85.7439 -125.833 -138.059 85.4954 
-125.864 -138.318 85.2588 -125.895 -138.575 85.0372 -125.926 -138.828 84.8331 
-125.955 -139.076 84.6484 -125.981 -139.316 84.4844 -126.003 -139.546 84.3415 
-126.02 -139.76 84.2198 -126.034 -139.953 84.1187 -126.045 -140.121 84.0373 
-126.052 -140.258 83.9747 -126.056 -140.359 83.93 -126.058 -140.42 83.9022 
-126.059 -140.44 83.891 
LINES 2 100
OFFSETS vtktypeint64
0 100 
CONNECTIVITY vtktypeint64
0 1 2 3 4 5 6 7 8 
9 10 11 12 13 14 15 16 17 
18 19 20 21 22 23 24 25 26 
27 28 29 30 31 32 33 34 35 
36 37 38 39 40 41 42 43 44 
45 46 47 48 49 50 51 52 53 
54 55 56 57 58 59 60 61 62 
63 64 65 66 67 68 69 70 71 
72 73 74 75 76 77 78 79 80 
81 82 83 84 85 86 87 88 89 
90 91 92 93 94 95 96 97 98 
99 
POINT_DATA 100
FIELD FieldData 3
_theta 1 100 double
0 0.031733259127 0.063466518254 0.095199777382 0.12693303651 0.15866629564 0.19039955476 0.22213281389 0.25386607302 
0.28559933214 0.31733259127 0.3490658504 0.38079910953 0.41253236865 0.44426562778 0.47599888691 0.50773214603 0.53946540516 
0.57119866429 0.60293192342 0.63466518254 0.66639844167 0.6981317008 0.72986495992 0.76159821905 0.79333147818 0.82506473731 
0.85679799643 0.88853125556 0.92026451469 0.95199777382 0.98373103294 1.0154642921 1.0471975512 1.0789308103 1.1106640695 
1.1423973286 1.1741305877 1.2058638468 1.237597106 1.2693303651 1.3010636242 1.3327968833 1.3645301425 1.3962634016 
1.4279966607 1.4597299198 1.491463179 1.5231964381 1.5549296972 1.5866629564 1.6183962155 1.6501294746 1.6818627337 
1.7135959929 1.745329252 1.7770625111 1.8087957702 1.8405290294 1.8722622885 1.9039955476 1.9357288068 1.9674620659 
1.999195325 2.0309285841 2.0626618433 2.0943951024 2.1261283615 2.1578616206 2.1895948798 2.2213281389 2.253061398 
2.2847946572 2.3165279163 2.3482611754 2.3799944345 2.4117276937 2.4434609528 2.4751942119 2.506927471 2.5386607302 
2.5703939893 2.6021272484 2.6338605076 2.6655937667 2.6973270258 2.7290602849 2.7607935441 2.7925268032 2.8242600623 
2.8559933214 2.8877265806 2.9194598397 2.9511930988 2.982926358 3.0146596171 3.0463928762 3.0781261353 3.1098593945 
3.1415926536 
_radius 1 100 double
2.1831129254e-13 0.38351922291 0.76435772318 1.1396123534 1.5064223512 1.8620101424 2.2037337201 2.5291522771 2.8361038349 
3.1227881758 3.3878412872 3.6303819615 3.8500118556 4.0467608929 4.2209893221 4.3732769917 4.5043353001 4.6149613262 
4.7060286684 4.7784957524 4.833417111 4.8719559802 4.8954038322 4.9052095613 4.9030122024 4.8906629568 4.8702194211 
4.8438980812 4.8139773845 4.7826484991 4.7518147776 4.7228567925 4.6964259124 4.6723900536 4.6500406445 4.6285099174 
4.6071737502 4.5858361287 4.5646779956 4.5441091728 4.5246854395 4.5071736904 4.4927391981 4.4831477439 4.4808483078 
4.4888324238 4.5102423952 4.5477970787 4.6031879261 4.6766444478 4.7668637417 4.8714106233 4.987493138 5.112798358 
5.2460116878 5.3867508769 5.5348147956 5.688958067 5.8459220602 6.0004872914 6.1464137206 6.2775279279 6.3885242338 
6.4754512891 6.5359562208 6.5693242665 6.5763250525 6.5588843616 6.5196278614 6.4613706655 6.3866401575 6.2973158055 
6.1944518541 6.0783193474 5.9486632053 5.8051218415 5.6477112733 5.4772472779 5.2955843976 5.1055969395 4.910896342 
4.7153370063 4.5223925236 4.3345008799 4.1524985004 3.9752772507 3.7997724454 3.6213112823 3.4342515904 3.2327692049 
3.0116340217 2.7668424242 2.4960248296 2.198601228 1.8757032879 1.5299155794 1.164910968 0.78506502488 0.39512729367 
3.0906567149e-13 
_area 1 100 double
0 0.40154379799 1.6010755461 3.5818370688 6.3113200246 9.7354921013 13.773067083 18.312107354 23.211206342 
28.306672801 33.425610195 38.402931842 43.098842046 47.412771594 51.290323008 54.721215897 57.72829246 60.350108277 
62.622218523 64.564143557 66.17761345 67.455665564 68.396253263 69.013340755 69.340868049 69.426702445 69.316806805 
69.039035138 68.60197963 68.010501547 67.282713019 66.455710472 65.578281422 64.69664472 63.844507703 63.049794302 
62.322906424 61.69544611 61.25434245 61.019654414 61.000427024 61.19630716 61.579653143 62.116976063 62.791228142 
63.608379588 64.596399783 65.799565446 67.26454373 69.015638275 71.035220671 73.27163293 75.669974092 78.226886126 
81.034736526 84.266349859 88.089428391 92.571587303 97.663392928 103.21706201 108.97647956 114.58287919 119.64174636 
123.81217803 126.87148383 128.74987893 129.54390207 129.49749513 128.8915685 127.87136888 126.41067166 124.39476319 
121.68846856 118.17357715 113.78013531 108.51134912 102.45937443 95.808917384 88.825284126 81.824547962 75.127177613 
68.999856408 63.593493888 58.901799701 54.779398986 51.005472746 47.341061531 43.571647308 39.541531142 35.176116052 
30.489084969 25.576330089 20.599933268 15.764870423 11.290962211 7.3838147046 4.2103747603 1.8854392507 0.47299273993 
0 
