# vtk DataFile Version 5.1
vtk output
ASCII
DATASET POLYDATA
POINTS 1002 float
-0.53096 -0.0388369 -0.291356 0.566447 0.164329 -0.176686 -0.630749 0.00331889 0.214812 
0.63854 0.0555601 0.147905 0.0347331 0.486306 -0.135775 -0.0909518 0.467797 0.177996 
-0.198496 -0.18806 -0.0907254 -0.199957 -0.100771 0.135896 0.947368 0.101999 -0.0451989 
-0.932864 0.121424 0.0193758 0.988083 -0.600194 0.048585 -0.859076 -0.46999 0.0397596 
-0.46117 -0.0198984 -0.288607 -0.391393 0.00241041 -0.273447 -0.32557 0.0360764 -0.240505 
-0.249873 0.079773 -0.196316 -0.140731 0.119383 -0.161153 0.0027704 0.147333 -0.150883 
0.155985 0.169892 -0.160466 0.301661 0.187219 -0.173404 0.439045 0.187729 -0.179241 
-0.505845 0.00634831 -0.295897 -0.472573 0.0625144 -0.288519 -0.434847 0.122406 -0.265936 
-0.393877 0.175425 -0.230282 -0.341857 0.223703 -0.191192 -0.271762 0.279648 -0.16114 
-0.190558 0.343363 -0.145238 -0.110427 0.401778 -0.138965 -0.0354888 0.448234 -0.136494 
-0.508579 -0.0654383 -0.277852 -0.483474 -0.0939429 -0.256852 -0.452804 -0.12874 -0.238773 
-0.410059 -0.164049 -0.232222 -0.355372 -0.189378 -0.229812 -0.301401 -0.204384 -0.215189 
-0.261036 -0.214595 -0.185316 -0.235126 -0.217976 -0.150838 -0.216602 -0.209005 -0.119234 
-0.588221 -0.0321619 -0.291585 -0.648901 -0.0199115 -0.283354 -0.713455 0.000405118 -0.270183 
-0.787444 0.024554 -0.252899 -0.865068 0.0436935 -0.223705 -0.922457 0.0553576 -0.178008 
-0.945176 0.0660331 -0.124793 -0.945504 0.0814663 -0.0739617 -0.940471 0.101124 -0.0262318 
-0.584708 -0.0785465 -0.28336 -0.635846 -0.125236 -0.273289 -0.685532 -0.176017 -0.259086 
-0.734802 -0.224564 -0.232109 -0.777684 -0.268543 -0.18685 -0.809002 -0.311784 -0.129773 
-0.833531 -0.356628 -0.0736411 -0.854482 -0.400453 -0.0267618 -0.864885 -0.439326 0.00991801 
0.514257 0.198702 -0.187701 0.457933 0.235827 -0.194957 0.400157 0.27286 -0.195236 
0.346236 0.3064 -0.193165 0.298468 0.338332 -0.195103 0.250652 0.373265 -0.197 
0.19652 0.4101 -0.189401 0.13931 0.442958 -0.172185 0.0851684 0.468288 -0.152879 
0.54027 0.153765 -0.170111 0.507639 0.142213 -0.165165 0.457854 0.124269 -0.158803 
0.378406 0.0999363 -0.145898 0.268044 0.0745571 -0.126611 0.139393 0.046087 -0.107459 
0.0118046 0.00342471 -0.0940789 -0.0940779 -0.0568104 -0.0878311 -0.16409 -0.12459 -0.0876175 
0.657592 0.145466 -0.175614 0.746293 0.120811 -0.169987 0.818887 0.0952062 -0.158766 
0.868845 0.0698995 -0.143197 0.904947 0.0470692 -0.126198 0.934768 0.0344778 -0.109006 
0.952569 0.0379599 -0.0913669 0.955056 0.054481 -0.0741378 0.950632 0.0772808 -0.0586829 
0.673547 0.109616 -0.163869 0.772135 0.0246584 -0.146709 0.847531 -0.0887952 -0.125511 
0.906451 -0.214374 -0.104504 0.9643 -0.329028 -0.0916441 1.00987 -0.421553 -0.0839825 
1.0191 -0.496049 -0.0645257 1.00023 -0.555017 -0.0262292 0.984928 -0.591657 0.0170222 
-0.584513 0.0322865 0.249003 -0.523609 0.054597 0.287777 -0.436039 0.0801554 0.308997 
-0.300224 0.125018 0.280915 -0.110198 0.179201 0.206802 0.0971328 0.205911 0.142827 
0.271908 0.188727 0.133708 0.405452 0.147144 0.157746 0.522775 0.101762 0.167427 
-0.62494 0.0489375 0.250275 -0.594927 0.10503 0.275779 -0.547355 0.166911 0.288587 
-0.499281 0.225204 0.294057 -0.456621 0.276704 0.296828 -0.406418 0.324928 0.292572 
-0.337585 0.370103 0.274635 -0.255188 0.408938 0.244455 -0.170704 0.440909 0.209995 
-0.594261 -0.016501 0.192041 -0.550732 -0.0363946 0.16793 -0.513905 -0.0632321 0.153141 
-0.484506 -0.0974226 0.149475 -0.445746 -0.128111 0.144563 -0.391311 -0.144599 0.131245 
-0.337132 -0.146875 0.121156 -0.293233 -0.139322 0.124821 -0.250752 -0.123531 0.134502 
-0.672413 -0.00163226 0.207042 -0.710826 -0.000625541 0.194745 -0.750935 0.0083608 0.180324 
-0.797141 0.0211433 0.170081 -0.842011 0.034256 0.161119 -0.874839 0.0501581 0.142315 
-0.896865 0.0700509 0.112075 -0.914633 0.0899655 0.07908 -0.928054 0.106917 0.0483842 
-0.648104 -0.0459965 0.172871 -0.662624 -0.102776 0.136855 -0.692076 -0.162022 0.116634 
-0.745414 -0.218276 0.115975 -0.803371 -0.271179 0.125733 -0.839119 -0.326053 0.129004 
-0.852443 -0.383756 0.11658 -0.859524 -0.433488 0.0929486 -0.864336 -0.46274 0.066363 
0.585652 0.106315 0.161786 0.530842 0.158464 0.164623 0.47548 0.209295 0.153643 
0.414004 0.261614 0.139549 0.336499 0.316508 0.140035 0.239741 0.365948 0.158306 
0.135439 0.40235 0.17831 0.0418006 0.428295 0.186276 -0.0323974 0.449611 0.18366 
0.614623 0.0387144 0.146835 0.581874 0.0299369 0.139245 0.540939 0.0327725 0.124202 
0.491975 0.0440695 0.104303 0.426611 0.0582646 0.0848152 0.325829 0.0699113 0.0711593 
0.18165 0.0671055 0.0692756 0.0200647 0.0356799 0.0833531 -0.115393 -0.025068 0.109355 
0.722928 0.034342 0.124406 0.805246 0.00643764 0.101546 0.878458 -0.0200849 0.0901899 
0.94031 -0.0318233 0.0853942 0.989071 -0.0278098 0.0722923 1.01867 -0.0192933 0.047776 
1.02376 -0.00751534 0.0216589 1.00739 0.0174797 -0.000889821 0.979131 0.0572598 -0.0226206 
0.74567 -0.0114229 0.114896 0.849304 -0.0952953 0.0880851 0.924234 -0.196937 0.089577 
0.963431 -0.312229 0.120033 0.987381 -0.430825 0.15308 1.01399 -0.53736 0.162056 
1.03472 -0.614141 0.143767 1.03496 -0.647874 0.111927 1.01605 -0.638605 0.0788789 
0.0445234 0.519692 -0.123655 0.0508201 0.557709 -0.10671 0.0528566 0.593988 -0.0841179 
0.0476281 0.61343 -0.0515478 0.0298246 0.60538 -0.00381106 0.000130283 0.577638 0.052863 
-0.031608 0.546799 0.101611 -0.0569236 0.51963 0.134089 -0.0756353 0.493718 0.156725 
0.138372 0.511129 -0.149503 0.246143 0.529959 -0.167663 0.346161 0.534455 -0.177952 
0.437124 0.514405 -0.16709 0.528692 0.468154 -0.139158 0.623286 0.406893 -0.113039 
0.715202 0.342061 -0.0974869 0.802763 0.273169 -0.0848911 0.883043 0.193484 -0.0674799 
-0.062389 0.474157 -0.120993 -0.172283 0.449502 -0.105393 -0.292212 0.411856 -0.0830089 
-0.414766 0.367421 -0.0569869 -0.537018 0.324563 -0.0397008 -0.660744 0.285319 -0.032706 
-0.776295 0.246271 -0.0226821 -0.863218 0.205459 -0.0044791 -0.912327 0.163482 0.012235 
0.0268231 0.480924 0.14891 0.160925 0.486698 0.114657 0.308033 0.4786 0.0794894 
0.457656 0.454783 0.048724 0.593169 0.419476 0.0222677 0.701859 0.376194 -0.00218612 
0.784646 0.32356 -0.022666 0.850763 0.25931 -0.0365486 0.905269 0.184185 -0.0439557 
-0.195723 0.467032 0.190058 -0.309395 0.463092 0.201118 -0.425128 0.452387 0.208139 
-0.528094 0.425069 0.201581 -0.6144 0.37528 0.176976 -0.697737 0.313668 0.145541 
-0.784145 0.257473 0.119007 -0.858857 0.210794 0.0934606 -0.90755 0.166706 0.0601532 
-0.199437 -0.207872 -0.0715584 -0.202002 -0.22414 -0.0420725 -0.201532 -0.2338 -0.00712609 
-0.190029 -0.23482 0.0231202 -0.170139 -0.22822 0.0480745 -0.158669 -0.215549 0.077911 
-0.166126 -0.195577 0.112626 -0.183806 -0.167385 0.137565 -0.197126 -0.134131 0.143532 
-0.139399 -0.118184 -0.0662311 0.0040591 -0.0467428 -0.0605501 0.237285 -0.0108574 -0.0764817 
0.481796 -0.0470472 -0.0962555 0.636761 -0.150944 -0.0943758 0.700258 -0.271544 -0.0651896 
0.755669 -0.366258 -0.0269884 0.843635 -0.440369 0.00342418 0.932244 -0.51739 0.0261463 
-0.216819 -0.259754 -0.11443 -0.237909 -0.319872 -0.131989 -0.303865 -0.368602 -0.124746 
-0.409165 -0.4145 -0.0963864 -0.507561 -0.459949 -0.0730121 -0.582887 -0.495014 -0.0629629 
-0.659652 -0.510135 -0.0463006 -0.743989 -0.506522 -0.0143347 -0.814427 -0.491327 0.0183366 
-0.0750538 -0.0264547 0.102406 0.11788 0.0268993 0.0520723 0.346245 0.0202903 0.0164401 
0.547596 -0.0575687 0.016703 0.687634 -0.171507 0.0333462 0.786168 -0.277935 0.0373926 
0.869443 -0.367841 0.0338545 0.934097 -0.452969 0.0395722 0.970978 -0.534076 0.0494039 
-0.266958 -0.196231 0.151023 -0.306917 -0.280141 0.143351 -0.380359 -0.345721 0.132853 
-0.509349 -0.416025 0.145497 -0.634625 -0.504437 0.170898 -0.700934 -0.57777 0.170561 
-0.731947 -0.595777 0.134987 -0.770641 -0.563515 0.0912694 -0.818626 -0.51438 0.0601219 
0.993426 -0.0263861 -0.0229925 1.01979 -0.1858 0.01435 1.04801 -0.354949 0.0604397 
1.10298 -0.503701 0.0935474 1.15388 -0.618944 0.0960201 1.14211 -0.704474 0.078326 
1.0798 -0.752086 0.0642978 1.03002 -0.743709 0.0600143 1.00955 -0.683409 0.0564471 
-0.94738 0.0622503 -0.0110674 -0.959914 -0.00298986 -0.0450932 -0.980825 -0.0628873 -0.0631331 
-1.01641 -0.113205 -0.0520017 -1.04992 -0.168113 -0.0238372 -1.04727 -0.241011 -0.000904943 
-1.00209 -0.319952 0.0127222 -0.945282 -0.383866 0.0246567 -0.899312 -0.430233 0.0350775 
-0.429362 0.0270298 -0.288367 -0.392709 0.0845847 -0.271116 -0.356536 0.0539695 -0.261192 
-0.352078 0.1444 -0.238217 -0.317114 0.113839 -0.231849 -0.286825 0.0925938 -0.215164 
-0.301228 0.198854 -0.200721 -0.266552 0.173106 -0.19713 -0.236503 0.151799 -0.182431 
-0.196111 0.134963 -0.169056 -0.232629 0.253897 -0.171736 -0.195765 0.228848 -0.173679 
-0.163747 0.207458 -0.161614 -0.123053 0.188067 -0.148368 -0.0635353 0.1675 -0.147116 
-0.15089 0.316246 -0.156224 -0.108545 0.287211 -0.165668 -0.0685403 0.261232 -0.162326 
-0.0268292 0.238296 -0.149416 0.0281749 0.214628 -0.14569 0.0935518 0.190209 -0.154078 
-0.0679378 0.377745 -0.150685 -0.0197884 0.347205 -0.165433 0.0309291 0.315586 -0.1734 
0.0791175 0.287169 -0.167773 0.129017 0.260823 -0.161069 0.185588 0.233748 -0.165331 
0.244569 0.207937 -0.172893 0.0109739 0.428267 -0.150412 0.0627734 0.400054 -0.167732 
0.119396 0.366268 -0.182589 0.173698 0.332672 -0.185951 0.223082 0.302786 -0.181575 
0.273266 0.273991 -0.181609 0.327307 0.24354 -0.186093 0.383094 0.213852 -0.185963 
-0.5624 0.0245477 -0.290444 -0.619651 0.0473148 -0.275457 -0.525617 0.0893766 -0.27839 
-0.679484 0.0697647 -0.254129 -0.577987 0.112828 -0.257575 -0.484884 0.148273 -0.252307 
-0.749524 0.0861853 -0.223963 -0.634068 0.125436 -0.226563 -0.535383 0.162981 -0.226603 
-0.441483 0.195437 -0.213681 -0.821962 0.0971332 -0.180376 -0.701451 0.131449 -0.183422 
-0.590954 0.167339 -0.18782 -0.49008 0.206954 -0.185785 -0.383073 0.245253 -0.173959 
-0.874469 0.10927 -0.12917 -0.769423 0.143124 -0.133636 -0.654251 0.175975 -0.139485 
-0.541815 0.21752 -0.146153 -0.424682 0.264875 -0.149171 -0.303777 0.308721 -0.146874 
[...]
POINT_DATA 1002
FIELD FieldData 4
_paraPhi 1 1002 double
6.2831853072 3.1415926536 6.2831853072 3.1415926536 4.7123889804 4.7123889804 1.5707963268 1.5707963268 3.6951670125 
5.7296109483 2.5880182947 0.5535743589 6.2831853072 6.2831853072 6.2831853072 6.2831853072 3.1415926536 3.1415926536 
3.1415926536 3.1415926536 3.1415926536 6.1053039672 5.898798347 5.6768734901 5.4599499503 5.2659633393 5.1032165617 
4.9713148346 4.8656852733 4.7809517865 0.17788134 0.38438696014 0.60631181711 0.82323535693 1.0172219679 1.1799687454 
1.3118704726 1.4175000338 1.5022335207 6.1892828907 6.1070320098 6.035312792 5.9728339911 5.9183214791 5.8706119594 
5.8286879411 5.7916808611 5.7588591896 0.093902416448 0.17615329733 0.2478725152 0.31035131605 0.36486382811 0.41257334776 
0.45449736604 0.4915044461 0.52432611754 3.3194739936 3.5259796137 3.7479044707 3.9648280105 4.1588146215 4.321561399 
4.4534631262 4.5590926874 4.6438261743 2.9637113136 2.7572056934 2.5352808365 2.3183572967 2.1243706857 1.9616239082 
1.829722181 1.7240926197 1.6393591329 3.23549507 3.3177459509 3.3894651688 3.4519439696 3.5064564817 3.5541660013 
3.5960900196 3.6330970997 3.6659187711 3.0476902371 2.9654393563 2.8937201384 2.8312413375 2.7767288255 2.7290193058 
2.6870952876 2.6500882075 2.617266536 6.2831853072 6.2831853072 6.2831853072 6.2831853072 3.1415926536 3.1415926536 
3.1415926536 3.1415926536 3.1415926536 6.1053039672 5.898798347 5.6768734901 5.4599499503 5.2659633393 5.1032165617 
4.9713148346 4.8656852733 4.7809517865 0.17788134 0.38438696014 0.60631181711 0.82323535693 1.0172219679 1.1799687454 
1.3118704726 1.4175000338 1.5022335207 6.1892828907 6.1070320098 6.035312792 5.9728339911 5.9183214791 5.8706119594 
5.8286879411 5.7916808611 5.7588591896 0.093902416448 0.17615329733 0.2478725152 0.31035131605 0.36486382811 0.41257334776 
0.45449736604 0.4915044461 0.52432611754 3.3194739936 3.5259796137 3.7479044707 3.9648280105 4.1588146215 4.321561399 
4.4534631262 4.5590926874 4.6438261743 2.9637113136 2.7572056934 2.5352808365 2.3183572967 2.1243706857 1.9616239082 
1.829722181 1.7240926197 1.6393591329 3.23549507 3.3177459509 3.3894651688 3.4519439696 3.5064564817 3.5541660013 
3.5960900196 3.6330970997 3.6659187711 3.0476902371 2.9654393563 2.8937201384 2.8312413375 2.7767288255 2.7290193058 
2.6870952876 2.6500882075 2.617266536 4.7123889804 4.7123889804 4.7123889804 4.7123889804 4.7123889804 4.7123889804 
4.7123889804 4.7123889804 4.7123889804 4.6087898617 4.4991390697 4.3857031936 4.2712800401 4.1588146215 4.0509635631 
3.94975894 3.8564636551 3.7716124825 4.8159880991 4.9256388911 5.0390747672 5.1534979207 5.2659633393 5.3738143976 
5.4750190208 5.5683143056 5.6531654782 4.6087898617 4.4991390697 4.3857031936 4.2712800401 4.1588146215 4.0509635631 
3.94975894 3.8564636551 3.7716124825 4.8159880991 4.9256388911 5.0390747672 5.1534979207 5.2659633393 5.3738143976 
5.4750190208 5.5683143056 5.6531654782 1.5707963268 1.5707963268 1.5707963268 1.5707963268 1.5707963268 1.5707963268 
1.5707963268 1.5707963268 1.5707963268 1.6743954455 1.7840462375 1.8974821136 2.0119052671 2.1243706857 2.232221744 
2.3334263672 2.426721652 2.5115728246 1.4671972081 1.3575464161 1.24411054 1.1296873865 1.0172219679 0.90937090954 
0.80816628637 0.71487100155 0.63001982895 1.6743954455 1.7840462375 1.8974821136 2.0119052671 2.1243706857 2.232221744 
2.3334263672 2.426721652 2.5115728246 1.4671972081 1.3575464161 1.24411054 1.1296873865 1.0172219679 0.90937090954 
0.80816628637 0.71487100155 0.63001982895 3.6007720849 3.4966939854 3.3839471039 3.2645756454 3.1415926536 3.0186096618 
2.8992382033 2.7864913217 2.6824132222 5.8240058758 5.9280839753 6.0408308569 6.1602023154 6.2831853072 0.12298299178 
0.2423544503 0.35510133185 0.45917943135 6.0560271438 5.7885595667 5.9702140275 5.5125918794 5.6029703303 5.7885595667 
5.2659633393 5.2659633393 5.2659633393 5.2659633393 5.0674903122 5.0120975802 4.9155579264 4.7123889804 4.1588146215 
4.9155579264 4.8353719722 4.7123889804 4.5092200343 4.1588146215 3.6362183941 4.8004512023 4.7123889804 4.5894059886 
4.4126803806 4.1588146215 3.8218076305 3.4545639333 4.7123889804 4.6243267584 4.5092200343 4.3572876485 4.1588146215 
3.9121860814 3.6362183941 3.368750817 6.0174235957 5.9434319871 5.8263323547 5.8809213739 5.7674481418 5.6279784266 
5.8278025282 5.718968232 5.5891129425 5.4372443565 5.7823484065 5.678536687 5.5575666702 5.4192596322 5.2659633393 
5.743164462 5.6444075337 5.5314983644 5.4046708639 5.2659633393 5.1195510325 5.7091357773 5.6152775188 5.5096229709 
5.3926039573 5.2659633393 5.1329233157 4.9978930058 5.6793730533 5.5901633916 5.4910209005 5.3824597928 5.2659633393 
5.1440684722 5.0201624502 4.8979782167 5.5683143056 5.4750190208 5.4750190208 5.3738143976 5.3738143976 5.3738143976 
5.2659633393 5.2659633393 5.2659633393 5.2659633393 5.1534979207 5.1534979207 5.1534979207 5.1534979207 5.1534979207 
5.0390747672 5.0390747672 5.0390747672 5.0390747672 5.0390747672 5.0390747672 4.9256388911 4.9256388911 4.9256388911 
4.9256388911 4.9256388911 4.9256388911 4.9256388911 4.8159880991 4.8159880991 4.8159880991 4.8159880991 4.8159880991 
4.8159880991 4.8159880991 4.8159880991 4.6087898617 4.6087898617 4.4991390697 4.6087898617 4.4991390697 4.3857031936 
4.6087898617 4.4991390697 4.3857031936 4.2712800401 4.6087898617 4.4991390697 4.3857031936 4.2712800401 4.1588146215 
4.6087898617 4.4991390697 4.3857031936 4.2712800401 4.1588146215 4.0509635631 4.6087898617 4.4991390697 4.3857031936 
4.2712800401 4.1588146215 4.0509635631 3.94975894 4.6087898617 4.4991390697 4.3857031936 4.2712800401 4.1588146215 
4.0509635631 3.94975894 3.8564636551 4.526799744 4.4046155105 4.426884955 4.2807094886 4.2918546451 4.3052269283 
4.1588146215 4.1588146215 4.1588146215 4.1588146215 4.042318168 4.0321740035 4.0201070968 4.0055183285 3.9875336042 
3.9337570603 3.9151549899 3.8932795963 3.8672112905 3.8356650183 3.7967995342 3.8346145692 3.809500442 3.7803704271 
3.7462412737 3.7058097288 3.657329819 3.5984456061 3.7454049075 3.7156421835 3.6816134988 3.6424295543 3.5969754326 
3.5438565869 3.4813459737 3.4073543651 3.5642842451 3.4524645613 3.5233842518 3.3320300872 3.403123212 3.4773852225 
3.20576226 3.2746326772 3.348015857 3.4255060145 3.0774230472 3.1415926536 3.2112816139 3.2864685043 3.3668817272 
2.95115522 3.00855263 3.0719036933 3.1415926536 3.2178377658 3.3005964304 2.8307207459 2.8800620952 2.9351694502 
2.9967168029 3.0653475414 3.1415926536 3.225752376 2.718901062 2.7598010554 2.8058000847 2.8576792927 2.91630358 
2.9825888767 3.0574329311 3.1415926536 3.5642842451 3.5233842518 3.4524645613 3.4773852225 3.403123212 3.3320300872 
3.4255060145 3.348015857 3.2746326772 3.20576226 3.3668817272 3.2864685043 3.2112816139 3.1415926536 3.0774230472 
3.3005964304 3.2178377658 3.1415926536 3.0719036933 3.00855263 2.95115522 3.225752376 3.1415926536 3.0653475414 
2.9967168029 2.9351694502 2.8800620952 2.8307207459 3.1415926536 3.0574329311 2.9825888767 2.91630358 2.8576792927 
2.8058000847 2.7598010554 2.718901062 4.526799744 4.426884955 4.4046155105 4.3052269283 4.2918546451 4.2807094886 
4.1588146215 4.1588146215 4.1588146215 4.1588146215 3.9875336042 4.0055183285 4.0201070968 4.0321740035 4.042318168 
3.7967995342 3.8356650183 3.8672112905 3.8932795963 3.9151549899 3.9337570603 3.5984456061 3.657329819 3.7058097288 
3.7462412737 3.7803704271 3.809500442 3.8346145692 3.4073543651 3.4813459737 3.5438565869 3.5969754326 3.6424295543 
3.6816134988 3.7156421835 3.7454049075 4.7123889804 4.8004512023 4.6243267584 4.9155579264 4.7123889804 4.5092200343 
5.0674903122 4.8353719722 4.5894059886 4.3572876485 5.2659633393 5.0120975802 4.7123889804 4.4126803806 4.1588146215 
5.5125918794 5.2659633393 4.9155579264 4.5092200343 4.1588146215 3.9121860814 5.7885595667 5.6029703303 5.2659633393 
4.7123889804 4.1588146215 3.8218076305 3.6362183941 6.0560271438 5.9702140275 5.7885595667 5.2659633393 4.1588146215 
3.6362183941 3.4545639333 3.368750817 0.22715816343 0.49462574053 0.3129712797 0.77059342779 0.68021497688 0.49462574053 
1.0172219679 1.0172219679 1.0172219679 1.0172219679 1.2156949949 1.271087727 1.3676273807 1.5707963268 2.1243706857 
1.3676273807 1.447813335 1.5707963268 1.7739652728 2.1243706857 2.6469669131 1.4827341049 1.5707963268 1.6937793186 
1.8705049266 2.1243706857 2.4613776767 2.8286213739 1.5707963268 1.6588585487 1.7739652728 1.9258976586 2.1243706857 
2.3709992258 2.6469669131 2.9144344902 1.7563855631 1.8785697967 1.8563003522 2.0024758186 1.9913306621 1.9779583789 
2.1243706857 2.1243706857 2.1243706857 2.1243706857 2.2408671392 2.2510113037 2.2630782103 2.2776669786 2.295651703 
2.3494282469 2.3680303173 2.3899057108 2.4159740166 2.4475202889 2.486385773 2.448570738 2.4736848652 2.5028148801 
2.5369440334 2.5773755784 2.6258554882 2.6847397011 2.5377803997 2.5675431237 2.6015718084 2.6407557529 2.6862098746 
2.7393287203 2.8018393335 2.8758309421 1.6743954455 1.6743954455 1.7840462375 1.6743954455 1.7840462375 1.8974821136 
1.6743954455 1.7840462375 1.8974821136 2.0119052671 1.6743954455 1.7840462375 1.8974821136 2.0119052671 2.1243706857 
1.6743954455 1.7840462375 1.8974821136 2.0119052671 2.1243706857 2.232221744 1.6743954455 1.7840462375 1.8974821136 
2.0119052671 2.1243706857 2.232221744 2.3334263672 1.6743954455 1.7840462375 1.8974821136 2.0119052671 2.1243706857 
2.232221744 2.3334263672 2.426721652 1.4671972081 1.3575464161 1.4671972081 1.24411054 1.3575464161 1.4671972081 
1.1296873865 1.24411054 1.3575464161 1.4671972081 1.0172219679 1.1296873865 1.24411054 1.3575464161 1.4671972081 
0.90937090954 1.0172219679 1.1296873865 1.24411054 1.3575464161 1.4671972081 0.80816628637 0.90937090954 1.0172219679 
1.1296873865 1.24411054 1.3575464161 1.4671972081 0.71487100155 0.80816628637 0.90937090954 1.0172219679 1.1296873865 
1.24411054 1.3575464161 1.4671972081 0.60381225391 0.57404952988 0.69302191562 0.54002084522 0.66790778838 0.79216440667 
0.50083690068 0.63877777351 0.77356233629 0.90072551443 0.45538277901 0.60464862014 0.75168694275 0.89058134991 1.0172219679 
0.40226393329 0.56421707518 0.72561863695 0.87851444325 1.0172219679 1.139116835 0.33975332011 0.51573716537 0.69407236469 
0.86392567495 1.0172219679 1.1502619915 1.2630228569 0.26576171152 0.45685295248 0.6552068806 0.84594095064 1.0172219679 
1.1636342747 1.2852923014 1.3852070904 0.22715816343 0.3129712797 0.49462574053 0.49462574053 0.68021497688 0.77059342779 
1.0172219679 1.0172219679 1.0172219679 1.0172219679 2.1243706857 1.5707963268 1.3676273807 1.271087727 1.2156949949 
2.6469669131 2.1243706857 1.7739652728 1.5707963268 1.447813335 1.3676273807 2.8286213739 2.4613776767 2.1243706857 
1.8705049266 1.6937793186 1.5707963268 1.4827341049 2.9144344902 2.6469669131 2.3709992258 2.1243706857 1.9258976586 
1.7739652728 1.6588585487 1.5707963268 1.7563855631 1.8563003522 1.8785697967 1.9779583789 1.9913306621 2.0024758186 
2.1243706857 2.1243706857 2.1243706857 2.1243706857 2.295651703 2.2776669786 2.2630782103 2.2510113037 2.2408671392 
2.486385773 2.4475202889 2.4159740166 2.3899057108 2.3680303173 2.3494282469 2.6847397011 2.6258554882 2.5773755784 
2.5369440334 2.5028148801 2.4736848652 2.448570738 2.8758309421 2.8018393335 2.7393287203 2.6862098746 2.6407557529 
2.6015718084 2.5675431237 2.5377803997 5.8604937156 5.901393709 5.9723133995 5.9473927383 6.0216547488 6.0927478736 
5.9992719463 6.0767621038 6.1501452836 6.2190157008 6.0578962336 6.1383094565 6.2134963469 0 0.064169606361 
6.1241815303 6.206940195 6.2831853072 0.069688960264 0.13304002361 0.19043743361 6.1990255847 0 0.07624511221 
0.14487585072 0.20642320337 0.26153055843 0.3108719077 0 0.084159722458 0.15900377685 0.22528907359 0.28391336087 
0.3357925689 0.38179159818 0.42269159155 5.8604937156 5.9723133995 5.901393709 6.0927478736 6.0216547488 5.9473927383 
6.2190157008 6.1501452836 6.0767621038 5.9992719463 0.064169606361 0 6.2134963469 6.1383094565 6.0578962336 
0.19043743361 0.13304002361 0.069688960264 6.2831853072 6.206940195 6.1241815303 0.3108719077 0.26153055843 0.20642320337 
0.14487585072 0.07624511221 6.2831853072 6.1990255847 0.42269159155 0.38179159818 0.3357925689 0.28391336087 0.22528907359 
0.15900377685 0.084159722458 0 5.6793730533 5.7091357773 5.5901633916 5.743164462 5.6152775188 5.4910209005 
5.7823484065 5.6444075337 5.5096229709 5.3824597928 5.8278025282 5.678536687 5.5314983644 5.3926039573 5.2659633393 
5.8809213739 5.718968232 5.5575666702 5.4046708639 5.2659633393 5.1440684722 5.9434319871 5.7674481418 5.5891129425 
5.4192596322 5.2659633393 5.1329233157 5.0201624502 6.0174235957 5.8263323547 5.6279784266 5.4372443565 5.2659633393 
5.1195510325 4.9978930058 4.8979782167 1.3852070904 1.2852923014 1.2630228569 1.1636342747 1.1502619915 1.139116835 
1.0172219679 1.0172219679 1.0172219679 1.0172219679 0.84594095064 0.86392567495 0.87851444325 0.89058134991 0.90072551443 
0.6552068806 0.69407236469 0.72561863695 0.75168694275 0.77356233629 0.79216440667 0.45685295248 0.51573716537 0.56421707518 
0.60464862014 0.63877777351 0.66790778838 0.69302191562 0.26576171152 0.33975332011 0.40226393329 0.45538277901 0.50083690068 
0.54002084522 0.57404952988 0.60381225391 
_paraPhiHalf 1 1002 double
0 3.1415926536 0 3.1415926536 1.5707963268 1.5707963268 1.5707963268 1.5707963268 2.5880182947 
0.5535743589 2.5880182947 0.5535743589 0 0 0 0 3.1415926536 3.1415926536 
3.1415926536 3.1415926536 3.1415926536 0.17788134 0.38438696014 0.60631181711 0.82323535693 1.0172219679 1.1799687454 
1.3118704726 1.4175000338 1.5022335207 0.17788134 0.38438696014 0.60631181711 0.82323535693 1.0172219679 1.1799687454 
1.3118704726 1.4175000338 1.5022335207 0.093902416448 0.17615329733 0.2478725152 0.31035131605 0.36486382811 0.41257334776 
0.45449736604 0.4915044461 0.52432611754 0.093902416448 0.17615329733 0.2478725152 0.31035131605 0.36486382811 0.41257334776 
0.45449736604 0.4915044461 0.52432611754 2.9637113136 2.7572056934 2.5352808365 2.3183572967 2.1243706857 1.9616239082 
1.829722181 1.7240926197 1.6393591329 2.9637113136 2.7572056934 2.5352808365 2.3183572967 2.1243706857 1.9616239082 
1.829722181 1.7240926197 1.6393591329 3.0476902371 2.9654393563 2.8937201384 2.8312413375 2.7767288255 2.7290193058 
2.6870952876 2.6500882075 2.617266536 3.0476902371 2.9654393563 2.8937201384 2.8312413375 2.7767288255 2.7290193058 
2.6870952876 2.6500882075 2.617266536 0 0 0 0 3.1415926536 3.1415926536 
3.1415926536 3.1415926536 3.1415926536 0.17788134 0.38438696014 0.60631181711 0.82323535693 1.0172219679 1.1799687454 
1.3118704726 1.4175000338 1.5022335207 0.17788134 0.38438696014 0.60631181711 0.82323535693 1.0172219679 1.1799687454 
1.3118704726 1.4175000338 1.5022335207 0.093902416448 0.17615329733 0.2478725152 0.31035131605 0.36486382811 0.41257334776 
0.45449736604 0.4915044461 0.52432611754 0.093902416448 0.17615329733 0.2478725152 0.31035131605 0.36486382811 0.41257334776 
0.45449736604 0.4915044461 0.52432611754 2.9637113136 2.7572056934 2.5352808365 2.3183572967 2.1243706857 1.9616239082 
1.829722181 1.7240926197 1.6393591329 2.9637113136 2.7572056934 2.5352808365 2.3183572967 2.1243706857 1.9616239082 
1.829722181 1.7240926197 1.6393591329 3.0476902371 2.9654393563 2.8937201384 2.8312413375 2.7767288255 2.7290193058 
2.6870952876 2.6500882075 2.617266536 3.0476902371 2.9654393563 2.8937201384 2.8312413375 2.7767288255 2.7290193058 
2.6870952876 2.6500882075 2.617266536 1.5707963268 1.5707963268 1.5707963268 1.5707963268 1.5707963268 1.5707963268 
1.5707963268 1.5707963268 1.5707963268 1.6743954455 1.7840462375 1.8974821136 2.0119052671 2.1243706857 2.232221744 
2.3334263672 2.426721652 2.5115728246 1.4671972081 1.3575464161 1.24411054 1.1296873865 1.0172219679 0.90937090954 
0.80816628637 0.71487100155 0.63001982895 1.6743954455 1.7840462375 1.8974821136 2.0119052671 2.1243706857 2.232221744 
2.3334263672 2.426721652 2.5115728246 1.4671972081 1.3575464161 1.24411054 1.1296873865 1.0172219679 0.90937090954 
0.80816628637 0.71487100155 0.63001982895 1.5707963268 1.5707963268 1.5707963268 1.5707963268 1.5707963268 1.5707963268 
1.5707963268 1.5707963268 1.5707963268 1.6743954455 1.7840462375 1.8974821136 2.0119052671 2.1243706857 2.232221744 
2.3334263672 2.426721652 2.5115728246 1.4671972081 1.3575464161 1.24411054 1.1296873865 1.0172219679 0.90937090954 
0.80816628637 0.71487100155 0.63001982895 1.6743954455 1.7840462375 1.8974821136 2.0119052671 2.1243706857 2.232221744 
2.3334263672 2.426721652 2.5115728246 1.4671972081 1.3575464161 1.24411054 1.1296873865 1.0172219679 0.90937090954 
0.80816628637 0.71487100155 0.63001982895 2.6824132222 2.7864913217 2.8992382033 3.0186096618 3.1415926536 3.0186096618 
2.8992382033 2.7864913217 2.6824132222 0.45917943135 0.35510133185 0.2423544503 0.12298299178 0 0.12298299178 
0.2423544503 0.35510133185 0.45917943135 0.22715816343 0.49462574053 0.3129712797 0.77059342779 0.68021497688 0.49462574053 
1.0172219679 1.0172219679 1.0172219679 1.0172219679 1.2156949949 1.271087727 1.3676273807 1.5707963268 2.1243706857 
1.3676273807 1.447813335 1.5707963268 1.7739652728 2.1243706857 2.6469669131 1.4827341049 1.5707963268 1.6937793186 
1.8705049266 2.1243706857 2.4613776767 2.8286213739 1.5707963268 1.6588585487 1.7739652728 1.9258976586 2.1243706857 
2.3709992258 2.6469669131 2.9144344902 0.26576171152 0.33975332011 0.45685295248 0.40226393329 0.51573716537 0.6552068806 
0.45538277901 0.56421707518 0.69407236469 0.84594095064 0.50083690068 0.60464862014 0.72561863695 0.86392567495 1.0172219679 
0.54002084522 0.63877777351 0.75168694275 0.87851444325 1.0172219679 1.1636342747 0.57404952988 0.66790778838 0.77356233629 
0.89058134991 1.0172219679 1.1502619915 1.2852923014 0.60381225391 0.69302191562 0.79216440667 0.90072551443 1.0172219679 
1.139116835 1.2630228569 1.3852070904 0.71487100155 0.80816628637 0.80816628637 0.90937090954 0.90937090954 0.90937090954 
1.0172219679 1.0172219679 1.0172219679 1.0172219679 1.1296873865 1.1296873865 1.1296873865 1.1296873865 1.1296873865 
1.24411054 1.24411054 1.24411054 1.24411054 1.24411054 1.24411054 1.3575464161 1.3575464161 1.3575464161 
1.3575464161 1.3575464161 1.3575464161 1.3575464161 1.4671972081 1.4671972081 1.4671972081 1.4671972081 1.4671972081 
1.4671972081 1.4671972081 1.4671972081 1.6743954455 1.6743954455 1.7840462375 1.6743954455 1.7840462375 1.8974821136 
1.6743954455 1.7840462375 1.8974821136 2.0119052671 1.6743954455 1.7840462375 1.8974821136 2.0119052671 2.1243706857 
1.6743954455 1.7840462375 1.8974821136 2.0119052671 2.1243706857 2.232221744 1.6743954455 1.7840462375 1.8974821136 
2.0119052671 2.1243706857 2.232221744 2.3334263672 1.6743954455 1.7840462375 1.8974821136 2.0119052671 2.1243706857 
2.232221744 2.3334263672 2.426721652 1.7563855631 1.8785697967 1.8563003522 2.0024758186 1.9913306621 1.9779583789 
2.1243706857 2.1243706857 2.1243706857 2.1243706857 2.2408671392 2.2510113037 2.2630782103 2.2776669786 2.295651703 
2.3494282469 2.3680303173 2.3899057108 2.4159740166 2.4475202889 2.486385773 2.448570738 2.4736848652 2.5028148801 
2.5369440334 2.5773755784 2.6258554882 2.6847397011 2.5377803997 2.5675431237 2.6015718084 2.6407557529 2.6862098746 
2.7393287203 2.8018393335 2.8758309421 2.718901062 2.8307207459 2.7598010554 2.95115522 2.8800620952 2.8058000847 
3.0774230472 3.00855263 2.9351694502 2.8576792927 3.0774230472 3.1415926536 3.0719036933 2.9967168029 2.91630358 
2.95115522 3.00855263 3.0719036933 3.1415926536 3.0653475414 2.9825888767 2.8307207459 2.8800620952 2.9351694502 
2.9967168029 3.0653475414 3.1415926536 3.0574329311 2.718901062 2.7598010554 2.8058000847 2.8576792927 2.91630358 
2.9825888767 3.0574329311 3.1415926536 2.718901062 2.7598010554 2.8307207459 2.8058000847 2.8800620952 2.95115522 
2.8576792927 2.9351694502 3.00855263 3.0774230472 2.91630358 2.9967168029 3.0719036933 3.1415926536 3.0774230472 
2.9825888767 3.0653475414 3.1415926536 3.0719036933 3.00855263 2.95115522 3.0574329311 3.1415926536 3.0653475414 