# vtk DataFile Version 5.1
vtk output
ASCII
DATASET POLYDATA
POINTS 1002 float
-125.78 -112.615 88.7205 -126.834 -132.927 82.7656 -124.809 -113.401 93.6673 
-127.513 -136.203 90.5653 -121.957 -127.917 87.0568 -122.461 -129.753 90.964 
-134.336 -122.525 87.9411 -135.23 -124.482 92.9348 -119.968 -141.687 87.4371 
-111.516 -107.828 93.7027 -131.804 -138.827 86.3134 -126.583 -108.154 92.8939 
-126.379 -115.14 88.4326 -126.891 -118.096 88.1075 -127.278 -120.961 87.6063 
-127.524 -123.442 86.929 -127.66 -125.744 86.2324 -127.692 -128.034 85.5712 
-127.579 -129.996 84.8423 -127.334 -131.322 84.0429 -127.057 -132.173 83.317 
-125.293 -113.051 88.6068 -124.914 -113.947 88.5983 -124.749 -115.219 88.7062 
-124.73 -116.758 88.8053 -124.692 -118.655 88.7308 -124.554 -120.945 88.4383 
-124.263 -123.294 88.0137 -123.709 -125.289 87.5823 -122.887 -126.805 87.247 
-126.665 -113.875 88.6717 -127.543 -115.271 88.5915 -128.437 -116.563 88.481 
-129.37 -117.705 88.4245 -130.306 -118.838 88.447 -131.194 -119.923 88.427 
-132.051 -120.73 88.2784 -132.896 -121.278 88.0844 -133.682 -121.828 87.9633 
-124.672 -110.666 89.0167 -123.155 -109.116 89.5241 -121.232 -108.032 90.2654 
-119.096 -107.171 91.1209 -116.966 -106.387 91.9078 -114.946 -105.923 92.4925 
-113.181 -106.043 92.8417 -111.953 -106.626 93.0595 -111.433 -107.308 93.3212 
-125.666 -111.302 89.0548 -125.478 -110.336 89.4775 -125.246 -109.523 89.9187 
-125.097 -108.732 90.325 -125.13 -108.179 90.7192 -125.303 -108.062 91.1516 
-125.546 -108.138 91.6252 -125.855 -108.104 92.102 -126.22 -108.036 92.5371 
-126.099 -132.921 82.9556 -125.357 -132.757 83.2539 -124.612 -132.372 83.6434 
-123.911 -131.819 84.1056 -123.318 -131.127 84.6097 -122.795 -130.271 85.1032 
-122.282 -129.392 85.558 -121.883 -128.739 86.0099 -121.771 -128.328 86.5095 
-127.737 -132.384 82.9875 -128.71 -131.829 83.3719 -129.658 -131.324 83.9623 
-130.504 -130.808 84.7629 -131.238 -129.972 85.6387 -131.923 -128.535 86.3555 
-132.622 -126.681 86.8087 -133.317 -124.911 87.1244 -133.914 -123.536 87.4829 
-126.181 -133.906 82.4414 -125.496 -135.281 82.2824 -124.766 -136.995 82.3924 
-124.015 -138.711 82.8019 -123.292 -140.064 83.3965 -122.594 -141.004 84.078 
-121.869 -141.655 84.8776 -121.136 -141.997 85.7838 -120.481 -141.972 86.6691 
-127.243 -133.506 82.4363 -127.844 -134.395 82.2099 -128.625 -135.634 82.1217 
-129.396 -137.009 82.2425 -129.94 -138.087 82.6667 -130.297 -138.549 83.3719 
-130.681 -138.548 84.1795 -131.138 -138.522 84.9394 -131.54 -138.669 85.639 
-125.667 -115.128 93.3004 -126.466 -117.299 92.9175 -127.256 -119.742 92.5616 
-127.973 -122.3 92.228 -128.402 -125.147 91.9793 -128.413 -128.481 91.9062 
-128.145 -131.832 91.8863 -127.85 -134.337 91.6596 -127.651 -135.669 91.164 
-124.561 -113.673 93.3775 -124.403 -114.102 93.0085 -124.29 -114.811 92.6646 
-124.211 -116.025 92.4079 -124.28 -117.887 92.1136 -124.55 -120.336 91.6328 
-124.738 -123.133 91.0901 -124.442 -125.898 90.7731 -123.59 -128.191 90.78 
-125.757 -114.184 93.631 -126.893 -115.135 93.4703 -128.113 -116.39 93.294 
-129.307 -118.048 93.2654 -130.524 -119.91 93.4219 -131.833 -121.549 93.6209 
-133.091 -122.729 93.6932 -134.075 -123.514 93.5748 -134.751 -124.057 93.2986 
-123.597 -112.042 93.8059 -122.056 -110.736 93.8606 -120.157 -109.567 93.9969 
-118.08 -108.679 94.4814 -116.148 -108.182 95.3006 -114.538 -108.004 95.951 
-113.215 -107.958 95.9241 -112.182 -107.92 95.2678 -111.582 -107.87 94.4175 
-124.385 -112.438 94.0151 -123.907 -111.671 94.3678 -123.538 -110.922 94.7643 
-123.492 -109.901 95.1257 -123.806 -108.752 95.1923 -124.279 -108.063 94.8455 
-124.761 -108.029 94.3141 -125.295 -108.198 93.8316 -125.928 -108.209 93.384 
-126.578 -136.075 90.5802 -125.479 -135.856 90.6522 -124.411 -135.3 90.8373 
-123.598 -134.428 91.203 -123.05 -133.629 91.6741 -122.581 -133.138 92.0005 
-122.14 -132.694 91.9992 -121.913 -131.967 91.7203 -122.048 -130.94 91.3311 
-128.376 -136.104 90.9949 -129.214 -135.756 91.4578 -130.157 -134.856 91.7869 
-131.213 -133.307 91.9582 -132.243 -131.514 92.1865 -133.161 -129.998 92.5933 
-133.955 -128.776 92.9604 -134.569 -127.518 93.0688 -134.973 -126.06 92.9974 
-126.745 -136.372 90.0126 -125.721 -136.649 89.6213 -124.579 -137.332 89.4044 
-123.597 -138.417 89.2306 -122.893 -139.589 89.0302 -122.265 -140.512 88.8763 
-121.522 -141.075 88.7586 -120.769 -141.386 88.5094 -120.223 -141.584 88.0368 
-127.933 -136.55 90.199 -128.288 -137.06 89.8427 -128.599 -137.614 89.4842 
-129.012 -137.996 89.074 -129.605 -138.34 88.66 -130.258 -138.96 88.3321 
-130.828 -139.676 88.0036 -131.288 -139.945 87.5114 -131.625 -139.575 86.8877 
-121.618 -128.221 87.386 -121.393 -128.508 87.8428 -121.228 -128.674 88.4211 
-121.072 -128.737 89.0419 -121.046 -128.851 89.5749 -121.281 -129.096 89.9642 
-121.638 -129.382 90.2787 -121.908 -129.592 90.5786 -122.13 -129.706 90.8262 
-120.825 -128.924 86.6497 -119.847 -129.746 86.3566 -119.241 -130.894 86.2056 
-118.988 -132.586 86.2748 -118.938 -134.642 86.5479 -118.972 -136.792 86.8033 
-119.035 -138.777 86.8926 -119.154 -140.303 86.9547 -119.443 -141.233 87.1518 
-122.82 -126.277 87.7729 -123.262 -123.178 88.6155 -122.61 -118.91 89.4159 
-120.799 -114.928 90.0053 -118.618 -112.529 90.4716 -116.789 -111.42 91.0896 
-115.253 -110.482 91.8906 -113.749 -109.347 92.6269 -112.406 -108.379 93.1841 
-120.85 -131.251 91.4433 -119.355 -131.99 91.7529 -118.519 -132.724 91.4822 
-118.214 -134.267 90.7509 -117.888 -136.469 90.0953 -117.532 -138.408 89.6765 
-117.626 -139.623 89.2092 -118.266 -140.407 88.5954 -119.123 -141.087 87.9842 
-123.512 -127.223 90.6555 -123.874 -123.569 90.7421 -123.149 -119.3 91.127 
-121.461 -115.381 91.5627 -119.313 -112.537 92.0667 -117.168 -110.804 92.7852 
-115.263 -109.783 93.498 -113.671 -109.078 93.8397 -112.407 -108.454 93.8158 
-134.883 -122.515 88.2901 -135.347 -122.603 88.7081 -135.678 -122.655 89.2153 
-135.975 -122.522 89.8581 -136.334 -122.252 90.6334 -136.59 -122.115 91.4075 
-136.496 -122.339 92.0074 -136.101 -122.921 92.3976 -135.641 -123.698 92.6776 
-134.595 -123.997 87.7203 -134.629 -125.865 87.6311 -134.609 -128.086 87.5109 
-134.673 -130.361 87.1883 -134.579 -132.271 86.7814 -134.011 -133.646 86.5251 
-133.169 -134.756 86.401 -132.506 -135.995 86.2901 -132.122 -137.439 86.2343 
-134.174 -121.1 88.5059 -133.837 -119.332 89.063 -133.488 -117.204 89.3924 
-133.054 -115.185 89.6218 -132.265 -113.653 90.0778 -131.15 -112.316 90.7261 
-130.036 -110.822 91.2949 -129.007 -109.428 91.7855 -127.881 -108.543 92.3335 
-135.498 -125.947 92.5212 -135.666 -127.62 92.0336 -135.645 -129.534 91.4978 
-135.435 -131.508 90.9177 -135.057 -133.148 90.2429 -134.439 -134.32 89.4266 
-133.606 -135.392 88.5248 -132.811 -136.656 87.6671 -132.236 -137.913 86.9327 
-135.156 -122.492 93.1745 -134.977 -120.276 93.4023 -134.518 -118.103 93.4741 
-133.567 -116.303 93.3246 -132.191 -114.882 93.0727 -130.785 -113.433 92.8828 
-129.652 -111.7 92.8085 -128.706 -109.994 92.8201 -127.712 -108.778 92.8654 
-121.007 -142.119 87.2319 -122.326 -142.378 86.8564 -123.765 -142.343 86.2764 
-125.004 -141.795 85.6683 -125.985 -140.821 85.3235 -127.113 -140.072 85.3393 
-128.619 -140.008 85.5587 -130.124 -140.169 85.8136 -131.187 -139.818 86.0588 
-110.936 -107.303 94.1289 -110.979 -106.837 94.8549 -111.803 -106.246 95.6305 
-113.332 -105.631 95.846 -115.323 -105.462 95.2084 -117.581 -105.99 94.2444 
-120.023 -106.841 93.6286 -122.509 -107.493 93.3898 -124.77 -107.844 93.1914 
-125.96 -116.045 88.3368 -125.69 -117.392 88.3276 -126.502 -119.398 87.9875 
-125.564 -119.032 88.3552 -126.244 -121.001 87.8869 -126.861 -122.429 87.3982 
-125.373 -120.881 88.263 -125.97 -122.741 87.7229 -126.493 -124.016 87.1405 
-127.026 -124.917 86.6158 -124.977 -122.924 87.9471 -125.446 -124.512 87.4004 
-125.964 -125.572 86.7906 -126.471 -126.364 86.2267 -127.029 -127.19 85.8252 
-124.421 -124.912 87.4777 -124.691 -126.143 86.9435 -125.155 -126.96 86.3683 
-125.693 -127.627 85.7991 -126.245 -128.439 85.3587 -126.877 -129.321 85.0674 
-123.708 -126.474 87.0169 -123.849 -127.371 86.4929 -124.22 -128.041 85.9705 
-124.725 -128.65 85.4267 -125.274 -129.401 84.9393 -125.895 -130.271 84.573 
-126.603 -130.971 84.2896 -122.791 -127.55 86.683 -122.913 -128.161 86.1713 
-123.273 -128.8 85.6916 -123.745 -129.502 85.1894 -124.258 -130.238 84.6768 
-124.858 -131.001 84.2231 -125.564 -131.671 83.8536 -126.317 -132.064 83.5504 
-124.082 -111.008 88.9383 -122.471 -109.411 89.5135 -123.671 -111.803 89.0011 
-120.532 -108.292 90.2979 -122.042 -110.07 89.607 -123.543 -112.914 89.1617 
-118.469 -107.418 91.1057 -120.124 -108.849 90.3097 -121.938 -110.967 89.7045 
-123.631 -114.344 89.2582 -116.461 -106.788 91.7622 -118.128 -108.08 90.9373 
-120.025 -109.669 90.2252 -122.12 -112.26 89.7119 -123.812 -116.357 89.1776 
-114.666 -106.688 92.2087 -116.314 -107.844 91.4223 -118.104 -109.132 90.6521 
-120.287 -110.932 90.1068 -122.542 -114.297 89.6249 -123.978 -118.98 88.9177 
-113.311 -107.16 92.5047 -114.93 -108.196 91.8082 -116.583 -109.322 91.021 
-118.546 -110.525 90.4205 -120.964 -112.903 89.9987 -123.053 -117.082 89.4081 
-123.935 -121.776 88.5263 -112.569 -107.846 92.7969 -114.095 -108.838 92.1874 
-115.67 -109.934 91.4165 -117.359 -110.856 90.714 -119.528 -112.383 90.2505 
-121.867 -115.653 89.782 -123.356 -120.21 89.034 -123.529 -124.282 88.103 
-113.472 -109.304 93.2649 -114.855 -110.142 93.1796 -114.899 -110.495 92.5654 
-116.529 -110.982 92.7453 -116.334 -111.437 92.3291 -116.456 -111.671 91.6773 
-118.546 -112.334 92.0956 -118.112 -112.561 91.8842 -118.029 -112.883 91.3736 
-118.181 -112.85 90.8276 -120.791 -114.911 91.5 -120.24 -114.761 91.3702 
-119.962 -114.927 91.0142 -119.961 -115.046 90.5374 -120.223 -114.947 90.1892 
-122.737 -118.871 90.9942 -122.266 -118.526 90.8734 -121.873 -118.441 90.6475 
-121.712 -118.544 90.2617 -121.803 -118.602 89.8707 -122.116 -118.65 89.6094 
-123.668 -123.366 90.5918 -123.37 -123.095 90.4508 -122.982 -122.871 90.3006 
-122.693 -122.827 90.034 -122.639 -122.899 89.6338 -122.759 -122.955 89.2289 
[...]
POINT_DATA 1002
FIELD FieldData 4
_paraPhi 1 1002 double
6.2831853072 3.1415926536 6.2831853072 3.1415926536 4.7123889804 4.7123889804 1.5707963268 1.5707963268 3.6951670125 
5.7296109483 2.5880182947 0.5535743589 6.2831853072 6.2831853072 6.2831853072 6.2831853072 3.1415926536 3.1415926536 
3.1415926536 3.1415926536 3.1415926536 6.1053039672 5.898798347 5.6768734901 5.4599499503 5.2659633393 5.1032165617 
4.9713148346 4.8656852733 4.7809517865 0.17788134 0.38438696014 0.60631181711 0.82323535693 1.0172219679 1.1799687454 
1.3118704726 1.4175000338 1.5022335207 6.1892828907 6.1070320098 6.035312792 5.9728339911 5.9183214791 5.8706119594 
5.8286879411 5.7916808611 5.7588591896 0.093902416448 0.17615329733 0.2478725152 0.31035131605 0.36486382811 0.41257334776 
0.45449736604 0.4915044461 0.52432611754 3.3194739936 3.5259796137 3.7479044707 3.9648280105 4.1588146215 4.321561399 
4.4534631262 4.5590926874 4.6438261743 2.9637113136 2.7572056934 2.5352808365 2.3183572967 2.1243706857 1.9616239082 
1.829722181 1.7240926197 1.6393591329 3.23549507 3.3177459509 3.3894651688 3.4519439696 3.5064564817 3.5541660013 
3.5960900196 3.6330970997 3.6659187711 3.0476902371 2.9654393563 2.8937201384 2.8312413375 2.7767288255 2.7290193058 
2.6870952876 2.6500882075 2.617266536 6.2831853072 6.2831853072 6.2831853072 6.2831853072 3.1415926536 3.1415926536 
3.1415926536 3.1415926536 3.1415926536 6.1053039672 5.898798347 5.6768734901 5.4599499503 5.2659633393 5.1032165617 
4.9713148346 4.8656852733 4.7809517865 0.17788134 0.38438696014 0.60631181711 0.82323535693 1.0172219679 1.1799687454 
1.3118704726 1.4175000338 1.5022335207 6.1892828907 6.1070320098 6.035312792 5.9728339911 5.9183214791 5.8706119594 
5.8286879411 5.7916808611 5.7588591896 0.093902416448 0.17615329733 0.2478725152 0.31035131605 0.36486382811 0.41257334776 
0.45449736604 0.4915044461 0.52432611754 3.3194739936 3.5259796137 3.7479044707 3.9648280105 4.1588146215 4.321561399 
4.4534631262 4.5590926874 4.6438261743 2.9637113136 2.7572056934 2.5352808365 2.3183572967 2.1243706857 1.9616239082 
1.829722181 1.7240926197 1.6393591329 3.23549507 3.3177459509 3.3894651688 3.4519439696 3.5064564817 3.5541660013 
3.5960900196 3.6330970997 3.6659187711 3.0476902371 2.9654393563 2.8937201384 2.8312413375 2.7767288255 2.7290193058 
2.6870952876 2.6500882075 2.617266536 4.7123889804 4.7123889804 4.7123889804 4.7123889804 4.7123889804 4.7123889804 
4.7123889804 4.7123889804 4.7123889804 4.6087898617 4.4991390697 4.3857031936 4.2712800401 4.1588146215 4.0509635631 
3.94975894 3.8564636551 3.7716124825 4.8159880991 4.9256388911 5.0390747672 5.1534979207 5.2659633393 5.3738143976 
5.4750190208 5.5683143056 5.6531654782 4.6087898617 4.4991390697 4.3857031936 4.2712800401 4.1588146215 4.0509635631 
3.94975894 3.8564636551 3.7716124825 4.8159880991 4.9256388911 5.0390747672 5.1534979207 5.2659633393 5.3738143976 
5.4750190208 5.5683143056 5.6531654782 1.5707963268 1.5707963268 1.5707963268 1.5707963268 1.5707963268 1.5707963268 
1.5707963268 1.5707963268 1.5707963268 1.6743954455 1.7840462375 1.8974821136 2.0119052671 2.1243706857 2.232221744 
2.3334263672 2.426721652 2.5115728246 1.4671972081 1.3575464161 1.24411054 1.1296873865 1.0172219679 0.90937090954 
0.80816628637 0.71487100155 0.63001982895 1.6743954455 1.7840462375 1.8974821136 2.0119052671 2.1243706857 2.232221744 
2.3334263672 2.426721652 2.5115728246 1.4671972081 1.3575464161 1.24411054 1.1296873865 1.0172219679 0.90937090954 
0.80816628637 0.71487100155 0.63001982895 3.6007720849 3.4966939854 3.3839471039 3.2645756454 3.1415926536 3.0186096618 
2.8992382033 2.7864913217 2.6824132222 5.8240058758 5.9280839753 6.0408308569 6.1602023154 6.2831853072 0.12298299178 
0.2423544503 0.35510133185 0.45917943135 6.0560271438 5.7885595667 5.9702140275 5.5125918794 5.6029703303 5.7885595667 
5.2659633393 5.2659633393 5.2659633393 5.2659633393 5.0674903122 5.0120975802 4.9155579264 4.7123889804 4.1588146215 
4.9155579264 4.8353719722 4.7123889804 4.5092200343 4.1588146215 3.6362183941 4.8004512023 4.7123889804 4.5894059886 
4.4126803806 4.1588146215 3.8218076305 3.4545639333 4.7123889804 4.6243267584 4.5092200343 4.3572876485 4.1588146215 
3.9121860814 3.6362183941 3.368750817 6.0174235957 5.9434319871 5.8263323547 5.8809213739 5.7674481418 5.6279784266 
5.8278025282 5.718968232 5.5891129425 5.4372443565 5.7823484065 5.678536687 5.5575666702 5.4192596322 5.2659633393 
5.743164462 5.6444075337 5.5314983644 5.4046708639 5.2659633393 5.1195510325 5.7091357773 5.6152775188 5.5096229709 
5.3926039573 5.2659633393 5.1329233157 4.9978930058 5.6793730533 5.5901633916 5.4910209005 5.3824597928 5.2659633393 
5.1440684722 5.0201624502 4.8979782167 5.5683143056 5.4750190208 5.4750190208 5.3738143976 5.3738143976 5.3738143976 
5.2659633393 5.2659633393 5.2659633393 5.2659633393 5.1534979207 5.1534979207 5.1534979207 5.1534979207 5.1534979207 
5.0390747672 5.0390747672 5.0390747672 5.0390747672 5.0390747672 5.0390747672 4.9256388911 4.9256388911 4.9256388911 
4.9256388911 4.9256388911 4.9256388911 4.9256388911 4.8159880991 4.8159880991 4.8159880991 4.8159880991 4.8159880991 
4.8159880991 4.8159880991 4.8159880991 4.6087898617 4.6087898617 4.4991390697 4.6087898617 4.4991390697 4.3857031936 
4.6087898617 4.4991390697 4.3857031936 4.2712800401 4.6087898617 4.4991390697 4.3857031936 4.2712800401 4.1588146215 
4.6087898617 4.4991390697 4.3857031936 4.2712800401 4.1588146215 4.0509635631 4.6087898617 4.4991390697 4.3857031936 
4.2712800401 4.1588146215 4.0509635631 3.94975894 4.6087898617 4.4991390697 4.3857031936 4.2712800401 4.1588146215 
4.0509635631 3.94975894 3.8564636551 4.526799744 4.4046155105 4.426884955 4.2807094886 4.2918546451 4.3052269283 
4.1588146215 4.1588146215 4.1588146215 4.1588146215 4.042318168 4.0321740035 4.0201070968 4.0055183285 3.9875336042 
3.9337570603 3.9151549899 3.8932795963 3.8672112905 3.8356650183 3.7967995342 3.8346145692 3.809500442 3.7803704271 
3.7462412737 3.7058097288 3.657329819 3.5984456061 3.7454049075 3.7156421835 3.6816134988 3.6424295543 3.5969754326 
3.5438565869 3.4813459737 3.4073543651 3.5642842451 3.4524645613 3.5233842518 3.3320300872 3.403123212 3.4773852225 
3.20576226 3.2746326772 3.348015857 3.4255060145 3.0774230472 3.1415926536 3.2112816139 3.2864685043 3.3668817272 
2.95115522 3.00855263 3.0719036933 3.1415926536 3.2178377658 3.3005964304 2.8307207459 2.8800620952 2.9351694502 
2.9967168029 3.0653475414 3.1415926536 3.225752376 2.718901062 2.7598010554 2.8058000847 2.8576792927 2.91630358 
2.9825888767 3.0574329311 3.1415926536 3.5642842451 3.5233842518 3.4524645613 3.4773852225 3.403123212 3.3320300872 
3.4255060145 3.348015857 3.2746326772 3.20576226 3.3668817272 3.2864685043 3.2112816139 3.1415926536 3.0774230472 
3.3005964304 3.2178377658 3.1415926536 3.0719036933 3.00855263 2.95115522 3.225752376 3.1415926536 3.0653475414 
2.9967168029 2.9351694502 2.8800620952 2.8307207459 3.1415926536 3.0574329311 2.9825888767 2.91630358 2.8576792927 
2.8058000847 2.7598010554 2.718901062 4.526799744 4.426884955 4.4046155105 4.3052269283 4.2918546451 4.2807094886 
4.1588146215 4.1588146215 4.1588146215 4.1588146215 3.9875336042 4.0055183285 4.0201070968 4.0321740035 4.042318168 
3.7967995342 3.8356650183 3.8672112905 3.8932795963 3.9151549899 3.9337570603 3.5984456061 3.657329819 3.7058097288 
3.7462412737 3.7803704271 3.809500442 3.8346145692 3.4073543651 3.4813459737 3.5438565869 3.5969754326 3.6424295543 
3.6816134988 3.7156421835 3.7454049075 4.7123889804 4.8004512023 4.6243267584 4.9155579264 4.7123889804 4.5092200343 
5.0674903122 4.8353719722 4.5894059886 4.3572876485 5.2659633393 5.0120975802 4.7123889804 4.4126803806 4.1588146215 
5.5125918794 5.2659633393 4.9155579264 4.5092200343 4.1588146215 3.9121860814 5.7885595667 5.6029703303 5.2659633393 
4.7123889804 4.1588146215 3.8218076305 3.6362183941 6.0560271438 5.9702140275 5.7885595667 5.2659633393 4.1588146215 
3.6362183941 3.4545639333 3.368750817 0.22715816343 0.49462574053 0.3129712797 0.77059342779 0.68021497688 0.49462574053 
1.0172219679 1.0172219679 1.0172219679 1.0172219679 1.2156949949 1.271087727 1.3676273807 1.5707963268 2.1243706857 
1.3676273807 1.447813335 1.5707963268 1.7739652728 2.1243706857 2.6469669131 1.4827341049 1.5707963268 1.6937793186 
1.8705049266 2.1243706857 2.4613776767 2.8286213739 1.5707963268 1.6588585487 1.7739652728 1.9258976586 2.1243706857 
2.3709992258 2.6469669131 2.9144344902 1.7563855631 1.8785697967 1.8563003522 2.0024758186 1.9913306621 1.9779583789 
2.1243706857 2.1243706857 2.1243706857 2.1243706857 2.2408671392 2.2510113037 2.2630782103 2.2776669786 2.295651703 
2.3494282469 2.3680303173 2.3899057108 2.4159740166 2.4475202889 2.486385773 2.448570738 2.4736848652 2.5028148801 
2.5369440334 2.5773755784 2.6258554882 2.6847397011 2.5377803997 2.5675431237 2.6015718084 2.6407557529 2.6862098746 
2.7393287203 2.8018393335 2.8758309421 1.6743954455 1.6743954455 1.7840462375 1.6743954455 1.7840462375 1.8974821136 
1.6743954455 1.7840462375 1.8974821136 2.0119052671 1.6743954455 1.7840462375 1.8974821136 2.0119052671 2.1243706857 
1.6743954455 1.7840462375 1.8974821136 2.0119052671 2.1243706857 2.232221744 1.6743954455 1.7840462375 1.8974821136 
2.0119052671 2.1243706857 2.232221744 2.3334263672 1.6743954455 1.7840462375 1.8974821136 2.0119052671 2.1243706857 
2.232221744 2.3334263672 2.426721652 1.4671972081 1.3575464161 1.4671972081 1.24411054 1.3575464161 1.4671972081 
1.1296873865 1.24411054 1.3575464161 1.4671972081 1.0172219679 1.1296873865 1.24411054 1.3575464161 1.4671972081 
0.90937090954 1.0172219679 1.1296873865 1.24411054 1.3575464161 1.4671972081 0.80816628637 0.90937090954 1.0172219679 
1.1296873865 1.24411054 1.3575464161 1.4671972081 0.71487100155 0.80816628637 0.90937090954 1.0172219679 1.1296873865 
1.24411054 1.3575464161 1.4671972081 0.60381225391 0.57404952988 0.69302191562 0.54002084522 0.66790778838 0.79216440667 
0.50083690068 0.63877777351 0.77356233629 0.90072551443 0.45538277901 0.60464862014 0.75168694275 0.89058134991 1.0172219679 
0.40226393329 0.56421707518 0.72561863695 0.87851444325 1.0172219679 1.139116835 0.33975332011 0.51573716537 0.69407236469 
0.86392567495 1.0172219679 1.1502619915 1.2630228569 0.26576171152 0.45685295248 0.6552068806 0.84594095064 1.0172219679 
1.1636342747 1.2852923014 1.3852070904 0.22715816343 0.3129712797 0.49462574053 0.49462574053 0.68021497688 0.77059342779 
1.0172219679 1.0172219679 1.0172219679 1.0172219679 2.1243706857 1.5707963268 1.3676273807 1.271087727 1.2156949949 
2.6469669131 2.1243706857 1.7739652728 1.5707963268 1.447813335 1.3676273807 2.8286213739 2.4613776767 2.1243706857 
1.8705049266 1.6937793186 1.5707963268 1.4827341049 2.9144344902 2.6469669131 2.3709992258 2.1243706857 1.9258976586 
1.7739652728 1.6588585487 1.5707963268 1.7563855631 1.8563003522 1.8785697967 1.9779583789 1.9913306621 2.0024758186 
2.1243706857 2.1243706857 2.1243706857 2.1243706857 2.295651703 2.2776669786 2.2630782103 2.2510113037 2.2408671392 
2.486385773 2.4475202889 2.4159740166 2.3899057108 2.3680303173 2.3494282469 2.6847397011 2.6258554882 2.5773755784 
2.5369440334 2.5028148801 2.4736848652 2.448570738 2.8758309421 2.8018393335 2.7393287203 2.6862098746 2.6407557529 
2.6015718084 2.5675431237 2.5377803997 5.8604937156 5.901393709 5.9723133995 5.9473927383 6.0216547488 6.0927478736 
5.9992719463 6.0767621038 6.1501452836 6.2190157008 6.0578962336 6.1383094565 6.2134963469 0 0.064169606361 
6.1241815303 6.206940195 6.2831853072 0.069688960264 0.13304002361 0.19043743361 6.1990255847 0 0.07624511221 
0.14487585072 0.20642320337 0.26153055843 0.3108719077 0 0.084159722458 0.15900377685 0.22528907359 0.28391336087 
0.3357925689 0.38179159818 0.42269159155 5.8604937156 5.9723133995 5.901393709 6.0927478736 6.0216547488 5.9473927383 
6.2190157008 6.1501452836 6.0767621038 5.9992719463 0.064169606361 0 6.2134963469 6.1383094565 6.0578962336 
0.19043743361 0.13304002361 0.069688960264 6.2831853072 6.206940195 6.1241815303 0.3108719077 0.26153055843 0.20642320337 
0.14487585072 0.07624511221 6.2831853072 6.1990255847 0.42269159155 0.38179159818 0.3357925689 0.28391336087 0.22528907359 
0.15900377685 0.084159722458 0 5.6793730533 5.7091357773 5.5901633916 5.743164462 5.6152775188 5.4910209005 
5.7823484065 5.6444075337 5.5096229709 5.3824597928 5.8278025282 5.678536687 5.5314983644 5.3926039573 5.2659633393 
5.8809213739 5.718968232 5.5575666702 5.4046708639 5.2659633393 5.1440684722 5.9434319871 5.7674481418 5.5891129425 
5.4192596322 5.2659633393 5.1329233157 5.0201624502 6.0174235957 5.8263323547 5.6279784266 5.4372443565 5.2659633393 
5.1195510325 4.9978930058 4.8979782167 1.3852070904 1.2852923014 1.2630228569 1.1636342747 1.1502619915 1.139116835 
1.0172219679 1.0172219679 1.0172219679 1.0172219679 0.84594095064 0.86392567495 0.87851444325 0.89058134991 0.90072551443 
0.6552068806 0.69407236469 0.72561863695 0.75168694275 0.77356233629 0.79216440667 0.45685295248 0.51573716537 0.56421707518 
0.60464862014 0.63877777351 0.66790778838 0.69302191562 0.26576171152 0.33975332011 0.40226393329 0.45538277901 0.50083690068 
0.54002084522 0.57404952988 0.60381225391 
_paraPhiHalf 1 1002 double
0 3.1415926536 0 3.1415926536 1.5707963268 1.5707963268 1.5707963268 1.5707963268 2.5880182947 
0.5535743589 2.5880182947 0.5535743589 0 0 0 0 3.1415926536 3.1415926536 
3.1415926536 3.1415926536 3.1415926536 0.17788134 0.38438696014 0.60631181711 0.82323535693 1.0172219679 1.1799687454 
1.3118704726 1.4175000338 1.5022335207 0.17788134 0.38438696014 0.60631181711 0.82323535693 1.0172219679 1.1799687454 
1.3118704726 1.4175000338 1.5022335207 0.093902416448 0.17615329733 0.2478725152 0.31035131605 0.36486382811 0.41257334776 
0.45449736604 0.4915044461 0.52432611754 0.093902416448 0.17615329733 0.2478725152 0.31035131605 0.36486382811 0.41257334776 
0.45449736604 0.4915044461 0.52432611754 2.9637113136 2.7572056934 2.5352808365 2.3183572967 2.1243706857 1.9616239082 
1.829722181 1.7240926197 1.6393591329 2.9637113136 2.7572056934 2.5352808365 2.3183572967 2.1243706857 1.9616239082 
1.829722181 1.7240926197 1.6393591329 3.0476902371 2.9654393563 2.8937201384 2.8312413375 2.7767288255 2.7290193058 
2.6870952876 2.6500882075 2.617266536 3.0476902371 2.9654393563 2.8937201384 2.8312413375 2.7767288255 2.7290193058 
2.6870952876 2.6500882075 2.617266536 0 0 0 0 3.1415926536 3.1415926536 
3.1415926536 3.1415926536 3.1415926536 0.17788134 0.38438696014 0.60631181711 0.82323535693 1.0172219679 1.1799687454 
1.3118704726 1.4175000338 1.5022335207 0.17788134 0.38438696014 0.60631181711 0.82323535693 1.0172219679 1.1799687454 
1.3118704726 1.4175000338 1.5022335207 0.093902416448 0.17615329733 0.2478725152 0.31035131605 0.36486382811 0.41257334776 
0.45449736604 0.4915044461 0.52432611754 0.093902416448 0.17615329733 0.2478725152 0.31035131605 0.36486382811 0.41257334776 
0.45449736604 0.4915044461 0.52432611754 2.9637113136 2.7572056934 2.5352808365 2.3183572967 2.1243706857 1.9616239082 
1.829722181 1.7240926197 1.6393591329 2.9637113136 2.7572056934 2.5352808365 2.3183572967 2.1243706857 1.9616239082 
1.829722181 1.7240926197 1.6393591329 3.0476902371 2.9654393563 2.8937201384 2.8312413375 2.7767288255 2.7290193058 
2.6870952876 2.6500882075 2.617266536 3.0476902371 2.9654393563 2.8937201384 2.8312413375 2.7767288255 2.7290193058 
2.6870952876 2.6500882075 2.617266536 1.5707963268 1.5707963268 1.5707963268 1.5707963268 1.5707963268 1.5707963268 
1.5707963268 1.5707963268 1.5707963268 1.6743954455 1.7840462375 1.8974821136 2.0119052671 2.1243706857 2.232221744 
2.3334263672 2.426721652 2.5115728246 1.4671972081 1.3575464161 1.24411054 1.1296873865 1.0172219679 0.90937090954 
0.80816628637 0.71487100155 0.63001982895 1.6743954455 1.7840462375 1.8974821136 2.0119052671 2.1243706857 2.232221744 
2.3334263672 2.426721652 2.5115728246 1.4671972081 1.3575464161 1.24411054 1.1296873865 1.0172219679 0.90937090954 
0.80816628637 0.71487100155 0.63001982895 1.5707963268 1.5707963268 1.5707963268 1.5707963268 1.5707963268 1.5707963268 
1.5707963268 1.5707963268 1.5707963268 1.6743954455 1.7840462375 1.8974821136 2.0119052671 2.1243706857 2.232221744 
2.3334263672 2.426721652 2.5115728246 1.4671972081 1.3575464161 1.24411054 1.1296873865 1.0172219679 0.90937090954 
0.80816628637 0.71487100155 0.63001982895 1.6743954455 1.7840462375 1.8974821136 2.0119052671 2.1243706857 2.232221744 
2.3334263672 2.426721652 2.5115728246 1.4671972081 1.3575464161 1.24411054 1.1296873865 1.0172219679 0.90937090954 
0.80816628637 0.71487100155 0.63001982895 2.6824132222 2.7864913217 2.8992382033 3.0186096618 3.1415926536 3.0186096618 
2.8992382033 2.7864913217 2.6824132222 0.45917943135 0.35510133185 0.2423544503 0.12298299178 0 0.12298299178 
0.2423544503 0.35510133185 0.45917943135 0.22715816343 0.49462574053 0.3129712797 0.77059342779 0.68021497688 0.49462574053 
1.0172219679 1.0172219679 1.0172219679 1.0172219679 1.2156949949 1.271087727 1.3676273807 1.5707963268 2.1243706857 
1.3676273807 1.447813335 1.5707963268 1.7739652728 2.1243706857 2.6469669131 1.4827341049 1.5707963268 1.6937793186 
1.8705049266 2.1243706857 2.4613776767 2.8286213739 1.5707963268 1.6588585487 1.7739652728 1.9258976586 2.1243706857 
2.3709992258 2.6469669131 2.9144344902 0.26576171152 0.33975332011 0.45685295248 0.40226393329 0.51573716537 0.6552068806 
0.45538277901 0.56421707518 0.69407236469 0.84594095064 0.50083690068 0.60464862014 0.72561863695 0.86392567495 1.0172219679 
0.54002084522 0.63877777351 0.75168694275 0.87851444325 1.0172219679 1.1636342747 0.57404952988 0.66790778838 0.77356233629 
0.89058134991 1.0172219679 1.1502619915 1.2852923014 0.60381225391 0.69302191562 0.79216440667 0.90072551443 1.0172219679 
1.139116835 1.2630228569 1.3852070904 0.71487100155 0.80816628637 0.80816628637 0.90937090954 0.90937090954 0.90937090954 
1.0172219679 1.0172219679 1.0172219679 1.0172219679 1.1296873865 1.1296873865 1.1296873865 1.1296873865 1.1296873865 
1.24411054 1.24411054 1.24411054 1.24411054 1.24411054 1.24411054 1.3575464161 1.3575464161 1.3575464161 
1.3575464161 1.3575464161 1.3575464161 1.3575464161 1.4671972081 1.4671972081 1.4671972081 1.4671972081 1.4671972081 
1.4671972081 1.4671972081 1.4671972081 1.6743954455 1.6743954455 1.7840462375 1.6743954455 1.7840462375 1.8974821136 
1.6743954455 1.7840462375 1.8974821136 2.0119052671 1.6743954455 1.7840462375 1.8974821136 2.0119052671 2.1243706857 
1.6743954455 1.7840462375 1.8974821136 2.0119052671 2.1243706857 2.232221744 1.6743954455 1.7840462375 1.8974821136 
2.0119052671 2.1243706857 2.232221744 2.3334263672 1.6743954455 1.7840462375 1.8974821136 2.0119052671 2.1243706857 
2.232221744 2.3334263672 2.426721652 1.7563855631 1.8785697967 1.8563003522 2.0024758186 1.9913306621 1.9779583789 
2.1243706857 2.1243706857 2.1243706857 2.1243706857 2.2408671392 2.2510113037 2.2630782103 2.2776669786 2.295651703 
2.3494282469 2.3680303173 2.3899057108 2.4159740166 2.4475202889 2.486385773 2.448570738 2.4736848652 2.5028148801 
2.5369440334 2.5773755784 2.6258554882 2.6847397011 2.5377803997 2.5675431237 2.6015718084 2.6407557529 2.6862098746 
2.7393287203 2.8018393335 2.8758309421 2.718901062 2.8307207459 2.7598010554 2.95115522 2.8800620952 2.8058000847 
3.0774230472 3.00855263 2.9351694502 2.8576792927 3.0774230472 3.1415926536 3.0719036933 2.9967168029 2.91630358 
2.95115522 3.00855263 3.0719036933 3.1415926536 3.0653475414 2.9825888767 2.8307207459 2.8800620952 2.9351694502 
2.9967168029 3.0653475414 3.1415926536 3.0574329311 2.718901062 2.7598010554 2.8058000847 2.8576792927 2.91630358 
2.9825888767 3.0574329311 3.1415926536 2.718901062 2.7598010554 2.8307207459 2.8058000847 2.8800620952 2.95115522 
2.8576792927 2.9351694502 3.00855263 3.0774230472 2.91630358 2.9967168029 3.0719036933 3.1415926536 3.0774230472 
2.9825888767 3.0653475414 3.1415926536 3.0719036933 3.00855263 2.95115522 3.0574329311 3.1415926536 3.0653475414 