# vtk DataFile Version 5.1
vtk output
ASCII
DATASET POLYDATA
POINTS 1002 float
0.0424598 0.4831 0.463956 -0.163762 -0.76751 -0.133778 0.0136266 0.572662 0.198203 
-0.0531099 -0.438791 -0.459033 -0.440969 -0.0363414 0.0483046 -0.406209 0.112861 -0.130057 
0.0604945 -0.110473 0.0256278 0.111285 -0.0767075 -0.106017 -0.329034 -0.880643 -0.461445 
0.0720162 0.746997 0.617787 0.246884 -1.06329 -0.444297 0.655782 0.709639 0.613979 
-0.00934061 0.419901 0.389178 -0.0564842 0.3521 0.30538 -0.100695 0.269048 0.216305 
-0.141315 0.158305 0.126561 -0.173119 0.0173592 0.0461804 -0.192016 -0.153597 -0.0111246 
-0.19797 -0.349427 -0.0434502 -0.192527 -0.540209 -0.0660502 -0.179216 -0.684781 -0.0949323 
-0.00166116 0.46143 0.429164 -0.0478847 0.444772 0.387444 -0.0972858 0.43005 0.338646 
-0.149582 0.4004 0.285112 -0.204522 0.340487 0.232093 -0.262458 0.256995 0.184884 
-0.319868 0.170117 0.145321 -0.36981 0.091561 0.11117 -0.409305 0.0227835 0.0791707 
0.0516334 0.467294 0.448678 0.0594358 0.44824 0.423763 0.06457 0.419616 0.389361 
0.064436 0.377042 0.348375 0.0592106 0.324751 0.30151 0.0528055 0.268758 0.245697 
0.0485086 0.203211 0.182175 0.0475228 0.115979 0.120059 0.0511178 0.00674987 0.0675848 
0.0712647 0.5334 0.512367 0.101017 0.583943 0.556642 0.126996 0.61988 0.598559 
0.141447 0.631528 0.642353 0.136572 0.63231 0.68461 0.115443 0.64717 0.711494 
0.0941068 0.681533 0.712315 0.0838871 0.717973 0.690199 0.0800267 0.740272 0.65591 
0.112361 0.537015 0.528853 0.201083 0.585403 0.597161 0.300713 0.617123 0.662012 
0.398643 0.632342 0.71398 0.48861 0.636672 0.747271 0.570714 0.635225 0.757337 
0.63905 0.638897 0.738414 0.679864 0.657441 0.695504 0.684163 0.685386 0.648249 
-0.20619 -0.727944 -0.117424 -0.249917 -0.686116 -0.0965865 -0.291024 -0.644048 -0.0718808 
-0.327096 -0.586965 -0.0497513 -0.357096 -0.499048 -0.0357751 -0.381887 -0.390513 -0.0260519 
-0.404164 -0.287701 -0.0119402 -0.423897 -0.200158 0.0084253 -0.437003 -0.118807 0.0299438 
-0.132793 -0.762211 -0.123375 -0.103665 -0.736454 -0.11594 -0.0762024 -0.684495 -0.110096 
-0.0494598 -0.613437 -0.101845 -0.0257905 -0.535168 -0.091208 -0.00861005 -0.452265 -0.0799176 
0.00477762 -0.362662 -0.0635615 0.0206753 -0.27177 -0.0374388 0.0404328 -0.187342 -0.00534993 
-0.176661 -0.789881 -0.171811 -0.194584 -0.800131 -0.216427 -0.214087 -0.817684 -0.259147 
-0.231029 -0.852114 -0.292156 -0.24765 -0.89533 -0.316902 -0.269784 -0.93286 -0.343712 
-0.295331 -0.953885 -0.378788 -0.315463 -0.951525 -0.416203 -0.325901 -0.924838 -0.44545 
-0.127893 -0.811231 -0.173885 -0.0892431 -0.828937 -0.222861 -0.0453308 -0.834732 -0.27786 
0.00524285 -0.8559 -0.330188 0.0543027 -0.903529 -0.366213 0.0935714 -0.960853 -0.380854 
0.129204 -1.00959 -0.387033 0.170452 -1.04564 -0.40042 0.213313 -1.06595 -0.422281 
-0.0218012 0.495193 0.124175 -0.0525787 0.422774 0.0398773 -0.0733832 0.333623 -0.0431823 
-0.0859085 0.198995 -0.110689 -0.0945689 0.0262643 -0.162567 -0.0970839 -0.137474 -0.215027 
-0.0894754 -0.256081 -0.279143 -0.0755196 -0.332398 -0.348387 -0.0623797 -0.387818 -0.4103 
-0.0215117 0.545578 0.163814 -0.0621118 0.518483 0.121851 -0.106797 0.493869 0.0736494 
-0.152474 0.46877 0.0248426 -0.198121 0.432708 -0.0183454 -0.245365 0.379815 -0.053751 
-0.293477 0.315969 -0.0817454 -0.337992 0.248222 -0.102736 -0.375484 0.17924 -0.118083 
0.0239414 0.545591 0.186198 0.0342046 0.510612 0.170523 0.0442184 0.468509 0.148278 
0.0523153 0.423548 0.117008 0.058135 0.373807 0.0780002 0.0629986 0.304315 0.0372734 
0.0677437 0.207136 0.000224437 0.0746816 0.099062 -0.03397 0.0884862 0.00259863 -0.0692434 
0.0291893 0.641057 0.248923 0.0442991 0.709516 0.305473 0.0602125 0.765071 0.366266 
0.0781389 0.800493 0.425852 0.0944698 0.815349 0.48219 0.105961 0.810632 0.535304 
0.113828 0.791438 0.578126 0.115121 0.7698 0.602988 0.101754 0.755218 0.613246 
0.0591152 0.648058 0.259502 0.113642 0.736732 0.322084 0.183281 0.818498 0.390697 
0.269089 0.863144 0.468609 0.357484 0.855158 0.54588 0.433346 0.813949 0.601878 
0.499382 0.774769 0.625398 0.563989 0.751488 0.624936 0.62083 0.73341 0.617336 
-0.091813 -0.415509 -0.437401 -0.131667 -0.38989 -0.404474 -0.172966 -0.35474 -0.363475 
-0.21821 -0.304384 -0.321878 -0.266597 -0.238826 -0.285171 -0.311653 -0.162917 -0.252553 
-0.347712 -0.0842157 -0.220797 -0.374388 -0.01033 -0.189134 -0.393479 0.055065 -0.158653 
-0.0187762 -0.432056 -0.445365 0.0160567 -0.423006 -0.426472 0.0479657 -0.404194 -0.404721 
0.0751382 -0.377267 -0.376547 0.0960394 -0.35136 -0.337455 0.108614 -0.326435 -0.291373 
0.113495 -0.290269 -0.245575 0.113993 -0.234039 -0.200676 0.11262 -0.159993 -0.153947 
-0.0705598 -0.482259 -0.488401 -0.0914278 -0.54064 -0.509916 -0.116786 -0.607042 -0.524002 
-0.147298 -0.666613 -0.535662 -0.181186 -0.716118 -0.545907 -0.2159 -0.766997 -0.548247 
-0.249645 -0.819415 -0.538508 -0.280357 -0.857863 -0.519213 -0.306612 -0.875555 -0.493178 
-0.0242024 -0.491888 -0.492655 0.0072734 -0.559332 -0.520859 0.0432789 -0.632593 -0.544697 
0.0844681 -0.69761 -0.563772 0.125651 -0.757634 -0.573429 0.160357 -0.830885 -0.56992 
0.188987 -0.915955 -0.554379 0.214668 -0.988936 -0.527928 0.235446 -1.03621 -0.490121 
-0.459092 -0.0145804 0.0385543 -0.478451 0.0162921 0.0268355 -0.498696 0.0571668 0.0134363 
-0.51564 0.104427 -0.00509873 -0.521631 0.144001 -0.0329895 -0.511355 0.157333 -0.065936 
-0.487578 0.14302 -0.0928288 -0.45861 0.121424 -0.109198 -0.430916 0.111039 -0.119924 
-0.467903 -0.143171 0.00589378 -0.486313 -0.248718 -0.0401747 -0.492112 -0.351351 -0.0892708 
-0.490231 -0.458116 -0.143587 -0.490089 -0.57376 -0.203717 -0.487314 -0.681918 -0.26345 
-0.465313 -0.757442 -0.316858 -0.420999 -0.801212 -0.365816 -0.370419 -0.83747 -0.414219 
-0.417617 0.0901461 0.0849484 -0.38714 0.22756 0.127502 -0.353519 0.356397 0.182325 
-0.315116 0.465485 0.25425 -0.269412 0.560733 0.338518 -0.218152 0.64471 0.421144 
-0.159308 0.704045 0.489773 -0.0869193 0.731436 0.542003 -0.00501132 0.739773 0.58292 
-0.426132 0.00991324 -0.157724 -0.441626 -0.100929 -0.186414 -0.452373 -0.211013 -0.221615 
-0.457931 -0.314221 -0.266845 -0.457093 -0.412074 -0.315532 -0.446338 -0.508645 -0.356449 
-0.422118 -0.604927 -0.387383 -0.388247 -0.701019 -0.414206 -0.355019 -0.795274 -0.439751 
-0.39407 0.209587 -0.0911706 -0.371757 0.309753 -0.0425786 -0.340363 0.411205 0.0154849 
-0.301952 0.51152 0.0849881 -0.255634 0.602141 0.171134 -0.198547 0.670115 0.272811 
-0.131174 0.710244 0.377588 -0.0588748 0.729987 0.472419 0.010929 0.740336 0.552336 
0.0795287 -0.133825 0.0178916 0.096522 -0.149334 0.0058059 0.11172 -0.157052 -0.00800913 
0.128282 -0.160298 -0.0221809 0.146442 -0.154098 -0.0396424 0.159012 -0.1298 -0.0612379 
0.158503 -0.0958919 -0.0806866 0.145998 -0.0733666 -0.0927432 0.12845 -0.0700989 -0.0996618 
0.0693353 -0.282297 -0.0281826 0.0983518 -0.454993 -0.0804131 0.145172 -0.596799 -0.137162 
0.197426 -0.70518 -0.197281 0.244157 -0.813947 -0.245873 0.281909 -0.93826 -0.273868 
0.305088 -1.04113 -0.296048 0.304867 -1.08559 -0.332674 0.28167 -1.0817 -0.385922 
0.0773469 0.0381639 0.0852091 0.106391 0.185707 0.159976 0.152012 0.320661 0.250186 
0.218378 0.431473 0.351246 0.301915 0.510285 0.447511 0.393831 0.562083 0.517508 
0.487536 0.602883 0.554378 0.572601 0.643073 0.572786 0.632 0.680478 0.59065 
0.147164 -0.202411 -0.172702 0.194695 -0.322866 -0.236045 0.241636 -0.433607 -0.289425 
0.281977 -0.537344 -0.332721 0.317231 -0.642368 -0.369446 0.343518 -0.757705 -0.397306 
0.349849 -0.878743 -0.412354 0.331411 -0.981233 -0.419998 0.293902 -1.04275 -0.429816 
0.102435 0.0647131 -0.0290464 0.119668 0.217114 0.0592251 0.169448 0.360845 0.150771 
0.235826 0.483978 0.238561 0.293954 0.580813 0.324663 0.345541 0.646677 0.411328 
0.414982 0.684045 0.487218 0.506277 0.70291 0.540273 0.594411 0.710601 0.576916 
-0.297557 -0.959187 -0.503355 -0.269101 -1.02778 -0.545091 -0.227661 -1.06546 -0.5789 
-0.159399 -1.07257 -0.599131 -0.072468 -1.07147 -0.604561 0.0101686 -1.07333 -0.597003 
0.0773762 -1.06929 -0.576269 0.135382 -1.05948 -0.540239 0.191937 -1.0568 -0.492608 
0.149838 0.761169 0.675114 0.223954 0.781386 0.730988 0.29609 0.794641 0.778933 
0.376052 0.787574 0.814005 0.464541 0.763805 0.833187 0.547364 0.741195 0.827873 
0.612761 0.729911 0.789282 0.656553 0.72522 0.726608 0.672467 0.719498 0.663121 
-0.0504088 0.400403 0.348295 -0.09436 0.387111 0.299152 -0.0976361 0.333985 0.25815 
-0.142612 0.36229 0.245706 -0.142958 0.310546 0.205852 -0.143698 0.239446 0.167021 
-0.194697 0.300214 0.195818 -0.191287 0.251893 0.158162 -0.188501 0.183708 0.121709 
-0.181729 0.100314 0.0841779 -0.250535 0.201991 0.154773 -0.241252 0.146777 0.12243 
-0.232097 0.0808608 0.0896262 -0.219662 0.00284883 0.0546576 -0.206072 -0.0766033 0.019232 
-0.308505 0.0981801 0.121089 -0.29385 0.0275723 0.0950322 -0.276449 -0.0475121 0.0683262 
-0.256532 -0.127871 0.0384294 -0.237347 -0.203941 0.00599647 -0.219527 -0.274666 -0.0226214 
-0.361856 0.0107 0.0903787 -0.346206 -0.0701284 0.0678088 -0.324175 -0.156808 0.0463406 
-0.298388 -0.250432 0.024361 -0.273055 -0.336033 -0.00136076 -0.249888 -0.405162 -0.0279554 
-0.22435 -0.469946 -0.0498025 -0.404509 -0.0602333 0.0599903 -0.390664 -0.142951 0.0382048 
-0.369323 -0.232944 0.0183707 -0.34356 -0.336071 0.00261973 -0.315721 -0.437046 -0.0137576 
-0.286968 -0.51462 -0.0351564 -0.255586 -0.572437 -0.058517 -0.219095 -0.628011 -0.0786533 
0.0175641 0.512782 0.475742 0.0355466 0.565024 0.517179 -0.0401987 0.493611 0.432795 
0.0504706 0.602964 0.553735 -0.0355808 0.542454 0.471207 -0.100326 0.473531 0.38213 
0.0561775 0.61904 0.589978 -0.0316322 0.578672 0.501581 -0.106171 0.516143 0.416819 
-0.159883 0.440232 0.323844 0.0447129 0.629441 0.62525 -0.0335343 0.599491 0.531102 
-0.109748 0.549431 0.442467 -0.171142 0.48058 0.353399 -0.219119 0.384345 0.262779 
0.0211473 0.655479 0.647604 -0.0494354 0.622807 0.561769 -0.11688 0.576018 0.468731 
-0.179051 0.515001 0.376293 -0.232585 0.430703 0.286236 -0.278999 0.311488 0.206867 
[...]
POINT_DATA 1002
FIELD FieldData 4
_paraPhi 1 1002 double
6.2831853072 3.1415926536 6.2831853072 3.1415926536 4.7123889804 4.7123889804 1.5707963268 1.5707963268 3.6951670125 
5.7296109483 2.5880182947 0.5535743589 6.2831853072 6.2831853072 6.2831853072 6.2831853072 3.1415926536 3.1415926536 
3.1415926536 3.1415926536 3.1415926536 6.1053039672 5.898798347 5.6768734901 5.4599499503 5.2659633393 5.1032165617 
4.9713148346 4.8656852733 4.7809517865 0.17788134 0.38438696014 0.60631181711 0.82323535693 1.0172219679 1.1799687454 
1.3118704726 1.4175000338 1.5022335207 6.1892828907 6.1070320098 6.035312792 5.9728339911 5.9183214791 5.8706119594 
5.8286879411 5.7916808611 5.7588591896 0.093902416448 0.17615329733 0.2478725152 0.31035131605 0.36486382811 0.41257334776 
0.45449736604 0.4915044461 0.52432611754 3.3194739936 3.5259796137 3.7479044707 3.9648280105 4.1588146215 4.321561399 
4.4534631262 4.5590926874 4.6438261743 2.9637113136 2.7572056934 2.5352808365 2.3183572967 2.1243706857 1.9616239082 
1.829722181 1.7240926197 1.6393591329 3.23549507 3.3177459509 3.3894651688 3.4519439696 3.5064564817 3.5541660013 
3.5960900196 3.6330970997 3.6659187711 3.0476902371 2.9654393563 2.8937201384 2.8312413375 2.7767288255 2.7290193058 
2.6870952876 2.6500882075 2.617266536 6.2831853072 6.2831853072 6.2831853072 6.2831853072 3.1415926536 3.1415926536 
3.1415926536 3.1415926536 3.1415926536 6.1053039672 5.898798347 5.6768734901 5.4599499503 5.2659633393 5.1032165617 
4.9713148346 4.8656852733 4.7809517865 0.17788134 0.38438696014 0.60631181711 0.82323535693 1.0172219679 1.1799687454 
1.3118704726 1.4175000338 1.5022335207 6.1892828907 6.1070320098 6.035312792 5.9728339911 5.9183214791 5.8706119594 
5.8286879411 5.7916808611 5.7588591896 0.093902416448 0.17615329733 0.2478725152 0.31035131605 0.36486382811 0.41257334776 
0.45449736604 0.4915044461 0.52432611754 3.3194739936 3.5259796137 3.7479044707 3.9648280105 4.1588146215 4.321561399 
4.4534631262 4.5590926874 4.6438261743 2.9637113136 2.7572056934 2.5352808365 2.3183572967 2.1243706857 1.9616239082 
1.829722181 1.7240926197 1.6393591329 3.23549507 3.3177459509 3.3894651688 3.4519439696 3.5064564817 3.5541660013 
3.5960900196 3.6330970997 3.6659187711 3.0476902371 2.9654393563 2.8937201384 2.8312413375 2.7767288255 2.7290193058 
2.6870952876 2.6500882075 2.617266536 4.7123889804 4.7123889804 4.7123889804 4.7123889804 4.7123889804 4.7123889804 
4.7123889804 4.7123889804 4.7123889804 4.6087898617 4.4991390697 4.3857031936 4.2712800401 4.1588146215 4.0509635631 
3.94975894 3.8564636551 3.7716124825 4.8159880991 4.9256388911 5.0390747672 5.1534979207 5.2659633393 5.3738143976 
5.4750190208 5.5683143056 5.6531654782 4.6087898617 4.4991390697 4.3857031936 4.2712800401 4.1588146215 4.0509635631 
3.94975894 3.8564636551 3.7716124825 4.8159880991 4.9256388911 5.0390747672 5.1534979207 5.2659633393 5.3738143976 
5.4750190208 5.5683143056 5.6531654782 1.5707963268 1.5707963268 1.5707963268 1.5707963268 1.5707963268 1.5707963268 
1.5707963268 1.5707963268 1.5707963268 1.6743954455 1.7840462375 1.8974821136 2.0119052671 2.1243706857 2.232221744 
2.3334263672 2.426721652 2.5115728246 1.4671972081 1.3575464161 1.24411054 1.1296873865 1.0172219679 0.90937090954 
0.80816628637 0.71487100155 0.63001982895 1.6743954455 1.7840462375 1.8974821136 2.0119052671 2.1243706857 2.232221744 
2.3334263672 2.426721652 2.5115728246 1.4671972081 1.3575464161 1.24411054 1.1296873865 1.0172219679 0.90937090954 
0.80816628637 0.71487100155 0.63001982895 3.6007720849 3.4966939854 3.3839471039 3.2645756454 3.1415926536 3.0186096618 
2.8992382033 2.7864913217 2.6824132222 5.8240058758 5.9280839753 6.0408308569 6.1602023154 6.2831853072 0.12298299178 
0.2423544503 0.35510133185 0.45917943135 6.0560271438 5.7885595667 5.9702140275 5.5125918794 5.6029703303 5.7885595667 
5.2659633393 5.2659633393 5.2659633393 5.2659633393 5.0674903122 5.0120975802 4.9155579264 4.7123889804 4.1588146215 
4.9155579264 4.8353719722 4.7123889804 4.5092200343 4.1588146215 3.6362183941 4.8004512023 4.7123889804 4.5894059886 
4.4126803806 4.1588146215 3.8218076305 3.4545639333 4.7123889804 4.6243267584 4.5092200343 4.3572876485 4.1588146215 
3.9121860814 3.6362183941 3.368750817 6.0174235957 5.9434319871 5.8263323547 5.8809213739 5.7674481418 5.6279784266 
5.8278025282 5.718968232 5.5891129425 5.4372443565 5.7823484065 5.678536687 5.5575666702 5.4192596322 5.2659633393 
5.743164462 5.6444075337 5.5314983644 5.4046708639 5.2659633393 5.1195510325 5.7091357773 5.6152775188 5.5096229709 
5.3926039573 5.2659633393 5.1329233157 4.9978930058 5.6793730533 5.5901633916 5.4910209005 5.3824597928 5.2659633393 
5.1440684722 5.0201624502 4.8979782167 5.5683143056 5.4750190208 5.4750190208 5.3738143976 5.3738143976 5.3738143976 
5.2659633393 5.2659633393 5.2659633393 5.2659633393 5.1534979207 5.1534979207 5.1534979207 5.1534979207 5.1534979207 
5.0390747672 5.0390747672 5.0390747672 5.0390747672 5.0390747672 5.0390747672 4.9256388911 4.9256388911 4.9256388911 
4.9256388911 4.9256388911 4.9256388911 4.9256388911 4.8159880991 4.8159880991 4.8159880991 4.8159880991 4.8159880991 
4.8159880991 4.8159880991 4.8159880991 4.6087898617 4.6087898617 4.4991390697 4.6087898617 4.4991390697 4.3857031936 
4.6087898617 4.4991390697 4.3857031936 4.2712800401 4.6087898617 4.4991390697 4.3857031936 4.2712800401 4.1588146215 
4.6087898617 4.4991390697 4.3857031936 4.2712800401 4.1588146215 4.0509635631 4.6087898617 4.4991390697 4.3857031936 
4.2712800401 4.1588146215 4.0509635631 3.94975894 4.6087898617 4.4991390697 4.3857031936 4.2712800401 4.1588146215 
4.0509635631 3.94975894 3.8564636551 4.526799744 4.4046155105 4.426884955 4.2807094886 4.2918546451 4.3052269283 
4.1588146215 4.1588146215 4.1588146215 4.1588146215 4.042318168 4.0321740035 4.0201070968 4.0055183285 3.9875336042 
3.9337570603 3.9151549899 3.8932795963 3.8672112905 3.8356650183 3.7967995342 3.8346145692 3.809500442 3.7803704271 
3.7462412737 3.7058097288 3.657329819 3.5984456061 3.7454049075 3.7156421835 3.6816134988 3.6424295543 3.5969754326 
3.5438565869 3.4813459737 3.4073543651 3.5642842451 3.4524645613 3.5233842518 3.3320300872 3.403123212 3.4773852225 
3.20576226 3.2746326772 3.348015857 3.4255060145 3.0774230472 3.1415926536 3.2112816139 3.2864685043 3.3668817272 
2.95115522 3.00855263 3.0719036933 3.1415926536 3.2178377658 3.3005964304 2.8307207459 2.8800620952 2.9351694502 
2.9967168029 3.0653475414 3.1415926536 3.225752376 2.718901062 2.7598010554 2.8058000847 2.8576792927 2.91630358 
2.9825888767 3.0574329311 3.1415926536 3.5642842451 3.5233842518 3.4524645613 3.4773852225 3.403123212 3.3320300872 
3.4255060145 3.348015857 3.2746326772 3.20576226 3.3668817272 3.2864685043 3.2112816139 3.1415926536 3.0774230472 
3.3005964304 3.2178377658 3.1415926536 3.0719036933 3.00855263 2.95115522 3.225752376 3.1415926536 3.0653475414 
2.9967168029 2.9351694502 2.8800620952 2.8307207459 3.1415926536 3.0574329311 2.9825888767 2.91630358 2.8576792927 
2.8058000847 2.7598010554 2.718901062 4.526799744 4.426884955 4.4046155105 4.3052269283 4.2918546451 4.2807094886 
4.1588146215 4.1588146215 4.1588146215 4.1588146215 3.9875336042 4.0055183285 4.0201070968 4.0321740035 4.042318168 
3.7967995342 3.8356650183 3.8672112905 3.8932795963 3.9151549899 3.9337570603 3.5984456061 3.657329819 3.7058097288 
3.7462412737 3.7803704271 3.809500442 3.8346145692 3.4073543651 3.4813459737 3.5438565869 3.5969754326 3.6424295543 
3.6816134988 3.7156421835 3.7454049075 4.7123889804 4.8004512023 4.6243267584 4.9155579264 4.7123889804 4.5092200343 
5.0674903122 4.8353719722 4.5894059886 4.3572876485 5.2659633393 5.0120975802 4.7123889804 4.4126803806 4.1588146215 
5.5125918794 5.2659633393 4.9155579264 4.5092200343 4.1588146215 3.9121860814 5.7885595667 5.6029703303 5.2659633393 
4.7123889804 4.1588146215 3.8218076305 3.6362183941 6.0560271438 5.9702140275 5.7885595667 5.2659633393 4.1588146215 
3.6362183941 3.4545639333 3.368750817 0.22715816343 0.49462574053 0.3129712797 0.77059342779 0.68021497688 0.49462574053 
1.0172219679 1.0172219679 1.0172219679 1.0172219679 1.2156949949 1.271087727 1.3676273807 1.5707963268 2.1243706857 
1.3676273807 1.447813335 1.5707963268 1.7739652728 2.1243706857 2.6469669131 1.4827341049 1.5707963268 1.6937793186 
1.8705049266 2.1243706857 2.4613776767 2.8286213739 1.5707963268 1.6588585487 1.7739652728 1.9258976586 2.1243706857 
2.3709992258 2.6469669131 2.9144344902 1.7563855631 1.8785697967 1.8563003522 2.0024758186 1.9913306621 1.9779583789 
2.1243706857 2.1243706857 2.1243706857 2.1243706857 2.2408671392 2.2510113037 2.2630782103 2.2776669786 2.295651703 
2.3494282469 2.3680303173 2.3899057108 2.4159740166 2.4475202889 2.486385773 2.448570738 2.4736848652 2.5028148801 
2.5369440334 2.5773755784 2.6258554882 2.6847397011 2.5377803997 2.5675431237 2.6015718084 2.6407557529 2.6862098746 
2.7393287203 2.8018393335 2.8758309421 1.6743954455 1.6743954455 1.7840462375 1.6743954455 1.7840462375 1.8974821136 
1.6743954455 1.7840462375 1.8974821136 2.0119052671 1.6743954455 1.7840462375 1.8974821136 2.0119052671 2.1243706857 
1.6743954455 1.7840462375 1.8974821136 2.0119052671 2.1243706857 2.232221744 1.6743954455 1.7840462375 1.8974821136 
2.0119052671 2.1243706857 2.232221744 2.3334263672 1.6743954455 1.7840462375 1.8974821136 2.0119052671 2.1243706857 
2.232221744 2.3334263672 2.426721652 1.4671972081 1.3575464161 1.4671972081 1.24411054 1.3575464161 1.4671972081 
1.1296873865 1.24411054 1.3575464161 1.4671972081 1.0172219679 1.1296873865 1.24411054 1.3575464161 1.4671972081 
0.90937090954 1.0172219679 1.1296873865 1.24411054 1.3575464161 1.4671972081 0.80816628637 0.90937090954 1.0172219679 
1.1296873865 1.24411054 1.3575464161 1.4671972081 0.71487100155 0.80816628637 0.90937090954 1.0172219679 1.1296873865 
1.24411054 1.3575464161 1.4671972081 0.60381225391 0.57404952988 0.69302191562 0.54002084522 0.66790778838 0.79216440667 
0.50083690068 0.63877777351 0.77356233629 0.90072551443 0.45538277901 0.60464862014 0.75168694275 0.89058134991 1.0172219679 
0.40226393329 0.56421707518 0.72561863695 0.87851444325 1.0172219679 1.139116835 0.33975332011 0.51573716537 0.69407236469 
0.86392567495 1.0172219679 1.1502619915 1.2630228569 0.26576171152 0.45685295248 0.6552068806 0.84594095064 1.0172219679 
1.1636342747 1.2852923014 1.3852070904 0.22715816343 0.3129712797 0.49462574053 0.49462574053 0.68021497688 0.77059342779 
1.0172219679 1.0172219679 1.0172219679 1.0172219679 2.1243706857 1.5707963268 1.3676273807 1.271087727 1.2156949949 
2.6469669131 2.1243706857 1.7739652728 1.5707963268 1.447813335 1.3676273807 2.8286213739 2.4613776767 2.1243706857 
1.8705049266 1.6937793186 1.5707963268 1.4827341049 2.9144344902 2.6469669131 2.3709992258 2.1243706857 1.9258976586 
1.7739652728 1.6588585487 1.5707963268 1.7563855631 1.8563003522 1.8785697967 1.9779583789 1.9913306621 2.0024758186 
2.1243706857 2.1243706857 2.1243706857 2.1243706857 2.295651703 2.2776669786 2.2630782103 2.2510113037 2.2408671392 
2.486385773 2.4475202889 2.4159740166 2.3899057108 2.3680303173 2.3494282469 2.6847397011 2.6258554882 2.5773755784 
2.5369440334 2.5028148801 2.4736848652 2.448570738 2.8758309421 2.8018393335 2.7393287203 2.6862098746 2.6407557529 
2.6015718084 2.5675431237 2.5377803997 5.8604937156 5.901393709 5.9723133995 5.9473927383 6.0216547488 6.0927478736 
5.9992719463 6.0767621038 6.1501452836 6.2190157008 6.0578962336 6.1383094565 6.2134963469 0 0.064169606361 
6.1241815303 6.206940195 6.2831853072 0.069688960264 0.13304002361 0.19043743361 6.1990255847 0 0.07624511221 
0.14487585072 0.20642320337 0.26153055843 0.3108719077 0 0.084159722458 0.15900377685 0.22528907359 0.28391336087 
0.3357925689 0.38179159818 0.42269159155 5.8604937156 5.9723133995 5.901393709 6.0927478736 6.0216547488 5.9473927383 
6.2190157008 6.1501452836 6.0767621038 5.9992719463 0.064169606361 0 6.2134963469 6.1383094565 6.0578962336 
0.19043743361 0.13304002361 0.069688960264 6.2831853072 6.206940195 6.1241815303 0.3108719077 0.26153055843 0.20642320337 
0.14487585072 0.07624511221 6.2831853072 6.1990255847 0.42269159155 0.38179159818 0.3357925689 0.28391336087 0.22528907359 
0.15900377685 0.084159722458 0 5.6793730533 5.7091357773 5.5901633916 5.743164462 5.6152775188 5.4910209005 
5.7823484065 5.6444075337 5.5096229709 5.3824597928 5.8278025282 5.678536687 5.5314983644 5.3926039573 5.2659633393 
5.8809213739 5.718968232 5.5575666702 5.4046708639 5.2659633393 5.1440684722 5.9434319871 5.7674481418 5.5891129425 
5.4192596322 5.2659633393 5.1329233157 5.0201624502 6.0174235957 5.8263323547 5.6279784266 5.4372443565 5.2659633393 
5.1195510325 4.9978930058 4.8979782167 1.3852070904 1.2852923014 1.2630228569 1.1636342747 1.1502619915 1.139116835 
1.0172219679 1.0172219679 1.0172219679 1.0172219679 0.84594095064 0.86392567495 0.87851444325 0.89058134991 0.90072551443 
0.6552068806 0.69407236469 0.72561863695 0.75168694275 0.77356233629 0.79216440667 0.45685295248 0.51573716537 0.56421707518 
0.60464862014 0.63877777351 0.66790778838 0.69302191562 0.26576171152 0.33975332011 0.40226393329 0.45538277901 0.50083690068 
0.54002084522 0.57404952988 0.60381225391 
_paraPhiHalf 1 1002 double
0 3.1415926536 0 3.1415926536 1.5707963268 1.5707963268 1.5707963268 1.5707963268 2.5880182947 
0.5535743589 2.5880182947 0.5535743589 0 0 0 0 3.1415926536 3.1415926536 
3.1415926536 3.1415926536 3.1415926536 0.17788134 0.38438696014 0.60631181711 0.82323535693 1.0172219679 1.1799687454 
1.3118704726 1.4175000338 1.5022335207 0.17788134 0.38438696014 0.60631181711 0.82323535693 1.0172219679 1.1799687454 
1.3118704726 1.4175000338 1.5022335207 0.093902416448 0.17615329733 0.2478725152 0.31035131605 0.36486382811 0.41257334776 
0.45449736604 0.4915044461 0.52432611754 0.093902416448 0.17615329733 0.2478725152 0.31035131605 0.36486382811 0.41257334776 
0.45449736604 0.4915044461 0.52432611754 2.9637113136 2.7572056934 2.5352808365 2.3183572967 2.1243706857 1.9616239082 
1.829722181 1.7240926197 1.6393591329 2.9637113136 2.7572056934 2.5352808365 2.3183572967 2.1243706857 1.9616239082 
1.829722181 1.7240926197 1.6393591329 3.0476902371 2.9654393563 2.8937201384 2.8312413375 2.7767288255 2.7290193058 
2.6870952876 2.6500882075 2.617266536 3.0476902371 2.9654393563 2.8937201384 2.8312413375 2.7767288255 2.7290193058 
2.6870952876 2.6500882075 2.617266536 0 0 0 0 3.1415926536 3.1415926536 
3.1415926536 3.1415926536 3.1415926536 0.17788134 0.38438696014 0.60631181711 0.82323535693 1.0172219679 1.1799687454 
1.3118704726 1.4175000338 1.5022335207 0.17788134 0.38438696014 0.60631181711 0.82323535693 1.0172219679 1.1799687454 
1.3118704726 1.4175000338 1.5022335207 0.093902416448 0.17615329733 0.2478725152 0.31035131605 0.36486382811 0.41257334776 
0.45449736604 0.4915044461 0.52432611754 0.093902416448 0.17615329733 0.2478725152 0.31035131605 0.36486382811 0.41257334776 
0.45449736604 0.4915044461 0.52432611754 2.9637113136 2.7572056934 2.5352808365 2.3183572967 2.1243706857 1.9616239082 
1.829722181 1.7240926197 1.6393591329 2.9637113136 2.7572056934 2.5352808365 2.3183572967 2.1243706857 1.9616239082 
1.829722181 1.7240926197 1.6393591329 3.0476902371 2.9654393563 2.8937201384 2.8312413375 2.7767288255 2.7290193058 
2.6870952876 2.6500882075 2.617266536 3.0476902371 2.9654393563 2.8937201384 2.8312413375 2.7767288255 2.7290193058 
2.6870952876 2.6500882075 2.617266536 1.5707963268 1.5707963268 1.5707963268 1.5707963268 1.5707963268 1.5707963268 
1.5707963268 1.5707963268 1.5707963268 1.6743954455 1.7840462375 1.8974821136 2.0119052671 2.1243706857 2.232221744 
2.3334263672 2.426721652 2.5115728246 1.4671972081 1.3575464161 1.24411054 1.1296873865 1.0172219679 0.90937090954 
0.80816628637 0.71487100155 0.63001982895 1.6743954455 1.7840462375 1.8974821136 2.0119052671 2.1243706857 2.232221744 
2.3334263672 2.426721652 2.5115728246 1.4671972081 1.3575464161 1.24411054 1.1296873865 1.0172219679 0.90937090954 
0.80816628637 0.71487100155 0.63001982895 1.5707963268 1.5707963268 1.5707963268 1.5707963268 1.5707963268 1.5707963268 
1.5707963268 1.5707963268 1.5707963268 1.6743954455 1.7840462375 1.8974821136 2.0119052671 2.1243706857 2.232221744 
2.3334263672 2.426721652 2.5115728246 1.4671972081 1.3575464161 1.24411054 1.1296873865 1.0172219679 0.90937090954 
0.80816628637 0.71487100155 0.63001982895 1.6743954455 1.7840462375 1.8974821136 2.0119052671 2.1243706857 2.232221744 
2.3334263672 2.426721652 2.5115728246 1.4671972081 1.3575464161 1.24411054 1.1296873865 1.0172219679 0.90937090954 
0.80816628637 0.71487100155 0.63001982895 2.6824132222 2.7864913217 2.8992382033 3.0186096618 3.1415926536 3.0186096618 
2.8992382033 2.7864913217 2.6824132222 0.45917943135 0.35510133185 0.2423544503 0.12298299178 0 0.12298299178 
0.2423544503 0.35510133185 0.45917943135 0.22715816343 0.49462574053 0.3129712797 0.77059342779 0.68021497688 0.49462574053 
1.0172219679 1.0172219679 1.0172219679 1.0172219679 1.2156949949 1.271087727 1.3676273807 1.5707963268 2.1243706857 
1.3676273807 1.447813335 1.5707963268 1.7739652728 2.1243706857 2.6469669131 1.4827341049 1.5707963268 1.6937793186 
1.8705049266 2.1243706857 2.4613776767 2.8286213739 1.5707963268 1.6588585487 1.7739652728 1.9258976586 2.1243706857 
2.3709992258 2.6469669131 2.9144344902 0.26576171152 0.33975332011 0.45685295248 0.40226393329 0.51573716537 0.6552068806 
0.45538277901 0.56421707518 0.69407236469 0.84594095064 0.50083690068 0.60464862014 0.72561863695 0.86392567495 1.0172219679 
0.54002084522 0.63877777351 0.75168694275 0.87851444325 1.0172219679 1.1636342747 0.57404952988 0.66790778838 0.77356233629 
0.89058134991 1.0172219679 1.1502619915 1.2852923014 0.60381225391 0.69302191562 0.79216440667 0.90072551443 1.0172219679 
1.139116835 1.2630228569 1.3852070904 0.71487100155 0.80816628637 0.80816628637 0.90937090954 0.90937090954 0.90937090954 
1.0172219679 1.0172219679 1.0172219679 1.0172219679 1.1296873865 1.1296873865 1.1296873865 1.1296873865 1.1296873865 
1.24411054 1.24411054 1.24411054 1.24411054 1.24411054 1.24411054 1.3575464161 1.3575464161 1.3575464161 
1.3575464161 1.3575464161 1.3575464161 1.3575464161 1.4671972081 1.4671972081 1.4671972081 1.4671972081 1.4671972081 
1.4671972081 1.4671972081 1.4671972081 1.6743954455 1.6743954455 1.7840462375 1.6743954455 1.7840462375 1.8974821136 
1.6743954455 1.7840462375 1.8974821136 2.0119052671 1.6743954455 1.7840462375 1.8974821136 2.0119052671 2.1243706857 
1.6743954455 1.7840462375 1.8974821136 2.0119052671 2.1243706857 2.232221744 1.6743954455 1.7840462375 1.8974821136 
2.0119052671 2.1243706857 2.232221744 2.3334263672 1.6743954455 1.7840462375 1.8974821136 2.0119052671 2.1243706857 
2.232221744 2.3334263672 2.426721652 1.7563855631 1.8785697967 1.8563003522 2.0024758186 1.9913306621 1.9779583789 
2.1243706857 2.1243706857 2.1243706857 2.1243706857 2.2408671392 2.2510113037 2.2630782103 2.2776669786 2.295651703 
2.3494282469 2.3680303173 2.3899057108 2.4159740166 2.4475202889 2.486385773 2.448570738 2.4736848652 2.5028148801 
2.5369440334 2.5773755784 2.6258554882 2.6847397011 2.5377803997 2.5675431237 2.6015718084 2.6407557529 2.6862098746 
2.7393287203 2.8018393335 2.8758309421 2.718901062 2.8307207459 2.7598010554 2.95115522 2.8800620952 2.8058000847 
3.0774230472 3.00855263 2.9351694502 2.8576792927 3.0774230472 3.1415926536 3.0719036933 2.9967168029 2.91630358 
2.95115522 3.00855263 3.0719036933 3.1415926536 3.0653475414 2.9825888767 2.8307207459 2.8800620952 2.9351694502 
2.9967168029 3.0653475414 3.1415926536 3.0574329311 2.718901062 2.7598010554 2.8058000847 2.8576792927 2.91630358 
2.9825888767 3.0574329311 3.1415926536 2.718901062 2.7598010554 2.8307207459 2.8058000847 2.8800620952 2.95115522 
2.8576792927 2.9351694502 3.00855263 3.0774230472 2.91630358 2.9967168029 3.0719036933 3.1415926536 3.0774230472 
2.9825888767 3.0653475414 3.1415926536 3.0719036933 3.00855263 2.95115522 3.0574329311 3.1415926536 3.0653475414 