# vtk DataFile Version 5.1
vtk output
ASCII
DATASET POLYDATA
POINTS 1002 float
-0.00103478 0.394717 0.394363 -0.181618 -0.704344 -0.15139 -0.092126 0.476804 0.051223 
-0.0504703 -0.426466 -0.485359 -0.543155 -0.152763 0.0364935 -0.455512 0.0991737 -0.153724 
5.6441e-05 -0.200877 -0.049211 0.147756 -0.177622 -0.185711 -0.330955 -0.894998 -0.464248 
-0.0396529 0.683292 0.434471 0.227306 -0.964744 -0.403087 0.573986 0.693746 0.571201 
-0.0730329 0.340399 0.314206 -0.138632 0.268498 0.230257 -0.191063 0.170387 0.146339 
-0.225831 0.0364314 0.0738521 -0.238543 -0.133234 0.0274402 -0.230392 -0.316532 0.00487661 
-0.213602 -0.476552 -0.0163801 -0.200479 -0.589484 -0.0534985 -0.191733 -0.659392 -0.102771 
-0.0554264 0.368018 0.352709 -0.115116 0.335834 0.309102 -0.180579 0.293842 0.263207 
-0.248768 0.232041 0.213712 -0.314925 0.14407 0.166839 -0.377713 0.0419653 0.133694 
-0.436255 -0.0475271 0.113897 -0.485307 -0.106036 0.0946455 -0.520383 -0.136257 0.0678649 
0.00530066 0.388575 0.382871 0.0092494 0.374589 0.363078 0.00692121 0.346256 0.332446 
-0.00545611 0.307762 0.28892 -0.0232977 0.267577 0.233128 -0.0384149 0.219712 0.168822 
-0.0483385 0.146631 0.101574 -0.0500027 0.0422349 0.0386205 -0.0350535 -0.0804322 -0.0127319 
0.0392866 0.428451 0.447576 0.0721866 0.465289 0.497729 0.0869142 0.502275 0.537019 
0.0841397 0.53615 0.557969 0.0754846 0.571252 0.559432 0.0660286 0.611561 0.547979 
0.0494638 0.648721 0.530209 0.0228473 0.672315 0.50638 -0.00858161 0.682233 0.474176 
0.0832525 0.437601 0.471715 0.179542 0.476774 0.550308 0.28039 0.510724 0.612058 
0.379253 0.537747 0.64611 0.475045 0.556462 0.65964 0.563246 0.56945 0.662276 
0.625909 0.586505 0.651851 0.644839 0.61687 0.627272 0.621457 0.65716 0.597505 
-0.218915 -0.684274 -0.126685 -0.259203 -0.651954 -0.0990933 -0.302086 -0.614505 -0.0712793 
-0.347215 -0.573492 -0.0473356 -0.39343 -0.521584 -0.0298459 -0.436452 -0.452543 -0.0180603 
-0.471653 -0.372107 -0.00834135 -0.499479 -0.292705 0.00357729 -0.523203 -0.220339 0.0192445 
-0.151992 -0.688188 -0.145155 -0.120745 -0.661986 -0.137806 -0.0914609 -0.62522 -0.133041 
-0.0677203 -0.578149 -0.131576 -0.048785 -0.52384 -0.127887 -0.0317636 -0.466918 -0.116493 
-0.017324 -0.408474 -0.0993999 -0.00794669 -0.345177 -0.0821614 -0.00309532 -0.274906 -0.0662444 
-0.191143 -0.735902 -0.180861 -0.202297 -0.771471 -0.20627 -0.220267 -0.811218 -0.230961 
-0.245271 -0.851042 -0.260372 -0.270733 -0.882805 -0.292383 -0.292633 -0.900179 -0.32192 
-0.311859 -0.906768 -0.352999 -0.326579 -0.910401 -0.391538 -0.332894 -0.90952 -0.432361 
-0.147137 -0.728701 -0.194661 -0.101725 -0.739597 -0.238661 -0.0500832 -0.753636 -0.277991 
-0.00366684 -0.801597 -0.304321 0.034586 -0.886779 -0.315109 0.076915 -0.966121 -0.320359 
0.129611 -1.00082 -0.332705 0.179657 -0.997666 -0.354422 0.21242 -0.982177 -0.379682 
-0.109313 0.395364 -0.0101683 -0.119065 0.305721 -0.0708901 -0.126052 0.206873 -0.12885 
-0.13019 0.0923621 -0.185067 -0.124183 -0.0289933 -0.244183 -0.105702 -0.129926 -0.307208 
-0.084187 -0.201686 -0.36709 -0.0686054 -0.26715 -0.416354 -0.0586452 -0.344483 -0.454448 
-0.123286 0.446757 0.0226947 -0.157901 0.41389 -0.00822561 -0.196112 0.395384 -0.0410958 
-0.240551 0.392096 -0.0735298 -0.290288 0.380622 -0.100767 -0.336655 0.342244 -0.118574 
-0.37245 0.28379 -0.127721 -0.400505 0.220122 -0.133876 -0.427532 0.157805 -0.142232 
-0.0781095 0.445583 0.0386348 -0.066876 0.396324 0.0220721 -0.0555195 0.334575 0.00216517 
-0.0393499 0.268139 -0.0219514 -0.0173823 0.194845 -0.0515313 0.00722826 0.108524 -0.085347 
0.0338763 0.0155008 -0.119518 0.0660891 -0.0682767 -0.149649 0.105316 -0.132515 -0.172255 
-0.0853375 0.536506 0.0969385 -0.072157 0.591453 0.144925 -0.0547446 0.635218 0.195832 
-0.0389449 0.662602 0.250805 -0.0275105 0.678054 0.305026 -0.0178555 0.690838 0.349548 
-0.0106023 0.701069 0.381817 -0.0115426 0.702668 0.405936 -0.0226963 0.695305 0.423936 
-0.0543751 0.535545 0.112517 -0.0022586 0.583709 0.187903 0.0669519 0.628514 0.273385 
0.155931 0.687548 0.359067 0.259878 0.755764 0.435188 0.361318 0.80008 0.495202 
0.443525 0.800674 0.534896 0.504085 0.770643 0.555574 0.547349 0.731488 0.565079 
-0.0946615 -0.379997 -0.473137 -0.136782 -0.333115 -0.45208 -0.177396 -0.291596 -0.419821 
-0.222867 -0.253772 -0.37822 -0.273352 -0.210696 -0.332428 -0.32 -0.15544 -0.286335 
-0.358952 -0.0891466 -0.242706 -0.394352 -0.0194012 -0.205388 -0.427612 0.0449221 -0.176481 
-0.011032 -0.420572 -0.473542 0.0254291 -0.411326 -0.454615 0.0539961 -0.399676 -0.42807 
0.0775829 -0.385724 -0.396499 0.103582 -0.362475 -0.363771 0.131928 -0.322287 -0.330201 
0.153994 -0.272253 -0.293986 0.16328 -0.229513 -0.25626 0.159971 -0.200729 -0.21987 
-0.0706646 -0.479132 -0.508752 -0.0920262 -0.533921 -0.5326 -0.11315 -0.592798 -0.554446 
-0.13526 -0.655318 -0.566971 -0.161852 -0.714075 -0.565049 -0.195043 -0.765367 -0.555377 
-0.233027 -0.814865 -0.546396 -0.271199 -0.861471 -0.532962 -0.304794 -0.891469 -0.505259 
-0.0164267 -0.502096 -0.509202 0.0187153 -0.568744 -0.534074 0.051317 -0.624422 -0.556576 
0.083586 -0.681124 -0.570314 0.118216 -0.747095 -0.56991 0.149298 -0.817014 -0.553625 
0.171068 -0.880124 -0.523867 0.188783 -0.926393 -0.486043 0.208626 -0.952126 -0.444986 
-0.564858 -0.11836 0.0270384 -0.585127 -0.0796154 0.0157041 -0.600725 -0.0355999 -0.00160563 
-0.60621 0.0112952 -0.0297968 -0.598089 0.0511257 -0.0678189 -0.578658 0.0745491 -0.105493 
-0.552616 0.0838496 -0.131592 -0.522224 0.0885337 -0.144071 -0.488854 0.0939591 -0.149234 
-0.547421 -0.212266 -0.00843484 -0.546983 -0.286487 -0.0540154 -0.544725 -0.376358 -0.0970508 
-0.539426 -0.466455 -0.145529 -0.522687 -0.540375 -0.204875 -0.487185 -0.603552 -0.263886 
-0.439772 -0.675871 -0.313189 -0.395812 -0.761261 -0.360529 -0.361394 -0.840842 -0.412912 
-0.543898 -0.0682889 0.0723526 -0.527519 0.0396031 0.103326 -0.486773 0.168326 0.129551 
-0.423729 0.298861 0.160481 -0.350422 0.410875 0.204141 -0.280232 0.499036 0.256692 
-0.21792 0.567361 0.309139 -0.159305 0.618768 0.357006 -0.0997425 0.655976 0.399115 
-0.466566 0.00875122 -0.179878 -0.469357 -0.0885394 -0.207254 -0.460675 -0.189299 -0.23793 
-0.446315 -0.288677 -0.274793 -0.431666 -0.387542 -0.316066 -0.41227 -0.496129 -0.356458 
-0.385915 -0.618145 -0.393963 -0.361235 -0.737493 -0.427699 -0.344365 -0.832488 -0.452727 
-0.45993 0.186372 -0.121068 -0.460566 0.279514 -0.079375 -0.457761 0.373666 -0.031353 
-0.442437 0.456896 0.017956 -0.400429 0.517945 0.0705877 -0.331683 0.559635 0.134185 
-0.253007 0.594927 0.209897 -0.177906 0.630127 0.290289 -0.107571 0.66126 0.366958 
0.0329744 -0.226552 -0.055312 0.0710851 -0.251245 -0.0596106 0.106458 -0.265772 -0.0624027 
0.132824 -0.26119 -0.066256 0.151936 -0.240393 -0.075625 0.167581 -0.217814 -0.0935219 
0.176859 -0.203063 -0.118319 0.175085 -0.193969 -0.144778 0.163638 -0.185857 -0.167958 
0.0527661 -0.355383 -0.0839052 0.115324 -0.485753 -0.111845 0.167023 -0.591101 -0.142013 
0.203689 -0.696336 -0.172699 0.240133 -0.809648 -0.193646 0.279256 -0.900544 -0.209568 
0.300924 -0.944996 -0.240707 0.291988 -0.957192 -0.293071 0.262072 -0.961183 -0.351826 
-0.0165184 -0.0441331 -0.00078616 -0.00574939 0.119719 0.0771613 0.0459004 0.256207 0.181458 
0.13115 0.347707 0.291375 0.226964 0.412627 0.384758 0.318652 0.480482 0.454555 
0.404566 0.554796 0.503589 0.480795 0.6185 0.53551 0.53879 0.662723 0.555855 
0.199757 -0.225224 -0.21304 0.242465 -0.280936 -0.239082 0.265892 -0.372034 -0.268186 
0.277868 -0.498831 -0.300086 0.293857 -0.627909 -0.329955 0.310552 -0.73202 -0.353886 
0.310018 -0.814196 -0.371637 0.288292 -0.882831 -0.384847 0.257554 -0.934325 -0.395074 
0.104225 -0.111039 -0.140161 0.0679324 0.0120957 -0.0735405 0.0592987 0.18752 0.0200412 
0.0895298 0.356516 0.13039 0.152646 0.462528 0.23929 0.234297 0.522778 0.338423 
0.323314 0.586969 0.424844 0.413253 0.654932 0.491425 0.498894 0.693425 0.536941 
-0.296095 -0.937118 -0.49311 -0.24104 -0.954039 -0.513545 -0.169188 -0.953646 -0.530111 
-0.100206 -0.952555 -0.549677 -0.0433951 -0.957138 -0.563436 0.0148333 -0.961949 -0.552359 
0.0806347 -0.965987 -0.51625 0.140644 -0.97146 -0.473802 0.187413 -0.973313 -0.436562 
0.0463837 0.706591 0.493649 0.146925 0.727426 0.552686 0.257152 0.754031 0.609409 
0.37396 0.791588 0.663377 0.491455 0.819982 0.705976 0.589913 0.80759 0.718066 
0.645845 0.760064 0.692299 0.653475 0.717559 0.646676 0.624395 0.700393 0.603928 
-0.126553 0.301614 0.27282 -0.183371 0.252899 0.230248 -0.18839 0.21351 0.18937 
-0.243905 0.189753 0.185271 -0.238964 0.143208 0.148773 -0.233546 0.0934303 0.109636 
-0.304648 0.104147 0.14195 -0.290127 0.0558393 0.111732 -0.274307 -0.00225857 0.0798934 
-0.258536 -0.0660351 0.0516981 -0.361624 -0.00100983 0.111339 -0.339335 -0.0479836 0.0865205 
-0.313779 -0.110528 0.0623614 -0.289495 -0.182904 0.042279 -0.263222 -0.251768 0.0244389 
-0.414578 -0.101479 0.095167 -0.386182 -0.152837 0.0748832 -0.353084 -0.217679 0.0561521 
-0.320968 -0.295919 0.0411554 -0.289823 -0.368137 0.0268549 -0.253774 -0.425208 0.00773883 
-0.461832 -0.17076 0.0791715 -0.431399 -0.232463 0.0628116 -0.39487 -0.302455 0.0479938 
-0.356425 -0.383066 0.0354346 -0.31972 -0.457561 0.021913 -0.28199 -0.511694 0.00209294 
-0.240863 -0.552109 -0.024642 -0.49851 -0.205104 0.0525263 -0.470805 -0.275177 0.0376492 
-0.436935 -0.351571 0.0252762 -0.397078 -0.432714 0.0145564 -0.354844 -0.505835 0.00171092 
-0.313063 -0.559824 -0.0177057 -0.271217 -0.598463 -0.0445209 -0.229918 -0.63148 -0.0744945 
-0.0240092 0.408153 0.400257 -0.00449901 0.449898 0.444217 -0.0959412 0.381816 0.349956 
-0.00438403 0.484733 0.479038 -0.0897159 0.423435 0.387105 -0.173072 0.340894 0.296974 
-0.0152235 0.513349 0.498275 -0.0970253 0.452901 0.417145 -0.17357 0.379821 0.327578 
-0.249234 0.275425 0.240617 -0.0237665 0.549485 0.498909 -0.105902 0.482081 0.432851 
-0.179163 0.412502 0.351797 -0.252174 0.318106 0.265162 -0.323048 0.186158 0.188621 
-0.0319036 0.594802 0.485006 -0.110339 0.5263 0.429288 -0.18316 0.454412 0.360963 
[...]
POINT_DATA 1002
FIELD FieldData 4
_paraPhi 1 1002 double
6.2831853072 3.1415926536 6.2831853072 3.1415926536 4.7123889804 4.7123889804 1.5707963268 1.5707963268 3.6951670125 
5.7296109483 2.5880182947 0.5535743589 6.2831853072 6.2831853072 6.2831853072 6.2831853072 3.1415926536 3.1415926536 
3.1415926536 3.1415926536 3.1415926536 6.1053039672 5.898798347 5.6768734901 5.4599499503 5.2659633393 5.1032165617 
4.9713148346 4.8656852733 4.7809517865 0.17788134 0.38438696014 0.60631181711 0.82323535693 1.0172219679 1.1799687454 
1.3118704726 1.4175000338 1.5022335207 6.1892828907 6.1070320098 6.035312792 5.9728339911 5.9183214791 5.8706119594 
5.8286879411 5.7916808611 5.7588591896 0.093902416448 0.17615329733 0.2478725152 0.31035131605 0.36486382811 0.41257334776 
0.45449736604 0.4915044461 0.52432611754 3.3194739936 3.5259796137 3.7479044707 3.9648280105 4.1588146215 4.321561399 
4.4534631262 4.5590926874 4.6438261743 2.9637113136 2.7572056934 2.5352808365 2.3183572967 2.1243706857 1.9616239082 
1.829722181 1.7240926197 1.6393591329 3.23549507 3.3177459509 3.3894651688 3.4519439696 3.5064564817 3.5541660013 
3.5960900196 3.6330970997 3.6659187711 3.0476902371 2.9654393563 2.8937201384 2.8312413375 2.7767288255 2.7290193058 
2.6870952876 2.6500882075 2.617266536 6.2831853072 6.2831853072 6.2831853072 6.2831853072 3.1415926536 3.1415926536 
3.1415926536 3.1415926536 3.1415926536 6.1053039672 5.898798347 5.6768734901 5.4599499503 5.2659633393 5.1032165617 
4.9713148346 4.8656852733 4.7809517865 0.17788134 0.38438696014 0.60631181711 0.82323535693 1.0172219679 1.1799687454 
1.3118704726 1.4175000338 1.5022335207 6.1892828907 6.1070320098 6.035312792 5.9728339911 5.9183214791 5.8706119594 
5.8286879411 5.7916808611 5.7588591896 0.093902416448 0.17615329733 0.2478725152 0.31035131605 0.36486382811 0.41257334776 
0.45449736604 0.4915044461 0.52432611754 3.3194739936 3.5259796137 3.7479044707 3.9648280105 4.1588146215 4.321561399 
4.4534631262 4.5590926874 4.6438261743 2.9637113136 2.7572056934 2.5352808365 2.3183572967 2.1243706857 1.9616239082 
1.829722181 1.7240926197 1.6393591329 3.23549507 3.3177459509 3.3894651688 3.4519439696 3.5064564817 3.5541660013 
3.5960900196 3.6330970997 3.6659187711 3.0476902371 2.9654393563 2.8937201384 2.8312413375 2.7767288255 2.7290193058 
2.6870952876 2.6500882075 2.617266536 4.7123889804 4.7123889804 4.7123889804 4.7123889804 4.7123889804 4.7123889804 
4.7123889804 4.7123889804 4.7123889804 4.6087898617 4.4991390697 4.3857031936 4.2712800401 4.1588146215 4.0509635631 
3.94975894 3.8564636551 3.7716124825 4.8159880991 4.9256388911 5.0390747672 5.1534979207 5.2659633393 5.3738143976 
5.4750190208 5.5683143056 5.6531654782 4.6087898617 4.4991390697 4.3857031936 4.2712800401 4.1588146215 4.0509635631 
3.94975894 3.8564636551 3.7716124825 4.8159880991 4.9256388911 5.0390747672 5.1534979207 5.2659633393 5.3738143976 
5.4750190208 5.5683143056 5.6531654782 1.5707963268 1.5707963268 1.5707963268 1.5707963268 1.5707963268 1.5707963268 
1.5707963268 1.5707963268 1.5707963268 1.6743954455 1.7840462375 1.8974821136 2.0119052671 2.1243706857 2.232221744 
2.3334263672 2.426721652 2.5115728246 1.4671972081 1.3575464161 1.24411054 1.1296873865 1.0172219679 0.90937090954 
0.80816628637 0.71487100155 0.63001982895 1.6743954455 1.7840462375 1.8974821136 2.0119052671 2.1243706857 2.232221744 
2.3334263672 2.426721652 2.5115728246 1.4671972081 1.3575464161 1.24411054 1.1296873865 1.0172219679 0.90937090954 
0.80816628637 0.71487100155 0.63001982895 3.6007720849 3.4966939854 3.3839471039 3.2645756454 3.1415926536 3.0186096618 
2.8992382033 2.7864913217 2.6824132222 5.8240058758 5.9280839753 6.0408308569 6.1602023154 6.2831853072 0.12298299178 
0.2423544503 0.35510133185 0.45917943135 6.0560271438 5.7885595667 5.9702140275 5.5125918794 5.6029703303 5.7885595667 
5.2659633393 5.2659633393 5.2659633393 5.2659633393 5.0674903122 5.0120975802 4.9155579264 4.7123889804 4.1588146215 
4.9155579264 4.8353719722 4.7123889804 4.5092200343 4.1588146215 3.6362183941 4.8004512023 4.7123889804 4.5894059886 
4.4126803806 4.1588146215 3.8218076305 3.4545639333 4.7123889804 4.6243267584 4.5092200343 4.3572876485 4.1588146215 
3.9121860814 3.6362183941 3.368750817 6.0174235957 5.9434319871 5.8263323547 5.8809213739 5.7674481418 5.6279784266 
5.8278025282 5.718968232 5.5891129425 5.4372443565 5.7823484065 5.678536687 5.5575666702 5.4192596322 5.2659633393 
5.743164462 5.6444075337 5.5314983644 5.4046708639 5.2659633393 5.1195510325 5.7091357773 5.6152775188 5.5096229709 
5.3926039573 5.2659633393 5.1329233157 4.9978930058 5.6793730533 5.5901633916 5.4910209005 5.3824597928 5.2659633393 
5.1440684722 5.0201624502 4.8979782167 5.5683143056 5.4750190208 5.4750190208 5.3738143976 5.3738143976 5.3738143976 
5.2659633393 5.2659633393 5.2659633393 5.2659633393 5.1534979207 5.1534979207 5.1534979207 5.1534979207 5.1534979207 
5.0390747672 5.0390747672 5.0390747672 5.0390747672 5.0390747672 5.0390747672 4.9256388911 4.9256388911 4.9256388911 
4.9256388911 4.9256388911 4.9256388911 4.9256388911 4.8159880991 4.8159880991 4.8159880991 4.8159880991 4.8159880991 
4.8159880991 4.8159880991 4.8159880991 4.6087898617 4.6087898617 4.4991390697 4.6087898617 4.4991390697 4.3857031936 
4.6087898617 4.4991390697 4.3857031936 4.2712800401 4.6087898617 4.4991390697 4.3857031936 4.2712800401 4.1588146215 
4.6087898617 4.4991390697 4.3857031936 4.2712800401 4.1588146215 4.0509635631 4.6087898617 4.4991390697 4.3857031936 
4.2712800401 4.1588146215 4.0509635631 3.94975894 4.6087898617 4.4991390697 4.3857031936 4.2712800401 4.1588146215 
4.0509635631 3.94975894 3.8564636551 4.526799744 4.4046155105 4.426884955 4.2807094886 4.2918546451 4.3052269283 
4.1588146215 4.1588146215 4.1588146215 4.1588146215 4.042318168 4.0321740035 4.0201070968 4.0055183285 3.9875336042 
3.9337570603 3.9151549899 3.8932795963 3.8672112905 3.8356650183 3.7967995342 3.8346145692 3.809500442 3.7803704271 
3.7462412737 3.7058097288 3.657329819 3.5984456061 3.7454049075 3.7156421835 3.6816134988 3.6424295543 3.5969754326 
3.5438565869 3.4813459737 3.4073543651 3.5642842451 3.4524645613 3.5233842518 3.3320300872 3.403123212 3.4773852225 
3.20576226 3.2746326772 3.348015857 3.4255060145 3.0774230472 3.1415926536 3.2112816139 3.2864685043 3.3668817272 
2.95115522 3.00855263 3.0719036933 3.1415926536 3.2178377658 3.3005964304 2.8307207459 2.8800620952 2.9351694502 
2.9967168029 3.0653475414 3.1415926536 3.225752376 2.718901062 2.7598010554 2.8058000847 2.8576792927 2.91630358 
2.9825888767 3.0574329311 3.1415926536 3.5642842451 3.5233842518 3.4524645613 3.4773852225 3.403123212 3.3320300872 
3.4255060145 3.348015857 3.2746326772 3.20576226 3.3668817272 3.2864685043 3.2112816139 3.1415926536 3.0774230472 
3.3005964304 3.2178377658 3.1415926536 3.0719036933 3.00855263 2.95115522 3.225752376 3.1415926536 3.0653475414 
2.9967168029 2.9351694502 2.8800620952 2.8307207459 3.1415926536 3.0574329311 2.9825888767 2.91630358 2.8576792927 
2.8058000847 2.7598010554 2.718901062 4.526799744 4.426884955 4.4046155105 4.3052269283 4.2918546451 4.2807094886 
4.1588146215 4.1588146215 4.1588146215 4.1588146215 3.9875336042 4.0055183285 4.0201070968 4.0321740035 4.042318168 
3.7967995342 3.8356650183 3.8672112905 3.8932795963 3.9151549899 3.9337570603 3.5984456061 3.657329819 3.7058097288 
3.7462412737 3.7803704271 3.809500442 3.8346145692 3.4073543651 3.4813459737 3.5438565869 3.5969754326 3.6424295543 
3.6816134988 3.7156421835 3.7454049075 4.7123889804 4.8004512023 4.6243267584 4.9155579264 4.7123889804 4.5092200343 
5.0674903122 4.8353719722 4.5894059886 4.3572876485 5.2659633393 5.0120975802 4.7123889804 4.4126803806 4.1588146215 
5.5125918794 5.2659633393 4.9155579264 4.5092200343 4.1588146215 3.9121860814 5.7885595667 5.6029703303 5.2659633393 
4.7123889804 4.1588146215 3.8218076305 3.6362183941 6.0560271438 5.9702140275 5.7885595667 5.2659633393 4.1588146215 
3.6362183941 3.4545639333 3.368750817 0.22715816343 0.49462574053 0.3129712797 0.77059342779 0.68021497688 0.49462574053 
1.0172219679 1.0172219679 1.0172219679 1.0172219679 1.2156949949 1.271087727 1.3676273807 1.5707963268 2.1243706857 
1.3676273807 1.447813335 1.5707963268 1.7739652728 2.1243706857 2.6469669131 1.4827341049 1.5707963268 1.6937793186 
1.8705049266 2.1243706857 2.4613776767 2.8286213739 1.5707963268 1.6588585487 1.7739652728 1.9258976586 2.1243706857 
2.3709992258 2.6469669131 2.9144344902 1.7563855631 1.8785697967 1.8563003522 2.0024758186 1.9913306621 1.9779583789 
2.1243706857 2.1243706857 2.1243706857 2.1243706857 2.2408671392 2.2510113037 2.2630782103 2.2776669786 2.295651703 
2.3494282469 2.3680303173 2.3899057108 2.4159740166 2.4475202889 2.486385773 2.448570738 2.4736848652 2.5028148801 
2.5369440334 2.5773755784 2.6258554882 2.6847397011 2.5377803997 2.5675431237 2.6015718084 2.6407557529 2.6862098746 
2.7393287203 2.8018393335 2.8758309421 1.6743954455 1.6743954455 1.7840462375 1.6743954455 1.7840462375 1.8974821136 
1.6743954455 1.7840462375 1.8974821136 2.0119052671 1.6743954455 1.7840462375 1.8974821136 2.0119052671 2.1243706857 
1.6743954455 1.7840462375 1.8974821136 2.0119052671 2.1243706857 2.232221744 1.6743954455 1.7840462375 1.8974821136 
2.0119052671 2.1243706857 2.232221744 2.3334263672 1.6743954455 1.7840462375 1.8974821136 2.0119052671 2.1243706857 
2.232221744 2.3334263672 2.426721652 1.4671972081 1.3575464161 1.4671972081 1.24411054 1.3575464161 1.4671972081 
1.1296873865 1.24411054 1.3575464161 1.4671972081 1.0172219679 1.1296873865 1.24411054 1.3575464161 1.4671972081 
0.90937090954 1.0172219679 1.1296873865 1.24411054 1.3575464161 1.4671972081 0.80816628637 0.90937090954 1.0172219679 
1.1296873865 1.24411054 1.3575464161 1.4671972081 0.71487100155 0.80816628637 0.90937090954 1.0172219679 1.1296873865 
1.24411054 1.3575464161 1.4671972081 0.60381225391 0.57404952988 0.69302191562 0.54002084522 0.66790778838 0.79216440667 
0.50083690068 0.63877777351 0.77356233629 0.90072551443 0.45538277901 0.60464862014 0.75168694275 0.89058134991 1.0172219679 
0.40226393329 0.56421707518 0.72561863695 0.87851444325 1.0172219679 1.139116835 0.33975332011 0.51573716537 0.69407236469 
0.86392567495 1.0172219679 1.1502619915 1.2630228569 0.26576171152 0.45685295248 0.6552068806 0.84594095064 1.0172219679 
1.1636342747 1.2852923014 1.3852070904 0.22715816343 0.3129712797 0.49462574053 0.49462574053 0.68021497688 0.77059342779 
1.0172219679 1.0172219679 1.0172219679 1.0172219679 2.1243706857 1.5707963268 1.3676273807 1.271087727 1.2156949949 
2.6469669131 2.1243706857 1.7739652728 1.5707963268 1.447813335 1.3676273807 2.8286213739 2.4613776767 2.1243706857 
1.8705049266 1.6937793186 1.5707963268 1.4827341049 2.9144344902 2.6469669131 2.3709992258 2.1243706857 1.9258976586 
1.7739652728 1.6588585487 1.5707963268 1.7563855631 1.8563003522 1.8785697967 1.9779583789 1.9913306621 2.0024758186 
2.1243706857 2.1243706857 2.1243706857 2.1243706857 2.295651703 2.2776669786 2.2630782103 2.2510113037 2.2408671392 
2.486385773 2.4475202889 2.4159740166 2.3899057108 2.3680303173 2.3494282469 2.6847397011 2.6258554882 2.5773755784 
2.5369440334 2.5028148801 2.4736848652 2.448570738 2.8758309421 2.8018393335 2.7393287203 2.6862098746 2.6407557529 
2.6015718084 2.5675431237 2.5377803997 5.8604937156 5.901393709 5.9723133995 5.9473927383 6.0216547488 6.0927478736 
5.9992719463 6.0767621038 6.1501452836 6.2190157008 6.0578962336 6.1383094565 6.2134963469 0 0.064169606361 
6.1241815303 6.206940195 6.2831853072 0.069688960264 0.13304002361 0.19043743361 6.1990255847 0 0.07624511221 
0.14487585072 0.20642320337 0.26153055843 0.3108719077 0 0.084159722458 0.15900377685 0.22528907359 0.28391336087 
0.3357925689 0.38179159818 0.42269159155 5.8604937156 5.9723133995 5.901393709 6.0927478736 6.0216547488 5.9473927383 
6.2190157008 6.1501452836 6.0767621038 5.9992719463 0.064169606361 0 6.2134963469 6.1383094565 6.0578962336 
0.19043743361 0.13304002361 0.069688960264 6.2831853072 6.206940195 6.1241815303 0.3108719077 0.26153055843 0.20642320337 
0.14487585072 0.07624511221 6.2831853072 6.1990255847 0.42269159155 0.38179159818 0.3357925689 0.28391336087 0.22528907359 
0.15900377685 0.084159722458 0 5.6793730533 5.7091357773 5.5901633916 5.743164462 5.6152775188 5.4910209005 
5.7823484065 5.6444075337 5.5096229709 5.3824597928 5.8278025282 5.678536687 5.5314983644 5.3926039573 5.2659633393 
5.8809213739 5.718968232 5.5575666702 5.4046708639 5.2659633393 5.1440684722 5.9434319871 5.7674481418 5.5891129425 
5.4192596322 5.2659633393 5.1329233157 5.0201624502 6.0174235957 5.8263323547 5.6279784266 5.4372443565 5.2659633393 
5.1195510325 4.9978930058 4.8979782167 1.3852070904 1.2852923014 1.2630228569 1.1636342747 1.1502619915 1.139116835 
1.0172219679 1.0172219679 1.0172219679 1.0172219679 0.84594095064 0.86392567495 0.87851444325 0.89058134991 0.90072551443 
0.6552068806 0.69407236469 0.72561863695 0.75168694275 0.77356233629 0.79216440667 0.45685295248 0.51573716537 0.56421707518 
0.60464862014 0.63877777351 0.66790778838 0.69302191562 0.26576171152 0.33975332011 0.40226393329 0.45538277901 0.50083690068 
0.54002084522 0.57404952988 0.60381225391 
_paraPhiHalf 1 1002 double
0 3.1415926536 0 3.1415926536 1.5707963268 1.5707963268 1.5707963268 1.5707963268 2.5880182947 
0.5535743589 2.5880182947 0.5535743589 0 0 0 0 3.1415926536 3.1415926536 
3.1415926536 3.1415926536 3.1415926536 0.17788134 0.38438696014 0.60631181711 0.82323535693 1.0172219679 1.1799687454 
1.3118704726 1.4175000338 1.5022335207 0.17788134 0.38438696014 0.60631181711 0.82323535693 1.0172219679 1.1799687454 
1.3118704726 1.4175000338 1.5022335207 0.093902416448 0.17615329733 0.2478725152 0.31035131605 0.36486382811 0.41257334776 
0.45449736604 0.4915044461 0.52432611754 0.093902416448 0.17615329733 0.2478725152 0.31035131605 0.36486382811 0.41257334776 
0.45449736604 0.4915044461 0.52432611754 2.9637113136 2.7572056934 2.5352808365 2.3183572967 2.1243706857 1.9616239082 
1.829722181 1.7240926197 1.6393591329 2.9637113136 2.7572056934 2.5352808365 2.3183572967 2.1243706857 1.9616239082 
1.829722181 1.7240926197 1.6393591329 3.0476902371 2.9654393563 2.8937201384 2.8312413375 2.7767288255 2.7290193058 
2.6870952876 2.6500882075 2.617266536 3.0476902371 2.9654393563 2.8937201384 2.8312413375 2.7767288255 2.7290193058 
2.6870952876 2.6500882075 2.617266536 0 0 0 0 3.1415926536 3.1415926536 
3.1415926536 3.1415926536 3.1415926536 0.17788134 0.38438696014 0.60631181711 0.82323535693 1.0172219679 1.1799687454 
1.3118704726 1.4175000338 1.5022335207 0.17788134 0.38438696014 0.60631181711 0.82323535693 1.0172219679 1.1799687454 
1.3118704726 1.4175000338 1.5022335207 0.093902416448 0.17615329733 0.2478725152 0.31035131605 0.36486382811 0.41257334776 
0.45449736604 0.4915044461 0.52432611754 0.093902416448 0.17615329733 0.2478725152 0.31035131605 0.36486382811 0.41257334776 
0.45449736604 0.4915044461 0.52432611754 2.9637113136 2.7572056934 2.5352808365 2.3183572967 2.1243706857 1.9616239082 
1.829722181 1.7240926197 1.6393591329 2.9637113136 2.7572056934 2.5352808365 2.3183572967 2.1243706857 1.9616239082 
1.829722181 1.7240926197 1.6393591329 3.0476902371 2.9654393563 2.8937201384 2.8312413375 2.7767288255 2.7290193058 
2.6870952876 2.6500882075 2.617266536 3.0476902371 2.9654393563 2.8937201384 2.8312413375 2.7767288255 2.7290193058 
2.6870952876 2.6500882075 2.617266536 1.5707963268 1.5707963268 1.5707963268 1.5707963268 1.5707963268 1.5707963268 
1.5707963268 1.5707963268 1.5707963268 1.6743954455 1.7840462375 1.8974821136 2.0119052671 2.1243706857 2.232221744 
2.3334263672 2.426721652 2.5115728246 1.4671972081 1.3575464161 1.24411054 1.1296873865 1.0172219679 0.90937090954 
0.80816628637 0.71487100155 0.63001982895 1.6743954455 1.7840462375 1.8974821136 2.0119052671 2.1243706857 2.232221744 
2.3334263672 2.426721652 2.5115728246 1.4671972081 1.3575464161 1.24411054 1.1296873865 1.0172219679 0.90937090954 
0.80816628637 0.71487100155 0.63001982895 1.5707963268 1.5707963268 1.5707963268 1.5707963268 1.5707963268 1.5707963268 
1.5707963268 1.5707963268 1.5707963268 1.6743954455 1.7840462375 1.8974821136 2.0119052671 2.1243706857 2.232221744 
2.3334263672 2.426721652 2.5115728246 1.4671972081 1.3575464161 1.24411054 1.1296873865 1.0172219679 0.90937090954 
0.80816628637 0.71487100155 0.63001982895 1.6743954455 1.7840462375 1.8974821136 2.0119052671 2.1243706857 2.232221744 
2.3334263672 2.426721652 2.5115728246 1.4671972081 1.3575464161 1.24411054 1.1296873865 1.0172219679 0.90937090954 
0.80816628637 0.71487100155 0.63001982895 2.6824132222 2.7864913217 2.8992382033 3.0186096618 3.1415926536 3.0186096618 
2.8992382033 2.7864913217 2.6824132222 0.45917943135 0.35510133185 0.2423544503 0.12298299178 0 0.12298299178 
0.2423544503 0.35510133185 0.45917943135 0.22715816343 0.49462574053 0.3129712797 0.77059342779 0.68021497688 0.49462574053 
1.0172219679 1.0172219679 1.0172219679 1.0172219679 1.2156949949 1.271087727 1.3676273807 1.5707963268 2.1243706857 
1.3676273807 1.447813335 1.5707963268 1.7739652728 2.1243706857 2.6469669131 1.4827341049 1.5707963268 1.6937793186 
1.8705049266 2.1243706857 2.4613776767 2.8286213739 1.5707963268 1.6588585487 1.7739652728 1.9258976586 2.1243706857 
2.3709992258 2.6469669131 2.9144344902 0.26576171152 0.33975332011 0.45685295248 0.40226393329 0.51573716537 0.6552068806 
0.45538277901 0.56421707518 0.69407236469 0.84594095064 0.50083690068 0.60464862014 0.72561863695 0.86392567495 1.0172219679 
0.54002084522 0.63877777351 0.75168694275 0.87851444325 1.0172219679 1.1636342747 0.57404952988 0.66790778838 0.77356233629 
0.89058134991 1.0172219679 1.1502619915 1.2852923014 0.60381225391 0.69302191562 0.79216440667 0.90072551443 1.0172219679 
1.139116835 1.2630228569 1.3852070904 0.71487100155 0.80816628637 0.80816628637 0.90937090954 0.90937090954 0.90937090954 
1.0172219679 1.0172219679 1.0172219679 1.0172219679 1.1296873865 1.1296873865 1.1296873865 1.1296873865 1.1296873865 
1.24411054 1.24411054 1.24411054 1.24411054 1.24411054 1.24411054 1.3575464161 1.3575464161 1.3575464161 
1.3575464161 1.3575464161 1.3575464161 1.3575464161 1.4671972081 1.4671972081 1.4671972081 1.4671972081 1.4671972081 
1.4671972081 1.4671972081 1.4671972081 1.6743954455 1.6743954455 1.7840462375 1.6743954455 1.7840462375 1.8974821136 
1.6743954455 1.7840462375 1.8974821136 2.0119052671 1.6743954455 1.7840462375 1.8974821136 2.0119052671 2.1243706857 
1.6743954455 1.7840462375 1.8974821136 2.0119052671 2.1243706857 2.232221744 1.6743954455 1.7840462375 1.8974821136 
2.0119052671 2.1243706857 2.232221744 2.3334263672 1.6743954455 1.7840462375 1.8974821136 2.0119052671 2.1243706857 
2.232221744 2.3334263672 2.426721652 1.7563855631 1.8785697967 1.8563003522 2.0024758186 1.9913306621 1.9779583789 
2.1243706857 2.1243706857 2.1243706857 2.1243706857 2.2408671392 2.2510113037 2.2630782103 2.2776669786 2.295651703 
2.3494282469 2.3680303173 2.3899057108 2.4159740166 2.4475202889 2.486385773 2.448570738 2.4736848652 2.5028148801 
2.5369440334 2.5773755784 2.6258554882 2.6847397011 2.5377803997 2.5675431237 2.6015718084 2.6407557529 2.6862098746 
2.7393287203 2.8018393335 2.8758309421 2.718901062 2.8307207459 2.7598010554 2.95115522 2.8800620952 2.8058000847 
3.0774230472 3.00855263 2.9351694502 2.8576792927 3.0774230472 3.1415926536 3.0719036933 2.9967168029 2.91630358 
2.95115522 3.00855263 3.0719036933 3.1415926536 3.0653475414 2.9825888767 2.8307207459 2.8800620952 2.9351694502 
2.9967168029 3.0653475414 3.1415926536 3.0574329311 2.718901062 2.7598010554 2.8058000847 2.8576792927 2.91630358 
2.9825888767 3.0574329311 3.1415926536 2.718901062 2.7598010554 2.8307207459 2.8058000847 2.8800620952 2.95115522 
2.8576792927 2.9351694502 3.00855263 3.0774230472 2.91630358 2.9967168029 3.0719036933 3.1415926536 3.0774230472 
2.9825888767 3.0653475414 3.1415926536 3.0719036933 3.00855263 2.95115522 3.0574329311 3.1415926536 3.0653475414 