# vtk DataFile Version 5.1
vtk output
ASCII
DATASET POLYDATA
POINTS 1002 float
-12.8737 -0.526965 -3.26908 12.5396 0.331668 -4.14584 -12.9166 1.07551 3.60653 
12.0185 -0.578543 5.1357 0.515093 9.03083 -2.44266 0.149941 8.41509 3.6964 
1.20892 -0.457667 -0.272616 1.04861 -1.41289 3.8664 20.5514 1.99289 -0.541316 
-21.1232 1.10803 0.086553 19.9865 -8.7964 -2.10048 -22.109 -8.06281 -1.27637 
-11.0323 0.836368 -2.33083 -8.57837 2.05433 -1.75867 -5.58487 2.87186 -1.67579 
-2.4002 3.23635 -1.96809 0.731503 3.19665 -2.63363 3.76512 2.78897 -3.58803 
6.56695 2.14472 -4.33662 8.95023 1.4754 -4.51785 10.9056 0.880532 -4.34013 
-12.0733 0.472133 -2.93083 -11.0184 1.60655 -2.56281 -9.61562 2.8362 -2.24118 
-7.91073 4.0938 -2.06213 -6.1554 5.29934 -2.04571 -4.57602 6.35695 -2.1003 
-3.16571 7.20543 -2.14085 -1.83455 7.88526 -2.1862 -0.589768 8.48382 -2.29052 
-12.5242 -0.582089 -2.95566 -11.9634 -0.548878 -2.65234 -11.0969 -0.453493 -2.33554 
-9.94864 -0.26024 -1.87626 -8.60264 0.0922816 -1.19807 -7.01761 0.501876 -0.485212 
-5.10571 0.706068 -0.0420748 -2.96341 0.558916 0.0457387 -0.810343 0.130692 -0.0773437 
-14.0412 -1.23217 -4.10227 -15.2975 -1.69253 -4.7431 -16.6631 -1.7758 -4.80159 
-17.9584 -1.56123 -4.225 -18.9949 -1.22756 -3.39929 -19.8171 -0.837268 -2.65553 
-20.5339 -0.3658 -1.96508 -21.0698 0.156506 -1.23352 -21.2775 0.660846 -0.517938 
-14.3042 -1.98446 -4.07117 -15.8597 -3.42627 -4.58767 -17.6462 -4.63535 -4.52883 
-19.4898 -5.6059 -4.10414 -21.0062 -6.61542 -3.80073 -22.0083 -7.79021 -3.6332 
-22.5839 -8.75922 -3.20687 -22.7978 -9.07081 -2.46959 -22.6264 -8.72253 -1.7538 
11.7587 1.21598 -4.03352 10.8489 2.13723 -4.04396 9.82928 3.09155 -4.2393 
8.71556 4.11801 -4.46037 7.51999 5.18565 -4.53408 6.21595 6.18623 -4.45053 
4.78074 7.07571 -4.19618 3.28715 7.87076 -3.71305 1.85018 8.53983 -3.07438 
12.2453 -0.193553 -4.29896 11.7294 -0.654051 -4.20744 10.9532 -0.961044 -3.87309 
10.0009 -1.15907 -3.56731 8.92567 -1.31879 -3.38961 7.64214 -1.36162 -3.03905 
6.11147 -1.19938 -2.34867 4.45912 -0.921445 -1.55193 2.81481 -0.662971 -0.862312 
13.6388 0.294564 -3.93199 14.8521 0.221086 -3.80316 16.1332 0.201372 -3.68953 
17.2833 0.315586 -3.36184 18.2361 0.483593 -2.82978 19.2094 0.620897 -2.43594 
20.2619 0.839727 -2.2668 21.0123 1.23617 -1.97415 21.0921 1.68113 -1.3438 
13.9192 -0.593627 -4.10102 15.2348 -1.6451 -3.86638 16.4119 -2.78132 -3.38944 
17.5366 -3.93314 -3.07814 18.6623 -5.05768 -3.37074 19.5793 -6.15136 -3.94135 
20.0728 -7.17719 -4.05446 20.2201 -8.02328 -3.55511 20.1839 -8.57345 -2.81527 
-10.3423 1.83729 3.59141 -7.43719 2.59095 3.86002 -4.50511 3.16317 4.49797 
-1.685 3.29126 5.06069 1.20906 2.82626 4.97454 4.1971 1.97847 4.49395 
6.84702 1.13905 4.41627 8.87537 0.47305 4.83785 10.501 -0.0846894 5.18025 
-11.6 1.77934 3.28048 -10.114 2.57448 3.10699 -8.58245 3.46364 3.26593 
-7.07181 4.42697 3.64774 -5.61104 5.42889 4.03251 -4.25166 6.41507 4.37266 
-3.03231 7.28007 4.63401 -1.92553 7.90715 4.64043 -0.8747 8.26531 4.29416 
-12.5197 0.876697 3.76966 -11.7447 0.701696 3.66832 -10.5656 0.570097 3.47268 
-9.16198 0.499757 3.54522 -7.73714 0.467972 3.89329 -6.2635 0.415934 4.08926 
-4.57635 0.271539 3.97494 -2.66972 -0.0579611 3.84418 -0.7317 -0.635171 3.86243 
-14.4862 0.758224 3.41923 -16.0189 0.503818 3.16969 -17.5426 0.37061 3.00565 
-18.9256 0.355228 2.92489 -20.0067 0.419645 2.72988 -20.8663 0.571086 2.36333 
-21.6019 0.805432 1.94959 -22.0036 1.01916 1.4795 -21.8241 1.11214 0.847989 
-15.0847 0.154561 3.81911 -17.0133 -0.879229 3.74418 -18.4386 -2.00536 3.13334 
-19.3587 -3.17128 2.1308 -20.0678 -4.28035 1.11191 -20.8372 -5.22803 0.274219 
-21.6263 -6.01069 -0.353699 -22.1889 -6.73535 -0.753714 -22.3484 -7.45095 -1.0048 
11.4716 0.234122 5.14934 10.7871 1.14474 4.95001 10.0053 2.05347 4.43494 
9.09042 2.89196 3.69068 7.88939 3.75381 3.06708 6.33853 4.77207 2.87979 
4.61481 5.88762 3.07949 2.95267 6.91506 3.38403 1.45869 7.75456 3.60103 
11.4724 -1.03977 5.22238 10.7742 -1.5009 5.31231 10.0079 -1.9799 5.21947 
9.2013 -2.42003 4.89167 8.27547 -2.69724 4.53164 7.16359 -2.7378 4.31338 
5.8705 -2.55696 4.1769 4.39495 -2.20814 4.04183 2.7522 -1.78422 3.93631 
13.2682 -0.513982 5.02472 14.5377 -0.288272 5.09209 15.7799 0.0764218 5.20015 
17.0739 0.365542 4.80444 18.4279 0.399928 3.63591 19.5946 0.361319 2.26079 
20.3395 0.58865 1.32903 20.6934 1.10056 0.757649 20.7613 1.63023 0.160476 
13.3205 -1.33877 4.82041 14.7023 -2.11323 4.36762 15.9487 -2.89453 4.0247 
16.9412 -3.70547 3.70788 17.8292 -4.56777 2.97054 18.8049 -5.50423 1.66035 
19.7492 -6.5227 0.226913 20.3229 -7.52526 -0.862003 20.3569 -8.32384 -1.57107 
0.320289 9.63772 -2.13951 0.0216743 10.2714 -1.65189 -0.336843 10.74 -0.855979 
-0.563567 10.8488 0.145431 -0.522511 10.608 1.06961 -0.324133 10.2008 1.75863 
-0.15814 9.75541 2.29224 -0.0608739 9.29624 2.7902 0.0320767 8.84039 3.27124 
2.38396 9.16356 -2.96025 4.34582 8.95155 -3.34103 6.51095 8.38738 -3.44113 
9.00375 7.6064 -3.27522 11.6558 6.71739 -2.94705 14.0377 5.71485 -2.50676 
15.9498 4.63033 -1.97279 17.5798 3.59687 -1.41705 19.1236 2.7169 -0.929192 
-1.55378 8.95594 -1.77751 -3.84138 8.58723 -1.3158 -6.23738 8.04097 -1.15106 
-8.69905 7.36357 -1.12108 -11.1353 6.37298 -1.11427 -13.3254 4.95323 -1.24814 
-15.2412 3.41562 -1.44431 -17.1605 2.23008 -1.31017 -19.206 1.53184 -0.697958 
2.08154 7.98979 2.85785 4.2871 7.35778 1.91618 6.58968 6.68259 1.23844 
8.82252 6.09388 1.05337 10.9391 5.56041 1.21075 12.9661 4.94288 1.32237 
14.9416 4.18977 1.13384 16.9058 3.39255 0.664561 18.8252 2.65282 0.0642826 
-1.70907 8.8286 4.02116 -3.56469 8.85913 3.9577 -5.43719 8.32122 3.40726 
-7.49137 7.18792 2.48091 -9.90165 5.71793 1.47704 -12.5897 4.32258 0.690272 
-15.2343 3.24158 0.245032 -17.576 2.43541 0.0986474 -19.5413 1.7575 0.105667 
1.43765 -0.730345 0.00260259 1.69235 -0.972066 0.395537 1.93976 -1.23435 0.794254 
2.07523 -1.59808 1.06443 1.97258 -2.0073 1.30042 1.65615 -2.26261 1.76877 
1.32165 -2.251 2.5038 1.12218 -2.0393 3.22338 1.05387 -1.7388 3.67959 
4.21067 -1.42749 -0.951998 7.28058 -2.80559 -1.78516 10.1883 -4.57682 -2.61656 
12.5744 -6.60796 -3.25151 14.1636 -8.46179 -3.46907 15.1623 -9.61447 -3.21621 
16.1402 -9.94606 -2.75065 17.3994 -9.75041 -2.38892 18.7735 -9.32662 -2.20974 
-1.82598 -0.0303532 0.318104 -5.24627 -0.206088 0.486708 -8.62205 -1.40166 0.000624459 
-11.3395 -3.56734 -0.985155 -13.1924 -5.8955 -1.88829 -14.7218 -7.44348 -2.20024 
-16.5523 -8.0341 -1.98225 -18.6531 -8.14048 -1.64817 -20.5908 -8.13786 -1.43078 
3.77545 -2.68703 3.69381 6.47972 -4.27505 3.13403 9.09842 -5.83036 2.19446 
11.4652 -7.17028 1.24656 13.329 -8.32767 0.721607 14.7288 -9.21879 0.527681 
16.0405 -9.61882 0.174789 17.4708 -9.53161 -0.537485 18.8602 -9.19975 -1.38332 
-1.90747 -0.810394 3.77221 -5.16749 -0.862454 3.43626 -8.29111 -1.68483 2.77751 
-10.8508 -3.04899 1.97383 -12.824 -4.52445 1.33787 -14.6071 -5.72265 0.872939 
-16.5321 -6.4892 0.311811 -18.5638 -6.98148 -0.370523 -20.48 -7.4735 -0.935753 
22.3785 1.20625 -0.697214 24.0189 0.412316 -0.799342 25.0491 -0.476351 -0.74551 
25.3006 -1.561 -0.59568 24.9538 -2.89239 -0.628164 24.2533 -4.41799 -1.04333 
23.3458 -5.93608 -1.67814 22.3224 -7.19628 -2.16892 21.2057 -8.11366 -2.29728 
-22.9938 0.358348 0.332803 -24.5407 -0.727076 0.000922799 -25.6626 -2.20129 -0.975551 
-26.6044 -3.88749 -1.97205 -27.4449 -5.49953 -2.19507 -27.6948 -6.85281 -1.67138 
-26.9529 -7.83429 -1.15153 -25.4961 -8.32017 -1.07239 -23.8128 -8.32135 -1.22648 
-9.92505 1.84176 -2.07011 -8.51635 2.94397 -1.87944 -7.15753 2.96412 -1.71419 
-6.80545 4.06429 -1.83205 -5.50541 3.91835 -1.75204 -4.00528 3.61187 -1.84434 
-4.94288 5.09665 -2.02498 -3.67164 4.78954 -1.99879 -2.30692 4.33768 -2.10292 
-0.789186 3.77568 -2.37166 -3.17987 6.00093 -2.41905 -1.79169 5.50262 -2.59623 
-0.494714 4.92719 -2.68173 0.893496 4.2739 -2.9345 2.38364 3.54701 -3.31484 
-1.65088 6.79384 -2.78915 -0.0726795 6.14895 -3.34294 1.31498 5.42237 -3.58876 
2.61212 4.69356 -3.75139 4.00559 3.91184 -4.02492 5.37913 3.04578 -4.26331 
-0.327617 7.48067 -2.97083 1.33449 6.80782 -3.80098 2.86903 5.98215 -4.32301 
4.18313 5.14031 -4.51839 5.45701 4.29499 -4.60194 6.75128 3.39454 -4.63169 
7.93559 2.43379 -4.58898 0.835278 8.05929 -3.02449 2.42159 7.40935 -3.84334 
3.99898 6.58782 -4.4653 5.39266 5.67947 -4.75482 6.63221 4.72852 -4.79343 
7.82946 3.76148 -4.66299 8.97396 2.79197 -4.45988 10.0054 1.81993 -4.34046 
-13.2798 -0.125572 -3.76155 -14.4811 -0.501689 -4.47796 -12.2257 1.14483 -3.29198 
-15.6317 -0.532464 -4.6962 -13.2972 0.860436 -3.99529 -10.7518 2.54116 -2.79943 
-16.6239 -0.294254 -4.32288 -14.1761 0.87876 -4.33863 -11.6714 2.38732 -3.39778 
-8.98268 4.01793 -2.39731 -17.4535 0.0513405 -3.61523 -14.9339 1.14636 -4.15556 
-12.3995 2.49173 -3.76621 -9.85903 4.03268 -2.80485 -7.25074 5.4418 -2.09431 
-18.1945 0.42295 -2.82778 -15.7094 1.50119 -3.54009 -13.1717 2.80502 -3.64352 
-10.6464 4.21504 -3.07142 -8.18303 5.56443 -2.26004 -5.7067 6.61431 -1.8504 
-18.805 0.802677 -2.05075 -16.4533 1.81217 -2.73148 -14.0783 3.14734 -3.00808 
-11.5951 4.53587 -2.8515 -9.08989 5.75871 -2.34417 -6.66961 6.76255 -1.79601 
-4.25455 7.49634 -1.69389 -19.16 1.17595 -1.32749 -16.9677 2.04241 -1.95571 
-14.8543 3.35726 -2.16505 -12.6193 4.83675 -2.10814 -10.1483 6.07543 -1.95223 
-7.63992 6.98613 -1.67813 -5.21832 7.70606 -1.47455 -2.84729 8.24053 -1.67727 
-17.5293 2.27102 -0.620097 -15.5235 3.15082 -0.360535 -15.5284 3.21973 -0.901169 
-13.1404 4.28847 0.178625 -13.531 4.43988 -0.226389 -13.6636 4.73557 -0.622515 
-10.4891 5.74318 0.990503 -11.0979 5.9272 0.627668 -11.6185 6.24911 0.330441 
-11.6926 6.45715 -0.236503 -7.93947 7.33924 1.9841 -8.49861 7.56156 1.55732 
-9.18358 7.86058 1.24099 -9.62625 8.01214 0.718903 -9.42411 7.80704 -0.188502 
-5.76307 8.65245 2.93724 -6.15191 8.97963 2.44743 -6.74485 9.29629 2.03106 
-7.3398 9.44457 1.49129 -7.4483 9.20505 0.59073 -6.95409 8.63357 -0.435976 
-3.8393 9.32005 3.53707 -4.1067 9.76956 3.05313 -4.51113 10.1681 2.5734 
[...]
POINT_DATA 1002
FIELD FieldData 4
_paraPhi 1 1002 double
6.2831853072 3.1415926536 6.2831853072 3.1415926536 4.7123889804 4.7123889804 1.5707963268 1.5707963268 3.6951670125 
5.7296109483 2.5880182947 0.5535743589 6.2831853072 6.2831853072 6.2831853072 6.2831853072 3.1415926536 3.1415926536 
3.1415926536 3.1415926536 3.1415926536 6.1053039672 5.898798347 5.6768734901 5.4599499503 5.2659633393 5.1032165617 
4.9713148346 4.8656852733 4.7809517865 0.17788134 0.38438696014 0.60631181711 0.82323535693 1.0172219679 1.1799687454 
1.3118704726 1.4175000338 1.5022335207 6.1892828907 6.1070320098 6.035312792 5.9728339911 5.9183214791 5.8706119594 
5.8286879411 5.7916808611 5.7588591896 0.093902416448 0.17615329733 0.2478725152 0.31035131605 0.36486382811 0.41257334776 
0.45449736604 0.4915044461 0.52432611754 3.3194739936 3.5259796137 3.7479044707 3.9648280105 4.1588146215 4.321561399 
4.4534631262 4.5590926874 4.6438261743 2.9637113136 2.7572056934 2.5352808365 2.3183572967 2.1243706857 1.9616239082 
1.829722181 1.7240926197 1.6393591329 3.23549507 3.3177459509 3.3894651688 3.4519439696 3.5064564817 3.5541660013 
3.5960900196 3.6330970997 3.6659187711 3.0476902371 2.9654393563 2.8937201384 2.8312413375 2.7767288255 2.7290193058 
2.6870952876 2.6500882075 2.617266536 6.2831853072 6.2831853072 6.2831853072 6.2831853072 3.1415926536 3.1415926536 
3.1415926536 3.1415926536 3.1415926536 6.1053039672 5.898798347 5.6768734901 5.4599499503 5.2659633393 5.1032165617 
4.9713148346 4.8656852733 4.7809517865 0.17788134 0.38438696014 0.60631181711 0.82323535693 1.0172219679 1.1799687454 
1.3118704726 1.4175000338 1.5022335207 6.1892828907 6.1070320098 6.035312792 5.9728339911 5.9183214791 5.8706119594 
5.8286879411 5.7916808611 5.7588591896 0.093902416448 0.17615329733 0.2478725152 0.31035131605 0.36486382811 0.41257334776 
0.45449736604 0.4915044461 0.52432611754 3.3194739936 3.5259796137 3.7479044707 3.9648280105 4.1588146215 4.321561399 
4.4534631262 4.5590926874 4.6438261743 2.9637113136 2.7572056934 2.5352808365 2.3183572967 2.1243706857 1.9616239082 
1.829722181 1.7240926197 1.6393591329 3.23549507 3.3177459509 3.3894651688 3.4519439696 3.5064564817 3.5541660013 
3.5960900196 3.6330970997 3.6659187711 3.0476902371 2.9654393563 2.8937201384 2.8312413375 2.7767288255 2.7290193058 
2.6870952876 2.6500882075 2.617266536 4.7123889804 4.7123889804 4.7123889804 4.7123889804 4.7123889804 4.7123889804 
4.7123889804 4.7123889804 4.7123889804 4.6087898617 4.4991390697 4.3857031936 4.2712800401 4.1588146215 4.0509635631 
3.94975894 3.8564636551 3.7716124825 4.8159880991 4.9256388911 5.0390747672 5.1534979207 5.2659633393 5.3738143976 
5.4750190208 5.5683143056 5.6531654782 4.6087898617 4.4991390697 4.3857031936 4.2712800401 4.1588146215 4.0509635631 
3.94975894 3.8564636551 3.7716124825 4.8159880991 4.9256388911 5.0390747672 5.1534979207 5.2659633393 5.3738143976 
5.4750190208 5.5683143056 5.6531654782 1.5707963268 1.5707963268 1.5707963268 1.5707963268 1.5707963268 1.5707963268 
1.5707963268 1.5707963268 1.5707963268 1.6743954455 1.7840462375 1.8974821136 2.0119052671 2.1243706857 2.232221744 
2.3334263672 2.426721652 2.5115728246 1.4671972081 1.3575464161 1.24411054 1.1296873865 1.0172219679 0.90937090954 
0.80816628637 0.71487100155 0.63001982895 1.6743954455 1.7840462375 1.8974821136 2.0119052671 2.1243706857 2.232221744 
2.3334263672 2.426721652 2.5115728246 1.4671972081 1.3575464161 1.24411054 1.1296873865 1.0172219679 0.90937090954 
0.80816628637 0.71487100155 0.63001982895 3.6007720849 3.4966939854 3.3839471039 3.2645756454 3.1415926536 3.0186096618 
2.8992382033 2.7864913217 2.6824132222 5.8240058758 5.9280839753 6.0408308569 6.1602023154 6.2831853072 0.12298299178 
0.2423544503 0.35510133185 0.45917943135 6.0560271438 5.7885595667 5.9702140275 5.5125918794 5.6029703303 5.7885595667 
5.2659633393 5.2659633393 5.2659633393 5.2659633393 5.0674903122 5.0120975802 4.9155579264 4.7123889804 4.1588146215 
4.9155579264 4.8353719722 4.7123889804 4.5092200343 4.1588146215 3.6362183941 4.8004512023 4.7123889804 4.5894059886 
4.4126803806 4.1588146215 3.8218076305 3.4545639333 4.7123889804 4.6243267584 4.5092200343 4.3572876485 4.1588146215 
3.9121860814 3.6362183941 3.368750817 6.0174235957 5.9434319871 5.8263323547 5.8809213739 5.7674481418 5.6279784266 
5.8278025282 5.718968232 5.5891129425 5.4372443565 5.7823484065 5.678536687 5.5575666702 5.4192596322 5.2659633393 
5.743164462 5.6444075337 5.5314983644 5.4046708639 5.2659633393 5.1195510325 5.7091357773 5.6152775188 5.5096229709 
5.3926039573 5.2659633393 5.1329233157 4.9978930058 5.6793730533 5.5901633916 5.4910209005 5.3824597928 5.2659633393 
5.1440684722 5.0201624502 4.8979782167 5.5683143056 5.4750190208 5.4750190208 5.3738143976 5.3738143976 5.3738143976 
5.2659633393 5.2659633393 5.2659633393 5.2659633393 5.1534979207 5.1534979207 5.1534979207 5.1534979207 5.1534979207 
5.0390747672 5.0390747672 5.0390747672 5.0390747672 5.0390747672 5.0390747672 4.9256388911 4.9256388911 4.9256388911 
4.9256388911 4.9256388911 4.9256388911 4.9256388911 4.8159880991 4.8159880991 4.8159880991 4.8159880991 4.8159880991 
4.8159880991 4.8159880991 4.8159880991 4.6087898617 4.6087898617 4.4991390697 4.6087898617 4.4991390697 4.3857031936 
4.6087898617 4.4991390697 4.3857031936 4.2712800401 4.6087898617 4.4991390697 4.3857031936 4.2712800401 4.1588146215 
4.6087898617 4.4991390697 4.3857031936 4.2712800401 4.1588146215 4.0509635631 4.6087898617 4.4991390697 4.3857031936 
4.2712800401 4.1588146215 4.0509635631 3.94975894 4.6087898617 4.4991390697 4.3857031936 4.2712800401 4.1588146215 
4.0509635631 3.94975894 3.8564636551 4.526799744 4.4046155105 4.426884955 4.2807094886 4.2918546451 4.3052269283 
4.1588146215 4.1588146215 4.1588146215 4.1588146215 4.042318168 4.0321740035 4.0201070968 4.0055183285 3.9875336042 
3.9337570603 3.9151549899 3.8932795963 3.8672112905 3.8356650183 3.7967995342 3.8346145692 3.809500442 3.7803704271 
3.7462412737 3.7058097288 3.657329819 3.5984456061 3.7454049075 3.7156421835 3.6816134988 3.6424295543 3.5969754326 
3.5438565869 3.4813459737 3.4073543651 3.5642842451 3.4524645613 3.5233842518 3.3320300872 3.403123212 3.4773852225 
3.20576226 3.2746326772 3.348015857 3.4255060145 3.0774230472 3.1415926536 3.2112816139 3.2864685043 3.3668817272 
2.95115522 3.00855263 3.0719036933 3.1415926536 3.2178377658 3.3005964304 2.8307207459 2.8800620952 2.9351694502 
2.9967168029 3.0653475414 3.1415926536 3.225752376 2.718901062 2.7598010554 2.8058000847 2.8576792927 2.91630358 
2.9825888767 3.0574329311 3.1415926536 3.5642842451 3.5233842518 3.4524645613 3.4773852225 3.403123212 3.3320300872 
3.4255060145 3.348015857 3.2746326772 3.20576226 3.3668817272 3.2864685043 3.2112816139 3.1415926536 3.0774230472 
3.3005964304 3.2178377658 3.1415926536 3.0719036933 3.00855263 2.95115522 3.225752376 3.1415926536 3.0653475414 
2.9967168029 2.9351694502 2.8800620952 2.8307207459 3.1415926536 3.0574329311 2.9825888767 2.91630358 2.8576792927 
2.8058000847 2.7598010554 2.718901062 4.526799744 4.426884955 4.4046155105 4.3052269283 4.2918546451 4.2807094886 
4.1588146215 4.1588146215 4.1588146215 4.1588146215 3.9875336042 4.0055183285 4.0201070968 4.0321740035 4.042318168 
3.7967995342 3.8356650183 3.8672112905 3.8932795963 3.9151549899 3.9337570603 3.5984456061 3.657329819 3.7058097288 
3.7462412737 3.7803704271 3.809500442 3.8346145692 3.4073543651 3.4813459737 3.5438565869 3.5969754326 3.6424295543 
3.6816134988 3.7156421835 3.7454049075 4.7123889804 4.8004512023 4.6243267584 4.9155579264 4.7123889804 4.5092200343 
5.0674903122 4.8353719722 4.5894059886 4.3572876485 5.2659633393 5.0120975802 4.7123889804 4.4126803806 4.1588146215 
5.5125918794 5.2659633393 4.9155579264 4.5092200343 4.1588146215 3.9121860814 5.7885595667 5.6029703303 5.2659633393 
4.7123889804 4.1588146215 3.8218076305 3.6362183941 6.0560271438 5.9702140275 5.7885595667 5.2659633393 4.1588146215 
3.6362183941 3.4545639333 3.368750817 0.22715816343 0.49462574053 0.3129712797 0.77059342779 0.68021497688 0.49462574053 
1.0172219679 1.0172219679 1.0172219679 1.0172219679 1.2156949949 1.271087727 1.3676273807 1.5707963268 2.1243706857 
1.3676273807 1.447813335 1.5707963268 1.7739652728 2.1243706857 2.6469669131 1.4827341049 1.5707963268 1.6937793186 
1.8705049266 2.1243706857 2.4613776767 2.8286213739 1.5707963268 1.6588585487 1.7739652728 1.9258976586 2.1243706857 
2.3709992258 2.6469669131 2.9144344902 1.7563855631 1.8785697967 1.8563003522 2.0024758186 1.9913306621 1.9779583789 
2.1243706857 2.1243706857 2.1243706857 2.1243706857 2.2408671392 2.2510113037 2.2630782103 2.2776669786 2.295651703 
2.3494282469 2.3680303173 2.3899057108 2.4159740166 2.4475202889 2.486385773 2.448570738 2.4736848652 2.5028148801 
2.5369440334 2.5773755784 2.6258554882 2.6847397011 2.5377803997 2.5675431237 2.6015718084 2.6407557529 2.6862098746 
2.7393287203 2.8018393335 2.8758309421 1.6743954455 1.6743954455 1.7840462375 1.6743954455 1.7840462375 1.8974821136 
1.6743954455 1.7840462375 1.8974821136 2.0119052671 1.6743954455 1.7840462375 1.8974821136 2.0119052671 2.1243706857 
1.6743954455 1.7840462375 1.8974821136 2.0119052671 2.1243706857 2.232221744 1.6743954455 1.7840462375 1.8974821136 
2.0119052671 2.1243706857 2.232221744 2.3334263672 1.6743954455 1.7840462375 1.8974821136 2.0119052671 2.1243706857 
2.232221744 2.3334263672 2.426721652 1.4671972081 1.3575464161 1.4671972081 1.24411054 1.3575464161 1.4671972081 
1.1296873865 1.24411054 1.3575464161 1.4671972081 1.0172219679 1.1296873865 1.24411054 1.3575464161 1.4671972081 
0.90937090954 1.0172219679 1.1296873865 1.24411054 1.3575464161 1.4671972081 0.80816628637 0.90937090954 1.0172219679 
1.1296873865 1.24411054 1.3575464161 1.4671972081 0.71487100155 0.80816628637 0.90937090954 1.0172219679 1.1296873865 
1.24411054 1.3575464161 1.4671972081 0.60381225391 0.57404952988 0.69302191562 0.54002084522 0.66790778838 0.79216440667 
0.50083690068 0.63877777351 0.77356233629 0.90072551443 0.45538277901 0.60464862014 0.75168694275 0.89058134991 1.0172219679 
0.40226393329 0.56421707518 0.72561863695 0.87851444325 1.0172219679 1.139116835 0.33975332011 0.51573716537 0.69407236469 
0.86392567495 1.0172219679 1.1502619915 1.2630228569 0.26576171152 0.45685295248 0.6552068806 0.84594095064 1.0172219679 
1.1636342747 1.2852923014 1.3852070904 0.22715816343 0.3129712797 0.49462574053 0.49462574053 0.68021497688 0.77059342779 
1.0172219679 1.0172219679 1.0172219679 1.0172219679 2.1243706857 1.5707963268 1.3676273807 1.271087727 1.2156949949 
2.6469669131 2.1243706857 1.7739652728 1.5707963268 1.447813335 1.3676273807 2.8286213739 2.4613776767 2.1243706857 
1.8705049266 1.6937793186 1.5707963268 1.4827341049 2.9144344902 2.6469669131 2.3709992258 2.1243706857 1.9258976586 
1.7739652728 1.6588585487 1.5707963268 1.7563855631 1.8563003522 1.8785697967 1.9779583789 1.9913306621 2.0024758186 
2.1243706857 2.1243706857 2.1243706857 2.1243706857 2.295651703 2.2776669786 2.2630782103 2.2510113037 2.2408671392 
2.486385773 2.4475202889 2.4159740166 2.3899057108 2.3680303173 2.3494282469 2.6847397011 2.6258554882 2.5773755784 
2.5369440334 2.5028148801 2.4736848652 2.448570738 2.8758309421 2.8018393335 2.7393287203 2.6862098746 2.6407557529 
2.6015718084 2.5675431237 2.5377803997 5.8604937156 5.901393709 5.9723133995 5.9473927383 6.0216547488 6.0927478736 
5.9992719463 6.0767621038 6.1501452836 6.2190157008 6.0578962336 6.1383094565 6.2134963469 0 0.064169606361 
6.1241815303 6.206940195 6.2831853072 0.069688960264 0.13304002361 0.19043743361 6.1990255847 0 0.07624511221 
0.14487585072 0.20642320337 0.26153055843 0.3108719077 0 0.084159722458 0.15900377685 0.22528907359 0.28391336087 
0.3357925689 0.38179159818 0.42269159155 5.8604937156 5.9723133995 5.901393709 6.0927478736 6.0216547488 5.9473927383 
6.2190157008 6.1501452836 6.0767621038 5.9992719463 0.064169606361 0 6.2134963469 6.1383094565 6.0578962336 
0.19043743361 0.13304002361 0.069688960264 6.2831853072 6.206940195 6.1241815303 0.3108719077 0.26153055843 0.20642320337 
0.14487585072 0.07624511221 6.2831853072 6.1990255847 0.42269159155 0.38179159818 0.3357925689 0.28391336087 0.22528907359 
0.15900377685 0.084159722458 0 5.6793730533 5.7091357773 5.5901633916 5.743164462 5.6152775188 5.4910209005 
5.7823484065 5.6444075337 5.5096229709 5.3824597928 5.8278025282 5.678536687 5.5314983644 5.3926039573 5.2659633393 
5.8809213739 5.718968232 5.5575666702 5.4046708639 5.2659633393 5.1440684722 5.9434319871 5.7674481418 5.5891129425 
5.4192596322 5.2659633393 5.1329233157 5.0201624502 6.0174235957 5.8263323547 5.6279784266 5.4372443565 5.2659633393 
5.1195510325 4.9978930058 4.8979782167 1.3852070904 1.2852923014 1.2630228569 1.1636342747 1.1502619915 1.139116835 
1.0172219679 1.0172219679 1.0172219679 1.0172219679 0.84594095064 0.86392567495 0.87851444325 0.89058134991 0.90072551443 
0.6552068806 0.69407236469 0.72561863695 0.75168694275 0.77356233629 0.79216440667 0.45685295248 0.51573716537 0.56421707518 
0.60464862014 0.63877777351 0.66790778838 0.69302191562 0.26576171152 0.33975332011 0.40226393329 0.45538277901 0.50083690068 
0.54002084522 0.57404952988 0.60381225391 
_paraPhiHalf 1 1002 double
0 3.1415926536 0 3.1415926536 1.5707963268 1.5707963268 1.5707963268 1.5707963268 2.5880182947 
0.5535743589 2.5880182947 0.5535743589 0 0 0 0 3.1415926536 3.1415926536 
3.1415926536 3.1415926536 3.1415926536 0.17788134 0.38438696014 0.60631181711 0.82323535693 1.0172219679 1.1799687454 
1.3118704726 1.4175000338 1.5022335207 0.17788134 0.38438696014 0.60631181711 0.82323535693 1.0172219679 1.1799687454 
1.3118704726 1.4175000338 1.5022335207 0.093902416448 0.17615329733 0.2478725152 0.31035131605 0.36486382811 0.41257334776 
0.45449736604 0.4915044461 0.52432611754 0.093902416448 0.17615329733 0.2478725152 0.31035131605 0.36486382811 0.41257334776 
0.45449736604 0.4915044461 0.52432611754 2.9637113136 2.7572056934 2.5352808365 2.3183572967 2.1243706857 1.9616239082 
1.829722181 1.7240926197 1.6393591329 2.9637113136 2.7572056934 2.5352808365 2.3183572967 2.1243706857 1.9616239082 
1.829722181 1.7240926197 1.6393591329 3.0476902371 2.9654393563 2.8937201384 2.8312413375 2.7767288255 2.7290193058 
2.6870952876 2.6500882075 2.617266536 3.0476902371 2.9654393563 2.8937201384 2.8312413375 2.7767288255 2.7290193058 
2.6870952876 2.6500882075 2.617266536 0 0 0 0 3.1415926536 3.1415926536 
3.1415926536 3.1415926536 3.1415926536 0.17788134 0.38438696014 0.60631181711 0.82323535693 1.0172219679 1.1799687454 
1.3118704726 1.4175000338 1.5022335207 0.17788134 0.38438696014 0.60631181711 0.82323535693 1.0172219679 1.1799687454 
1.3118704726 1.4175000338 1.5022335207 0.093902416448 0.17615329733 0.2478725152 0.31035131605 0.36486382811 0.41257334776 
0.45449736604 0.4915044461 0.52432611754 0.093902416448 0.17615329733 0.2478725152 0.31035131605 0.36486382811 0.41257334776 
0.45449736604 0.4915044461 0.52432611754 2.9637113136 2.7572056934 2.5352808365 2.3183572967 2.1243706857 1.9616239082 
1.829722181 1.7240926197 1.6393591329 2.9637113136 2.7572056934 2.5352808365 2.3183572967 2.1243706857 1.9616239082 
1.829722181 1.7240926197 1.6393591329 3.0476902371 2.9654393563 2.8937201384 2.8312413375 2.7767288255 2.7290193058 
2.6870952876 2.6500882075 2.617266536 3.0476902371 2.9654393563 2.8937201384 2.8312413375 2.7767288255 2.7290193058 
2.6870952876 2.6500882075 2.617266536 1.5707963268 1.5707963268 1.5707963268 1.5707963268 1.5707963268 1.5707963268 
1.5707963268 1.5707963268 1.5707963268 1.6743954455 1.7840462375 1.8974821136 2.0119052671 2.1243706857 2.232221744 
2.3334263672 2.426721652 2.5115728246 1.4671972081 1.3575464161 1.24411054 1.1296873865 1.0172219679 0.90937090954 
0.80816628637 0.71487100155 0.63001982895 1.6743954455 1.7840462375 1.8974821136 2.0119052671 2.1243706857 2.232221744 
2.3334263672 2.426721652 2.5115728246 1.4671972081 1.3575464161 1.24411054 1.1296873865 1.0172219679 0.90937090954 
0.80816628637 0.71487100155 0.63001982895 1.5707963268 1.5707963268 1.5707963268 1.5707963268 1.5707963268 1.5707963268 
1.5707963268 1.5707963268 1.5707963268 1.6743954455 1.7840462375 1.8974821136 2.0119052671 2.1243706857 2.232221744 
2.3334263672 2.426721652 2.5115728246 1.4671972081 1.3575464161 1.24411054 1.1296873865 1.0172219679 0.90937090954 
0.80816628637 0.71487100155 0.63001982895 1.6743954455 1.7840462375 1.8974821136 2.0119052671 2.1243706857 2.232221744 
2.3334263672 2.426721652 2.5115728246 1.4671972081 1.3575464161 1.24411054 1.1296873865 1.0172219679 0.90937090954 
0.80816628637 0.71487100155 0.63001982895 2.6824132222 2.7864913217 2.8992382033 3.0186096618 3.1415926536 3.0186096618 
2.8992382033 2.7864913217 2.6824132222 0.45917943135 0.35510133185 0.2423544503 0.12298299178 0 0.12298299178 
0.2423544503 0.35510133185 0.45917943135 0.22715816343 0.49462574053 0.3129712797 0.77059342779 0.68021497688 0.49462574053 
1.0172219679 1.0172219679 1.0172219679 1.0172219679 1.2156949949 1.271087727 1.3676273807 1.5707963268 2.1243706857 
1.3676273807 1.447813335 1.5707963268 1.7739652728 2.1243706857 2.6469669131 1.4827341049 1.5707963268 1.6937793186 
1.8705049266 2.1243706857 2.4613776767 2.8286213739 1.5707963268 1.6588585487 1.7739652728 1.9258976586 2.1243706857 
2.3709992258 2.6469669131 2.9144344902 0.26576171152 0.33975332011 0.45685295248 0.40226393329 0.51573716537 0.6552068806 
0.45538277901 0.56421707518 0.69407236469 0.84594095064 0.50083690068 0.60464862014 0.72561863695 0.86392567495 1.0172219679 
0.54002084522 0.63877777351 0.75168694275 0.87851444325 1.0172219679 1.1636342747 0.57404952988 0.66790778838 0.77356233629 
0.89058134991 1.0172219679 1.1502619915 1.2852923014 0.60381225391 0.69302191562 0.79216440667 0.90072551443 1.0172219679 
1.139116835 1.2630228569 1.3852070904 0.71487100155 0.80816628637 0.80816628637 0.90937090954 0.90937090954 0.90937090954 
1.0172219679 1.0172219679 1.0172219679 1.0172219679 1.1296873865 1.1296873865 1.1296873865 1.1296873865 1.1296873865 
1.24411054 1.24411054 1.24411054 1.24411054 1.24411054 1.24411054 1.3575464161 1.3575464161 1.3575464161 
1.3575464161 1.3575464161 1.3575464161 1.3575464161 1.4671972081 1.4671972081 1.4671972081 1.4671972081 1.4671972081 
1.4671972081 1.4671972081 1.4671972081 1.6743954455 1.6743954455 1.7840462375 1.6743954455 1.7840462375 1.8974821136 
1.6743954455 1.7840462375 1.8974821136 2.0119052671 1.6743954455 1.7840462375 1.8974821136 2.0119052671 2.1243706857 
1.6743954455 1.7840462375 1.8974821136 2.0119052671 2.1243706857 2.232221744 1.6743954455 1.7840462375 1.8974821136 
2.0119052671 2.1243706857 2.232221744 2.3334263672 1.6743954455 1.7840462375 1.8974821136 2.0119052671 2.1243706857 
2.232221744 2.3334263672 2.426721652 1.7563855631 1.8785697967 1.8563003522 2.0024758186 1.9913306621 1.9779583789 
2.1243706857 2.1243706857 2.1243706857 2.1243706857 2.2408671392 2.2510113037 2.2630782103 2.2776669786 2.295651703 
2.3494282469 2.3680303173 2.3899057108 2.4159740166 2.4475202889 2.486385773 2.448570738 2.4736848652 2.5028148801 
2.5369440334 2.5773755784 2.6258554882 2.6847397011 2.5377803997 2.5675431237 2.6015718084 2.6407557529 2.6862098746 
2.7393287203 2.8018393335 2.8758309421 2.718901062 2.8307207459 2.7598010554 2.95115522 2.8800620952 2.8058000847 
3.0774230472 3.00855263 2.9351694502 2.8576792927 3.0774230472 3.1415926536 3.0719036933 2.9967168029 2.91630358 
2.95115522 3.00855263 3.0719036933 3.1415926536 3.0653475414 2.9825888767 2.8307207459 2.8800620952 2.9351694502 
2.9967168029 3.0653475414 3.1415926536 3.0574329311 2.718901062 2.7598010554 2.8058000847 2.8576792927 2.91630358 
2.9825888767 3.0574329311 3.1415926536 2.718901062 2.7598010554 2.8307207459 2.8058000847 2.8800620952 2.95115522 
2.8576792927 2.9351694502 3.00855263 3.0774230472 2.91630358 2.9967168029 3.0719036933 3.1415926536 3.0774230472 
2.9825888767 3.0653475414 3.1415926536 3.0719036933 3.00855263 2.95115522 3.0574329311 3.1415926536 3.0653475414 