# vtk DataFile Version 5.1
vtk output
ASCII
DATASET POLYDATA
POINTS 100 float
0.491455 0.819982 0.705976 0.490654 0.818904 0.705027 0.488086 0.815802 0.702029 
0.483749 0.810811 0.697086 0.477641 0.804144 0.690362 0.469772 0.796075 0.68207 
0.460161 0.786913 0.672453 0.448848 0.77698 0.661765 0.435895 0.766584 0.650252 
0.421389 0.755999 0.638135 0.405445 0.745442 0.625594 0.388198 0.735063 0.61276 
0.369804 0.72494 0.59971 0.350427 0.715079 0.586463 0.330237 0.705423 0.572994 
0.309397 0.695864 0.559236 0.288058 0.686263 0.545099 0.266352 0.676461 0.53048 
0.244387 0.666305 0.515278 0.222249 0.655656 0.499407 0.2 0.644405 0.482808 
0.177686 0.632477 0.465451 0.15534 0.61983 0.447338 0.132987 0.606456 0.428506 
0.110658 0.592367 0.409016 0.0883887 0.577591 0.388947 0.066226 0.562152 0.368392 
0.044233 0.546065 0.347443 0.0224872 0.529322 0.326186 0.00108036 0.511888 0.304699 
-0.0198847 0.493694 0.283041 -0.0402971 0.474643 0.261262 -0.0600424 0.45461 0.239396 
-0.0790049 0.433457 0.217474 -0.097071 0.41104 0.195525 -0.114131 0.387223 0.173589 
-0.130078 0.361892 0.151715 -0.14481 0.334964 0.129971 -0.158231 0.306401 0.108446 
-0.170247 0.276214 0.0872453 -0.180772 0.244465 0.0664909 -0.18973 0.21127 0.046311 
-0.197055 0.176793 0.0268325 -0.202706 0.141238 0.00817102 -0.206664 0.104844 -0.00957964 
-0.208945 0.0678713 -0.0263565 -0.209603 0.030592 -0.0421346 -0.208733 -0.00672294 -0.0569302 
-0.206472 -0.0438127 -0.070802 -0.202998 -0.0804366 -0.0838473 -0.198521 -0.116382 -0.096195 
-0.19327 -0.15147 -0.107996 -0.187487 -0.18556 -0.119413 -0.181401 -0.218553 -0.130605 
-0.175224 -0.25039 -0.141718 -0.169128 -0.281052 -0.152874 -0.163239 -0.310559 -0.164164 
-0.157629 -0.338963 -0.175639 -0.152315 -0.366346 -0.187316 -0.147263 -0.392808 -0.199176 
-0.142399 -0.418469 -0.211172 -0.137623 -0.443453 -0.223234 -0.132825 -0.467883 -0.235284 
-0.127902 -0.491875 -0.247242 -0.122779 -0.515531 -0.259036 -0.117413 -0.538932 -0.270615 
-0.111812 -0.562133 -0.281945 -0.106029 -0.585165 -0.293022 -0.100162 -0.608027 -0.303865 
-0.094344 -0.630694 -0.314514 -0.0887278 -0.653116 -0.325028 -0.0834697 -0.675221 -0.335473 
-0.078712 -0.696924 -0.345918 -0.0745657 -0.718131 -0.356426 -0.0710985 -0.738742 -0.367047 
-0.0683267 -0.758661 -0.377813 -0.0662134 -0.777796 -0.388734 -0.0646729 -0.796069 -0.399797 
-0.0635809 -0.813408 -0.41097 -0.0627886 -0.829759 -0.422199 -0.0621395 -0.84508 -0.433418 
-0.0614867 -0.859341 -0.444552 -0.0607083 -0.872524 -0.45552 -0.0597191 -0.884623 -0.466243 
-0.0584778 -0.89564 -0.476647 -0.0569878 -0.905585 -0.486665 -0.0552933 -0.914478 -0.496238 
-0.05347 -0.922347 -0.505318 -0.0516128 -0.929228 -0.513861 -0.0498212 -0.935167 -0.521832 
-0.0481864 -0.940218 -0.529201 -0.0467789 -0.944444 -0.535935 -0.0456414 -0.947915 -0.542007 
-0.0447849 -0.950705 -0.547385 -0.0441909 -0.952892 -0.55204 -0.0438169 -0.954551 -0.555939 
-0.043606 -0.955753 -0.559052 -0.0434977 -0.956556 -0.561353 -0.0434392 -0.957008 -0.56282 
-0.0433951 -0.957138 -0.563436 
LINES 2 100
OFFSETS vtktypeint64
0 100 
CONNECTIVITY vtktypeint64
0 1 2 3 4 5 6 7 8 
9 10 11 12 13 14 15 16 17 
18 19 20 21 22 23 24 25 26 
27 28 29 30 31 32 33 34 35 
36 37 38 39 40 41 42 43 44 
45 46 47 48 49 50 51 52 53 
54 55 56 57 58 59 60 61 62 
63 64 65 66 67 68 69 70 71 
72 73 74 75 76 77 78 79 80 
81 82 83 84 85 86 87 88 89 
90 91 92 93 94 95 96 97 98 
99 
POINT_DATA 100
FIELD FieldData 3
_theta 1 100 double
0 0.031733259127 0.063466518254 0.095199777382 0.12693303651 0.15866629564 0.19039955476 0.22213281389 0.25386607302 
0.28559933214 0.31733259127 0.3490658504 0.38079910953 0.41253236865 0.44426562778 0.47599888691 0.50773214603 0.53946540516 
0.57119866429 0.60293192342 0.63466518254 0.66639844167 0.6981317008 0.72986495992 0.76159821905 0.79333147818 0.82506473731 
0.85679799643 0.88853125556 0.92026451469 0.95199777382 0.98373103294 1.0154642921 1.0471975512 1.0789308103 1.1106640695 
1.1423973286 1.1741305877 1.2058638468 1.237597106 1.2693303651 1.3010636242 1.3327968833 1.3645301425 1.3962634016 
1.4279966607 1.4597299198 1.491463179 1.5231964381 1.5549296972 1.5866629564 1.6183962155 1.6501294746 1.6818627337 
1.7135959929 1.745329252 1.7770625111 1.8087957702 1.8405290294 1.8722622885 1.9039955476 1.9357288068 1.9674620659 
1.999195325 2.0309285841 2.0626618433 2.0943951024 2.1261283615 2.1578616206 2.1895948798 2.2213281389 2.253061398 
2.2847946572 2.3165279163 2.3482611754 2.3799944345 2.4117276937 2.4434609528 2.4751942119 2.506927471 2.5386607302 
2.5703939893 2.6021272484 2.6338605076 2.6655937667 2.6973270258 2.7290602849 2.7607935441 2.7925268032 2.8242600623 
2.8559933214 2.8877265806 2.9194598397 2.9511930988 2.982926358 3.0146596171 3.0463928762 3.0781261353 3.1098593945 
3.1415926536 
_radius 1 100 double
1.705556973e-15 0.021613404618 0.042918099716 0.063634830063 0.083530654792 0.10243376597 0.12023990618 0.13690967216 0.15245742859 
0.16693399467 0.18040644332 0.19293887484 0.20457758804 0.21534276422 0.22522711234 0.2342004795 0.24221854413 0.24923342088 
0.25520419027 0.26010583274 0.26393561076 0.26671647077 0.26849748103 0.26935169255 0.26937211421 0.26866666549 0.2673528829 
0.2655527526 0.26338752339 0.26097217891 0.25840978298 0.25578701868 0.2531731825 0.25062472969 0.24819570944 0.245951519 
0.24398064442 0.24239803449 0.24133569234 0.24092110443 0.24125048834 0.24236784268 0.24425919286 0.24686466362 0.25010309003 
0.25389910579 0.25820291144 0.26299712945 0.2682899774 0.27409597542 0.28040439896 0.28713788942 0.29411752486 0.30106480854 
0.30765153903 0.31356847335 0.31857772884 0.32253708458 0.32540065281 0.32720382768 0.32803937201 0.32803040474 0.32730540355 
0.32597930382 0.32414277124 0.32185921979 0.31916728732 0.3160860223 0.31262077304 0.30876892533 0.30452548789 0.29988868976 
0.29486520713 0.28947381452 0.28374590762 0.27772191022 0.27144374765 0.26494474706 0.25823921885 0.25131445596 0.24412764462 
0.2366089606 0.22867025493 0.22021706728 0.21116098114 0.20142969859 0.19097331209 0.17976656754 0.1678079514 0.15511685336 
0.14172985452 0.12769673185 0.11307649034 0.097933776995 0.082336167755 0.06635272671 0.050053830016 0.033511759015 0.016801332422 
1.4121817151e-15 
_area 1 100 double
0 0.00081485216437 0.0032401547458 0.0072214790272 0.012676638736 0.019502789181 0.027582023441 0.036786655876 0.046983269949 
0.058032086268 0.069779584317 0.082046241248 0.094613553464 0.10721334775 0.11952239242 0.13117328856 0.14179442389 0.15106764057 
0.15877327129 0.16480653068 0.1691729927 0.17197977056 0.17343131906 0.17382317419 0.17351282635 0.17285897731 0.17217252505 
0.17171305318 0.17168444144 0.17220438085 0.17327851856 0.1748061018 0.17662103416 0.17855624962 0.1805124796 0.18250727814 
0.18467456452 0.18719793384 0.19021190041 0.19374594906 0.19774786256 0.20214714186 0.20687682658 0.21181398898 0.2167278714 
0.22134797302 0.22553700926 0.22949084954 0.23386845422 0.23963227527 0.24741418201 0.25709611303 0.268177881 0.28002489906 
0.29184440893 0.30274173421 0.31189347601 0.31871188818 0.32292935018 0.3246408861 0.32439902923 0.32302767809 0.32091479615 
0.31817649081 0.31489189729 0.31108698294 0.30677168676 0.30198168883 0.29670181665 0.29080029642 0.28419770772 0.27706778935 
0.26956677122 0.26142984371 0.25267428933 0.24333878198 0.23340071057 0.22288598781 0.2118700171 0.20044980206 0.18872275434 
0.17676749859 0.16462968833 0.15231743604 0.13981230157 0.12709609863 0.11418157709 0.10113191545 0.08806455384 0.075145110227 
0.062577942559 0.050595225192 0.039442801819 0.029361460029 0.020565611793 0.013224686426 0.0074532601909 0.0033133909677 0.00082804765557 
2.3971675704e-16 
