# vtk DataFile Version 5.1
vtk output
ASCII
DATASET POLYDATA
POINTS 1002 float
0.0317321 0.48697 0.421912 -0.154154 -0.712887 -0.12458 0.00769503 0.52811 0.146412 
-0.0238272 -0.421392 -0.475545 -0.466087 -0.0939461 0.0516091 -0.386468 0.0693916 -0.141016 
0.0668088 -0.208188 0.019014 0.155069 -0.125157 -0.117051 -0.294538 -0.87875 -0.499704 
-0.00720525 0.783719 0.53393 0.250763 -1.04673 -0.417789 0.636587 0.637194 0.646654 
-0.0258908 0.390883 0.355537 -0.0781009 0.270953 0.286077 -0.120634 0.150479 0.211141 
-0.153694 0.0322764 0.138093 -0.178196 -0.103633 0.0795614 -0.193396 -0.263786 0.0386513 
-0.198151 -0.424501 0.00529958 -0.191762 -0.557112 -0.0321448 -0.175539 -0.650943 -0.0769432 
-0.0169982 0.448745 0.388635 -0.0716411 0.402313 0.351364 -0.131885 0.348293 0.308584 
-0.197242 0.281088 0.263247 -0.263976 0.201391 0.22288 -0.32324 0.125647 0.188989 
-0.368656 0.0667255 0.1542 -0.403681 0.0170393 0.115613 -0.435483 -0.036217 0.079645 
0.0401432 0.467656 0.408802 0.0455049 0.432165 0.38862 0.048057 0.374763 0.362496 
0.047576 0.307306 0.3284 0.0438611 0.249375 0.280775 0.0389393 0.198497 0.219408 
0.036353 0.129541 0.154498 0.0388732 0.0287561 0.097626 0.0486013 -0.0912328 0.0529575 
0.0618339 0.536677 0.471077 0.0871246 0.567557 0.52678 0.0979786 0.577412 0.590107 
0.0903725 0.575571 0.649656 0.0719885 0.58494 0.680323 0.0550876 0.622296 0.669657 
0.0434107 0.677453 0.63568 0.03151 0.727408 0.601645 0.0144465 0.761819 0.57049 
0.101022 0.542418 0.491683 0.178627 0.565119 0.578531 0.259204 0.559832 0.670037 
0.338504 0.544405 0.744542 0.418398 0.527721 0.786804 0.50245 0.511978 0.794766 
0.582725 0.510942 0.773592 0.638958 0.538015 0.733381 0.656072 0.586333 0.687728 
-0.195407 -0.687202 -0.105576 -0.241387 -0.659936 -0.0805876 -0.289214 -0.62885 -0.0515822 
-0.334397 -0.583134 -0.0255402 -0.374217 -0.520087 -0.00612748 -0.408614 -0.450751 0.0106797 
-0.436656 -0.37859 0.0273854 -0.455456 -0.294075 0.0400756 -0.464184 -0.195342 0.0467431 
-0.128269 -0.704191 -0.110048 -0.100432 -0.690528 -0.0929266 -0.0717386 -0.665329 -0.0765786 
-0.0435871 -0.628536 -0.059869 -0.0148965 -0.586789 -0.0389332 0.0138439 -0.537296 -0.0172811 
0.0367303 -0.467815 -0.00352766 0.0500873 -0.379382 0.00204279 0.0581292 -0.288667 0.00751956 
-0.156931 -0.749329 -0.161679 -0.164611 -0.786633 -0.199402 -0.180695 -0.821459 -0.239856 
-0.202394 -0.851312 -0.284157 -0.22272 -0.880658 -0.326785 -0.240352 -0.911415 -0.363299 
-0.259271 -0.932823 -0.398878 -0.278188 -0.933 -0.437925 -0.29077 -0.912292 -0.474364 
-0.11451 -0.753917 -0.166918 -0.0715672 -0.78506 -0.213871 -0.0253029 -0.814399 -0.259956 
0.0240269 -0.856686 -0.297138 0.0712521 -0.91314 -0.321051 0.111038 -0.967438 -0.33535 
0.146828 -1.00868 -0.348845 0.18468 -1.03805 -0.368216 0.222007 -1.05323 -0.393063 
-0.0226828 0.461425 0.0759195 -0.0468443 0.376852 -0.0014491 -0.0647999 0.252027 -0.0701045 
-0.076785 0.0990155 -0.126621 -0.0788301 -0.03336 -0.189161 -0.0686059 -0.121652 -0.267822 
-0.0528694 -0.192781 -0.344046 -0.040065 -0.271432 -0.399572 -0.0313307 -0.351743 -0.439304 
-0.0249664 0.509444 0.11241 -0.0627563 0.483383 0.074749 -0.107346 0.452954 0.0326447 
-0.157284 0.416937 -0.00955035 -0.206007 0.366357 -0.0427067 -0.248098 0.299763 -0.0646694 
-0.28551 0.231418 -0.0834415 -0.322016 0.1726 -0.10435 -0.356655 0.12045 -0.124694 
0.0179291 0.498629 0.137333 0.0288916 0.461718 0.121613 0.0408122 0.419523 0.097441 
0.0515514 0.371023 0.0662459 0.0602965 0.306036 0.032334 0.06993 0.216335 -0.000326539 
0.0838362 0.113367 -0.0306647 0.103256 0.018687 -0.0598924 0.127677 -0.0590759 -0.0889724 
0.0223894 0.590287 0.187813 0.0361374 0.663823 0.226819 0.0456714 0.735046 0.269278 
0.0510592 0.782174 0.317634 0.0525878 0.799517 0.365963 0.0482496 0.803244 0.409767 
0.0379748 0.807032 0.451198 0.0247434 0.808633 0.489361 0.00993379 0.801333 0.51801 
0.0518504 0.582248 0.207171 0.105899 0.645452 0.26953 0.168679 0.707214 0.333757 
0.24125 0.74832 0.403203 0.326624 0.761695 0.478853 0.420709 0.762013 0.550436 
0.508832 0.760079 0.600915 0.576608 0.74385 0.625356 0.618695 0.700158 0.635966 
-0.0633581 -0.380151 -0.466763 -0.106829 -0.339509 -0.450368 -0.150973 -0.304396 -0.423884 
-0.193864 -0.270412 -0.387606 -0.23568 -0.227516 -0.345162 -0.275779 -0.173427 -0.30069 
-0.312222 -0.11405 -0.256493 -0.343612 -0.0530843 -0.214102 -0.368733 0.00878701 -0.175275 
0.00872521 -0.418331 -0.457345 0.0422907 -0.403903 -0.436894 0.0774113 -0.375861 -0.414709 
0.111011 -0.341174 -0.388375 0.136475 -0.307749 -0.354621 0.151968 -0.276072 -0.313695 
0.161566 -0.244678 -0.268481 0.16618 -0.212869 -0.220087 0.163422 -0.175287 -0.168741 
-0.0404348 -0.459843 -0.510863 -0.0599495 -0.501209 -0.546908 -0.0835564 -0.551479 -0.574149 
-0.113054 -0.614446 -0.58602 -0.148413 -0.688477 -0.585405 -0.185841 -0.762836 -0.580398 
-0.22035 -0.82194 -0.573444 -0.249787 -0.858334 -0.559376 -0.274457 -0.875428 -0.534039 
0.004938 -0.48631 -0.503175 0.0347707 -0.555163 -0.530987 0.0635228 -0.629858 -0.550733 
0.0927251 -0.707489 -0.556162 0.126532 -0.780932 -0.551814 0.16446 -0.851894 -0.54474 
0.199647 -0.925692 -0.531481 0.226087 -0.991941 -0.504492 0.24268 -1.03321 -0.464171 
-0.484736 -0.0690924 0.0419568 -0.503797 -0.042183 0.0329782 -0.520201 -0.00604045 0.0156406 
-0.527412 0.0392456 -0.0170159 -0.518795 0.0757208 -0.0569206 -0.49505 0.0859631 -0.0874181 
-0.465183 0.0780068 -0.104075 -0.437091 0.0715726 -0.11576 -0.411589 0.0713136 -0.128601 
-0.494694 -0.214554 0.022348 -0.515645 -0.326913 -0.016138 -0.521366 -0.426365 -0.0708635 
-0.512846 -0.527039 -0.138615 -0.495118 -0.62917 -0.209046 -0.466326 -0.707882 -0.276337 
-0.422996 -0.754799 -0.340581 -0.372587 -0.791628 -0.400891 -0.328031 -0.834501 -0.454445 
-0.446575 0.0451894 0.0770944 -0.426792 0.176532 0.118365 -0.405233 0.281282 0.177484 
-0.369912 0.374052 0.24247 -0.311233 0.483068 0.302057 -0.238943 0.598724 0.359526 
-0.171429 0.685086 0.418035 -0.113872 0.733553 0.469167 -0.0603166 0.762322 0.506549 
-0.402214 -0.0187326 -0.177118 -0.409701 -0.109069 -0.218163 -0.407754 -0.205388 -0.26524 
-0.401973 -0.311584 -0.316931 -0.396848 -0.426355 -0.366231 -0.387068 -0.54146 -0.406306 
-0.366355 -0.64587 -0.438199 -0.339135 -0.734681 -0.465732 -0.314276 -0.811188 -0.487509 
-0.380392 0.169709 -0.099009 -0.368987 0.282337 -0.0523793 -0.353104 0.387027 0.00240681 
-0.326483 0.473103 0.0668951 -0.281141 0.557652 0.140084 -0.22243 0.654271 0.220888 
-0.165076 0.738907 0.307352 -0.11364 0.782306 0.393374 -0.0619754 0.789411 0.470574 
0.0896562 -0.232073 0.0110315 0.117009 -0.254064 0.00418294 0.14464 -0.261253 -0.00486334 
0.168076 -0.246689 -0.0190821 0.184814 -0.217044 -0.0368859 0.192505 -0.184531 -0.0542485 
0.189684 -0.157265 -0.0699919 0.179376 -0.138994 -0.0855844 0.166933 -0.129556 -0.101638 
0.091323 -0.360158 -0.0167599 0.130957 -0.488265 -0.0524576 0.180035 -0.590963 -0.0964639 
0.232303 -0.69774 -0.145047 0.281698 -0.820921 -0.18365 0.316985 -0.92597 -0.211132 
0.326219 -0.983627 -0.245903 0.310161 -1.00943 -0.29882 0.28129 -1.02909 -0.360516 
0.0695214 -0.0564017 0.0630236 0.0908388 0.103351 0.133938 0.136282 0.254656 0.23086 
0.204945 0.383729 0.339794 0.290112 0.473311 0.442054 0.382448 0.511807 0.52381 
0.471557 0.518901 0.579004 0.547502 0.534754 0.61096 0.603403 0.57831 0.630291 
0.192105 -0.220815 -0.176482 0.230312 -0.319406 -0.231533 0.264285 -0.430701 -0.273126 
0.295752 -0.544822 -0.30247 0.325048 -0.642296 -0.327961 0.342961 -0.729342 -0.352221 
0.340915 -0.826144 -0.372923 0.320888 -0.926055 -0.390462 0.289299 -1.00354 -0.405775 
0.131921 -0.00666805 -0.045866 0.129429 0.154834 0.0318287 0.167033 0.324214 0.11759 
0.241255 0.446442 0.213668 0.319409 0.508912 0.312465 0.37707 0.551627 0.40037 
0.428472 0.598966 0.473588 0.496487 0.634472 0.537608 0.574533 0.644254 0.595519 
-0.265853 -0.943754 -0.528885 -0.229075 -0.996552 -0.559869 -0.172093 -1.02236 -0.597387 
-0.0995568 -1.02682 -0.633875 -0.0308041 -1.0292 -0.643874 0.0280276 -1.04021 -0.611731 
0.0869973 -1.05643 -0.555203 0.148128 -1.06793 -0.501321 0.203746 -1.06547 -0.457398 
0.0673858 0.792032 0.587453 0.153137 0.79727 0.648902 0.240694 0.788242 0.713566 
0.326713 0.766796 0.768393 0.416377 0.752642 0.798928 0.511041 0.750425 0.798304 
0.597566 0.739072 0.771235 0.653684 0.708232 0.730488 0.665018 0.670412 0.687479 
-0.0756947 0.337192 0.323808 -0.130922 0.282949 0.285084 -0.126977 0.216913 0.250956 
-0.190021 0.227363 0.238879 -0.180337 0.169029 0.207272 -0.167606 0.102337 0.172435 
-0.25036 0.157598 0.194608 -0.234929 0.112526 0.161907 -0.217339 0.0514125 0.13123 
-0.198139 -0.0261755 0.10498 -0.307355 0.0719166 0.162627 -0.287536 0.0273676 0.12977 
-0.265435 -0.0270386 0.100064 -0.242586 -0.103278 0.0782642 -0.218839 -0.187214 0.0592501 
-0.355856 -0.0118514 0.138358 -0.33605 -0.0766844 0.113432 -0.310769 -0.136384 0.0861926 
-0.283973 -0.208241 0.0644293 -0.257475 -0.28721 0.0456937 -0.229327 -0.359086 0.0253537 
-0.395735 -0.0816759 0.110113 -0.379714 -0.170573 0.0974316 -0.354785 -0.244545 0.0773758 
-0.324914 -0.317104 0.056627 -0.294444 -0.390884 0.0362953 -0.263187 -0.453678 0.012685 
-0.228784 -0.505866 -0.0118529 -0.431293 -0.141391 0.0772108 -0.419513 -0.24164 0.071302 
-0.39751 -0.325092 0.0576471 -0.367527 -0.398991 0.0398818 -0.333744 -0.471401 0.0209921 
-0.297537 -0.532584 -0.00250655 -0.258144 -0.576399 -0.0307108 -0.216491 -0.613368 -0.0568847 
0.00776222 0.513475 0.428413 0.0285066 0.563404 0.473888 -0.0529113 0.478383 0.381779 
0.0357797 0.586241 0.529125 -0.037143 0.541762 0.416684 -0.121818 0.422163 0.332831 
0.0254003 0.587916 0.581209 -0.0341583 0.574024 0.460972 -0.115501 0.484733 0.360124 
-0.199639 0.340602 0.286391 0.00405093 0.597329 0.60443 -0.0486314 0.583095 0.501601 
-0.121086 0.521369 0.393709 -0.206186 0.395217 0.310208 -0.277389 0.253115 0.245513 
-0.0170557 0.633233 0.593014 -0.0730124 0.600655 0.518734 -0.139115 0.544412 0.423272 
-0.218976 0.437413 0.335732 -0.291393 0.308794 0.26513 -0.339639 0.187995 0.204321 
[...]
POINT_DATA 1002
FIELD FieldData 4
_paraPhi 1 1002 double
6.2831853072 3.1415926536 6.2831853072 3.1415926536 4.7123889804 4.7123889804 1.5707963268 1.5707963268 3.6951670125 
5.7296109483 2.5880182947 0.5535743589 6.2831853072 6.2831853072 6.2831853072 6.2831853072 3.1415926536 3.1415926536 
3.1415926536 3.1415926536 3.1415926536 6.1053039672 5.898798347 5.6768734901 5.4599499503 5.2659633393 5.1032165617 
4.9713148346 4.8656852733 4.7809517865 0.17788134 0.38438696014 0.60631181711 0.82323535693 1.0172219679 1.1799687454 
1.3118704726 1.4175000338 1.5022335207 6.1892828907 6.1070320098 6.035312792 5.9728339911 5.9183214791 5.8706119594 
5.8286879411 5.7916808611 5.7588591896 0.093902416448 0.17615329733 0.2478725152 0.31035131605 0.36486382811 0.41257334776 
0.45449736604 0.4915044461 0.52432611754 3.3194739936 3.5259796137 3.7479044707 3.9648280105 4.1588146215 4.321561399 
4.4534631262 4.5590926874 4.6438261743 2.9637113136 2.7572056934 2.5352808365 2.3183572967 2.1243706857 1.9616239082 
1.829722181 1.7240926197 1.6393591329 3.23549507 3.3177459509 3.3894651688 3.4519439696 3.5064564817 3.5541660013 
3.5960900196 3.6330970997 3.6659187711 3.0476902371 2.9654393563 2.8937201384 2.8312413375 2.7767288255 2.7290193058 
2.6870952876 2.6500882075 2.617266536 6.2831853072 6.2831853072 6.2831853072 6.2831853072 3.1415926536 3.1415926536 
3.1415926536 3.1415926536 3.1415926536 6.1053039672 5.898798347 5.6768734901 5.4599499503 5.2659633393 5.1032165617 
4.9713148346 4.8656852733 4.7809517865 0.17788134 0.38438696014 0.60631181711 0.82323535693 1.0172219679 1.1799687454 
1.3118704726 1.4175000338 1.5022335207 6.1892828907 6.1070320098 6.035312792 5.9728339911 5.9183214791 5.8706119594 
5.8286879411 5.7916808611 5.7588591896 0.093902416448 0.17615329733 0.2478725152 0.31035131605 0.36486382811 0.41257334776 
0.45449736604 0.4915044461 0.52432611754 3.3194739936 3.5259796137 3.7479044707 3.9648280105 4.1588146215 4.321561399 
4.4534631262 4.5590926874 4.6438261743 2.9637113136 2.7572056934 2.5352808365 2.3183572967 2.1243706857 1.9616239082 
1.829722181 1.7240926197 1.6393591329 3.23549507 3.3177459509 3.3894651688 3.4519439696 3.5064564817 3.5541660013 
3.5960900196 3.6330970997 3.6659187711 3.0476902371 2.9654393563 2.8937201384 2.8312413375 2.7767288255 2.7290193058 
2.6870952876 2.6500882075 2.617266536 4.7123889804 4.7123889804 4.7123889804 4.7123889804 4.7123889804 4.7123889804 
4.7123889804 4.7123889804 4.7123889804 4.6087898617 4.4991390697 4.3857031936 4.2712800401 4.1588146215 4.0509635631 
3.94975894 3.8564636551 3.7716124825 4.8159880991 4.9256388911 5.0390747672 5.1534979207 5.2659633393 5.3738143976 
5.4750190208 5.5683143056 5.6531654782 4.6087898617 4.4991390697 4.3857031936 4.2712800401 4.1588146215 4.0509635631 
3.94975894 3.8564636551 3.7716124825 4.8159880991 4.9256388911 5.0390747672 5.1534979207 5.2659633393 5.3738143976 
5.4750190208 5.5683143056 5.6531654782 1.5707963268 1.5707963268 1.5707963268 1.5707963268 1.5707963268 1.5707963268 
1.5707963268 1.5707963268 1.5707963268 1.6743954455 1.7840462375 1.8974821136 2.0119052671 2.1243706857 2.232221744 
2.3334263672 2.426721652 2.5115728246 1.4671972081 1.3575464161 1.24411054 1.1296873865 1.0172219679 0.90937090954 
0.80816628637 0.71487100155 0.63001982895 1.6743954455 1.7840462375 1.8974821136 2.0119052671 2.1243706857 2.232221744 
2.3334263672 2.426721652 2.5115728246 1.4671972081 1.3575464161 1.24411054 1.1296873865 1.0172219679 0.90937090954 
0.80816628637 0.71487100155 0.63001982895 3.6007720849 3.4966939854 3.3839471039 3.2645756454 3.1415926536 3.0186096618 
2.8992382033 2.7864913217 2.6824132222 5.8240058758 5.9280839753 6.0408308569 6.1602023154 6.2831853072 0.12298299178 
0.2423544503 0.35510133185 0.45917943135 6.0560271438 5.7885595667 5.9702140275 5.5125918794 5.6029703303 5.7885595667 
5.2659633393 5.2659633393 5.2659633393 5.2659633393 5.0674903122 5.0120975802 4.9155579264 4.7123889804 4.1588146215 
4.9155579264 4.8353719722 4.7123889804 4.5092200343 4.1588146215 3.6362183941 4.8004512023 4.7123889804 4.5894059886 
4.4126803806 4.1588146215 3.8218076305 3.4545639333 4.7123889804 4.6243267584 4.5092200343 4.3572876485 4.1588146215 
3.9121860814 3.6362183941 3.368750817 6.0174235957 5.9434319871 5.8263323547 5.8809213739 5.7674481418 5.6279784266 
5.8278025282 5.718968232 5.5891129425 5.4372443565 5.7823484065 5.678536687 5.5575666702 5.4192596322 5.2659633393 
5.743164462 5.6444075337 5.5314983644 5.4046708639 5.2659633393 5.1195510325 5.7091357773 5.6152775188 5.5096229709 
5.3926039573 5.2659633393 5.1329233157 4.9978930058 5.6793730533 5.5901633916 5.4910209005 5.3824597928 5.2659633393 
5.1440684722 5.0201624502 4.8979782167 5.5683143056 5.4750190208 5.4750190208 5.3738143976 5.3738143976 5.3738143976 
5.2659633393 5.2659633393 5.2659633393 5.2659633393 5.1534979207 5.1534979207 5.1534979207 5.1534979207 5.1534979207 
5.0390747672 5.0390747672 5.0390747672 5.0390747672 5.0390747672 5.0390747672 4.9256388911 4.9256388911 4.9256388911 
4.9256388911 4.9256388911 4.9256388911 4.9256388911 4.8159880991 4.8159880991 4.8159880991 4.8159880991 4.8159880991 
4.8159880991 4.8159880991 4.8159880991 4.6087898617 4.6087898617 4.4991390697 4.6087898617 4.4991390697 4.3857031936 
4.6087898617 4.4991390697 4.3857031936 4.2712800401 4.6087898617 4.4991390697 4.3857031936 4.2712800401 4.1588146215 
4.6087898617 4.4991390697 4.3857031936 4.2712800401 4.1588146215 4.0509635631 4.6087898617 4.4991390697 4.3857031936 
4.2712800401 4.1588146215 4.0509635631 3.94975894 4.6087898617 4.4991390697 4.3857031936 4.2712800401 4.1588146215 
4.0509635631 3.94975894 3.8564636551 4.526799744 4.4046155105 4.426884955 4.2807094886 4.2918546451 4.3052269283 
4.1588146215 4.1588146215 4.1588146215 4.1588146215 4.042318168 4.0321740035 4.0201070968 4.0055183285 3.9875336042 
3.9337570603 3.9151549899 3.8932795963 3.8672112905 3.8356650183 3.7967995342 3.8346145692 3.809500442 3.7803704271 
3.7462412737 3.7058097288 3.657329819 3.5984456061 3.7454049075 3.7156421835 3.6816134988 3.6424295543 3.5969754326 
3.5438565869 3.4813459737 3.4073543651 3.5642842451 3.4524645613 3.5233842518 3.3320300872 3.403123212 3.4773852225 
3.20576226 3.2746326772 3.348015857 3.4255060145 3.0774230472 3.1415926536 3.2112816139 3.2864685043 3.3668817272 
2.95115522 3.00855263 3.0719036933 3.1415926536 3.2178377658 3.3005964304 2.8307207459 2.8800620952 2.9351694502 
2.9967168029 3.0653475414 3.1415926536 3.225752376 2.718901062 2.7598010554 2.8058000847 2.8576792927 2.91630358 
2.9825888767 3.0574329311 3.1415926536 3.5642842451 3.5233842518 3.4524645613 3.4773852225 3.403123212 3.3320300872 
3.4255060145 3.348015857 3.2746326772 3.20576226 3.3668817272 3.2864685043 3.2112816139 3.1415926536 3.0774230472 
3.3005964304 3.2178377658 3.1415926536 3.0719036933 3.00855263 2.95115522 3.225752376 3.1415926536 3.0653475414 
2.9967168029 2.9351694502 2.8800620952 2.8307207459 3.1415926536 3.0574329311 2.9825888767 2.91630358 2.8576792927 
2.8058000847 2.7598010554 2.718901062 4.526799744 4.426884955 4.4046155105 4.3052269283 4.2918546451 4.2807094886 
4.1588146215 4.1588146215 4.1588146215 4.1588146215 3.9875336042 4.0055183285 4.0201070968 4.0321740035 4.042318168 
3.7967995342 3.8356650183 3.8672112905 3.8932795963 3.9151549899 3.9337570603 3.5984456061 3.657329819 3.7058097288 
3.7462412737 3.7803704271 3.809500442 3.8346145692 3.4073543651 3.4813459737 3.5438565869 3.5969754326 3.6424295543 
3.6816134988 3.7156421835 3.7454049075 4.7123889804 4.8004512023 4.6243267584 4.9155579264 4.7123889804 4.5092200343 
5.0674903122 4.8353719722 4.5894059886 4.3572876485 5.2659633393 5.0120975802 4.7123889804 4.4126803806 4.1588146215 
5.5125918794 5.2659633393 4.9155579264 4.5092200343 4.1588146215 3.9121860814 5.7885595667 5.6029703303 5.2659633393 
4.7123889804 4.1588146215 3.8218076305 3.6362183941 6.0560271438 5.9702140275 5.7885595667 5.2659633393 4.1588146215 
3.6362183941 3.4545639333 3.368750817 0.22715816343 0.49462574053 0.3129712797 0.77059342779 0.68021497688 0.49462574053 
1.0172219679 1.0172219679 1.0172219679 1.0172219679 1.2156949949 1.271087727 1.3676273807 1.5707963268 2.1243706857 
1.3676273807 1.447813335 1.5707963268 1.7739652728 2.1243706857 2.6469669131 1.4827341049 1.5707963268 1.6937793186 
1.8705049266 2.1243706857 2.4613776767 2.8286213739 1.5707963268 1.6588585487 1.7739652728 1.9258976586 2.1243706857 
2.3709992258 2.6469669131 2.9144344902 1.7563855631 1.8785697967 1.8563003522 2.0024758186 1.9913306621 1.9779583789 
2.1243706857 2.1243706857 2.1243706857 2.1243706857 2.2408671392 2.2510113037 2.2630782103 2.2776669786 2.295651703 
2.3494282469 2.3680303173 2.3899057108 2.4159740166 2.4475202889 2.486385773 2.448570738 2.4736848652 2.5028148801 
2.5369440334 2.5773755784 2.6258554882 2.6847397011 2.5377803997 2.5675431237 2.6015718084 2.6407557529 2.6862098746 
2.7393287203 2.8018393335 2.8758309421 1.6743954455 1.6743954455 1.7840462375 1.6743954455 1.7840462375 1.8974821136 
1.6743954455 1.7840462375 1.8974821136 2.0119052671 1.6743954455 1.7840462375 1.8974821136 2.0119052671 2.1243706857 
1.6743954455 1.7840462375 1.8974821136 2.0119052671 2.1243706857 2.232221744 1.6743954455 1.7840462375 1.8974821136 
2.0119052671 2.1243706857 2.232221744 2.3334263672 1.6743954455 1.7840462375 1.8974821136 2.0119052671 2.1243706857 
2.232221744 2.3334263672 2.426721652 1.4671972081 1.3575464161 1.4671972081 1.24411054 1.3575464161 1.4671972081 
1.1296873865 1.24411054 1.3575464161 1.4671972081 1.0172219679 1.1296873865 1.24411054 1.3575464161 1.4671972081 
0.90937090954 1.0172219679 1.1296873865 1.24411054 1.3575464161 1.4671972081 0.80816628637 0.90937090954 1.0172219679 
1.1296873865 1.24411054 1.3575464161 1.4671972081 0.71487100155 0.80816628637 0.90937090954 1.0172219679 1.1296873865 
1.24411054 1.3575464161 1.4671972081 0.60381225391 0.57404952988 0.69302191562 0.54002084522 0.66790778838 0.79216440667 
0.50083690068 0.63877777351 0.77356233629 0.90072551443 0.45538277901 0.60464862014 0.75168694275 0.89058134991 1.0172219679 
0.40226393329 0.56421707518 0.72561863695 0.87851444325 1.0172219679 1.139116835 0.33975332011 0.51573716537 0.69407236469 
0.86392567495 1.0172219679 1.1502619915 1.2630228569 0.26576171152 0.45685295248 0.6552068806 0.84594095064 1.0172219679 
1.1636342747 1.2852923014 1.3852070904 0.22715816343 0.3129712797 0.49462574053 0.49462574053 0.68021497688 0.77059342779 
1.0172219679 1.0172219679 1.0172219679 1.0172219679 2.1243706857 1.5707963268 1.3676273807 1.271087727 1.2156949949 
2.6469669131 2.1243706857 1.7739652728 1.5707963268 1.447813335 1.3676273807 2.8286213739 2.4613776767 2.1243706857 
1.8705049266 1.6937793186 1.5707963268 1.4827341049 2.9144344902 2.6469669131 2.3709992258 2.1243706857 1.9258976586 
1.7739652728 1.6588585487 1.5707963268 1.7563855631 1.8563003522 1.8785697967 1.9779583789 1.9913306621 2.0024758186 
2.1243706857 2.1243706857 2.1243706857 2.1243706857 2.295651703 2.2776669786 2.2630782103 2.2510113037 2.2408671392 
2.486385773 2.4475202889 2.4159740166 2.3899057108 2.3680303173 2.3494282469 2.6847397011 2.6258554882 2.5773755784 
2.5369440334 2.5028148801 2.4736848652 2.448570738 2.8758309421 2.8018393335 2.7393287203 2.6862098746 2.6407557529 
2.6015718084 2.5675431237 2.5377803997 5.8604937156 5.901393709 5.9723133995 5.9473927383 6.0216547488 6.0927478736 
5.9992719463 6.0767621038 6.1501452836 6.2190157008 6.0578962336 6.1383094565 6.2134963469 0 0.064169606361 
6.1241815303 6.206940195 6.2831853072 0.069688960264 0.13304002361 0.19043743361 6.1990255847 0 0.07624511221 
0.14487585072 0.20642320337 0.26153055843 0.3108719077 0 0.084159722458 0.15900377685 0.22528907359 0.28391336087 
0.3357925689 0.38179159818 0.42269159155 5.8604937156 5.9723133995 5.901393709 6.0927478736 6.0216547488 5.9473927383 
6.2190157008 6.1501452836 6.0767621038 5.9992719463 0.064169606361 0 6.2134963469 6.1383094565 6.0578962336 
0.19043743361 0.13304002361 0.069688960264 6.2831853072 6.206940195 6.1241815303 0.3108719077 0.26153055843 0.20642320337 
0.14487585072 0.07624511221 6.2831853072 6.1990255847 0.42269159155 0.38179159818 0.3357925689 0.28391336087 0.22528907359 
0.15900377685 0.084159722458 0 5.6793730533 5.7091357773 5.5901633916 5.743164462 5.6152775188 5.4910209005 
5.7823484065 5.6444075337 5.5096229709 5.3824597928 5.8278025282 5.678536687 5.5314983644 5.3926039573 5.2659633393 
5.8809213739 5.718968232 5.5575666702 5.4046708639 5.2659633393 5.1440684722 5.9434319871 5.7674481418 5.5891129425 
5.4192596322 5.2659633393 5.1329233157 5.0201624502 6.0174235957 5.8263323547 5.6279784266 5.4372443565 5.2659633393 
5.1195510325 4.9978930058 4.8979782167 1.3852070904 1.2852923014 1.2630228569 1.1636342747 1.1502619915 1.139116835 
1.0172219679 1.0172219679 1.0172219679 1.0172219679 0.84594095064 0.86392567495 0.87851444325 0.89058134991 0.90072551443 
0.6552068806 0.69407236469 0.72561863695 0.75168694275 0.77356233629 0.79216440667 0.45685295248 0.51573716537 0.56421707518 
0.60464862014 0.63877777351 0.66790778838 0.69302191562 0.26576171152 0.33975332011 0.40226393329 0.45538277901 0.50083690068 
0.54002084522 0.57404952988 0.60381225391 
_paraPhiHalf 1 1002 double
0 3.1415926536 0 3.1415926536 1.5707963268 1.5707963268 1.5707963268 1.5707963268 2.5880182947 
0.5535743589 2.5880182947 0.5535743589 0 0 0 0 3.1415926536 3.1415926536 
3.1415926536 3.1415926536 3.1415926536 0.17788134 0.38438696014 0.60631181711 0.82323535693 1.0172219679 1.1799687454 
1.3118704726 1.4175000338 1.5022335207 0.17788134 0.38438696014 0.60631181711 0.82323535693 1.0172219679 1.1799687454 
1.3118704726 1.4175000338 1.5022335207 0.093902416448 0.17615329733 0.2478725152 0.31035131605 0.36486382811 0.41257334776 
0.45449736604 0.4915044461 0.52432611754 0.093902416448 0.17615329733 0.2478725152 0.31035131605 0.36486382811 0.41257334776 
0.45449736604 0.4915044461 0.52432611754 2.9637113136 2.7572056934 2.5352808365 2.3183572967 2.1243706857 1.9616239082 
1.829722181 1.7240926197 1.6393591329 2.9637113136 2.7572056934 2.5352808365 2.3183572967 2.1243706857 1.9616239082 
1.829722181 1.7240926197 1.6393591329 3.0476902371 2.9654393563 2.8937201384 2.8312413375 2.7767288255 2.7290193058 
2.6870952876 2.6500882075 2.617266536 3.0476902371 2.9654393563 2.8937201384 2.8312413375 2.7767288255 2.7290193058 
2.6870952876 2.6500882075 2.617266536 0 0 0 0 3.1415926536 3.1415926536 
3.1415926536 3.1415926536 3.1415926536 0.17788134 0.38438696014 0.60631181711 0.82323535693 1.0172219679 1.1799687454 
1.3118704726 1.4175000338 1.5022335207 0.17788134 0.38438696014 0.60631181711 0.82323535693 1.0172219679 1.1799687454 
1.3118704726 1.4175000338 1.5022335207 0.093902416448 0.17615329733 0.2478725152 0.31035131605 0.36486382811 0.41257334776 
0.45449736604 0.4915044461 0.52432611754 0.093902416448 0.17615329733 0.2478725152 0.31035131605 0.36486382811 0.41257334776 
0.45449736604 0.4915044461 0.52432611754 2.9637113136 2.7572056934 2.5352808365 2.3183572967 2.1243706857 1.9616239082 
1.829722181 1.7240926197 1.6393591329 2.9637113136 2.7572056934 2.5352808365 2.3183572967 2.1243706857 1.9616239082 
1.829722181 1.7240926197 1.6393591329 3.0476902371 2.9654393563 2.8937201384 2.8312413375 2.7767288255 2.7290193058 
2.6870952876 2.6500882075 2.617266536 3.0476902371 2.9654393563 2.8937201384 2.8312413375 2.7767288255 2.7290193058 
2.6870952876 2.6500882075 2.617266536 1.5707963268 1.5707963268 1.5707963268 1.5707963268 1.5707963268 1.5707963268 
1.5707963268 1.5707963268 1.5707963268 1.6743954455 1.7840462375 1.8974821136 2.0119052671 2.1243706857 2.232221744 
2.3334263672 2.426721652 2.5115728246 1.4671972081 1.3575464161 1.24411054 1.1296873865 1.0172219679 0.90937090954 
0.80816628637 0.71487100155 0.63001982895 1.6743954455 1.7840462375 1.8974821136 2.0119052671 2.1243706857 2.232221744 
2.3334263672 2.426721652 2.5115728246 1.4671972081 1.3575464161 1.24411054 1.1296873865 1.0172219679 0.90937090954 
0.80816628637 0.71487100155 0.63001982895 1.5707963268 1.5707963268 1.5707963268 1.5707963268 1.5707963268 1.5707963268 
1.5707963268 1.5707963268 1.5707963268 1.6743954455 1.7840462375 1.8974821136 2.0119052671 2.1243706857 2.232221744 
2.3334263672 2.426721652 2.5115728246 1.4671972081 1.3575464161 1.24411054 1.1296873865 1.0172219679 0.90937090954 
0.80816628637 0.71487100155 0.63001982895 1.6743954455 1.7840462375 1.8974821136 2.0119052671 2.1243706857 2.232221744 
2.3334263672 2.426721652 2.5115728246 1.4671972081 1.3575464161 1.24411054 1.1296873865 1.0172219679 0.90937090954 
0.80816628637 0.71487100155 0.63001982895 2.6824132222 2.7864913217 2.8992382033 3.0186096618 3.1415926536 3.0186096618 
2.8992382033 2.7864913217 2.6824132222 0.45917943135 0.35510133185 0.2423544503 0.12298299178 0 0.12298299178 
0.2423544503 0.35510133185 0.45917943135 0.22715816343 0.49462574053 0.3129712797 0.77059342779 0.68021497688 0.49462574053 
1.0172219679 1.0172219679 1.0172219679 1.0172219679 1.2156949949 1.271087727 1.3676273807 1.5707963268 2.1243706857 
1.3676273807 1.447813335 1.5707963268 1.7739652728 2.1243706857 2.6469669131 1.4827341049 1.5707963268 1.6937793186 
1.8705049266 2.1243706857 2.4613776767 2.8286213739 1.5707963268 1.6588585487 1.7739652728 1.9258976586 2.1243706857 
2.3709992258 2.6469669131 2.9144344902 0.26576171152 0.33975332011 0.45685295248 0.40226393329 0.51573716537 0.6552068806 
0.45538277901 0.56421707518 0.69407236469 0.84594095064 0.50083690068 0.60464862014 0.72561863695 0.86392567495 1.0172219679 
0.54002084522 0.63877777351 0.75168694275 0.87851444325 1.0172219679 1.1636342747 0.57404952988 0.66790778838 0.77356233629 
0.89058134991 1.0172219679 1.1502619915 1.2852923014 0.60381225391 0.69302191562 0.79216440667 0.90072551443 1.0172219679 
1.139116835 1.2630228569 1.3852070904 0.71487100155 0.80816628637 0.80816628637 0.90937090954 0.90937090954 0.90937090954 
1.0172219679 1.0172219679 1.0172219679 1.0172219679 1.1296873865 1.1296873865 1.1296873865 1.1296873865 1.1296873865 
1.24411054 1.24411054 1.24411054 1.24411054 1.24411054 1.24411054 1.3575464161 1.3575464161 1.3575464161 
1.3575464161 1.3575464161 1.3575464161 1.3575464161 1.4671972081 1.4671972081 1.4671972081 1.4671972081 1.4671972081 
1.4671972081 1.4671972081 1.4671972081 1.6743954455 1.6743954455 1.7840462375 1.6743954455 1.7840462375 1.8974821136 
1.6743954455 1.7840462375 1.8974821136 2.0119052671 1.6743954455 1.7840462375 1.8974821136 2.0119052671 2.1243706857 
1.6743954455 1.7840462375 1.8974821136 2.0119052671 2.1243706857 2.232221744 1.6743954455 1.7840462375 1.8974821136 
2.0119052671 2.1243706857 2.232221744 2.3334263672 1.6743954455 1.7840462375 1.8974821136 2.0119052671 2.1243706857 
2.232221744 2.3334263672 2.426721652 1.7563855631 1.8785697967 1.8563003522 2.0024758186 1.9913306621 1.9779583789 
2.1243706857 2.1243706857 2.1243706857 2.1243706857 2.2408671392 2.2510113037 2.2630782103 2.2776669786 2.295651703 
2.3494282469 2.3680303173 2.3899057108 2.4159740166 2.4475202889 2.486385773 2.448570738 2.4736848652 2.5028148801 
2.5369440334 2.5773755784 2.6258554882 2.6847397011 2.5377803997 2.5675431237 2.6015718084 2.6407557529 2.6862098746 
2.7393287203 2.8018393335 2.8758309421 2.718901062 2.8307207459 2.7598010554 2.95115522 2.8800620952 2.8058000847 
3.0774230472 3.00855263 2.9351694502 2.8576792927 3.0774230472 3.1415926536 3.0719036933 2.9967168029 2.91630358 
2.95115522 3.00855263 3.0719036933 3.1415926536 3.0653475414 2.9825888767 2.8307207459 2.8800620952 2.9351694502 
2.9967168029 3.0653475414 3.1415926536 3.0574329311 2.718901062 2.7598010554 2.8058000847 2.8576792927 2.91630358 
2.9825888767 3.0574329311 3.1415926536 2.718901062 2.7598010554 2.8307207459 2.8058000847 2.8800620952 2.95115522 
2.8576792927 2.9351694502 3.00855263 3.0774230472 2.91630358 2.9967168029 3.0719036933 3.1415926536 3.0774230472 
2.9825888767 3.0653475414 3.1415926536 3.0719036933 3.00855263 2.95115522 3.0574329311 3.1415926536 3.0653475414 