# vtk DataFile Version 5.1
vtk output
ASCII
DATASET POLYDATA
POINTS 1002 float
-10.485 -2.3804 -3.89979 8.40819 0.316387 -3.54236 -11.9264 -1.8048 0.968873 
11.6594 0.185064 2.71205 1.2286 -1.64559 -1.8349 1.82142 -2.41176 -0.0934406 
-0.386748 -11.4965 -3.16003 -0.245241 -11.2234 2.59344 14.7204 13.3589 2.55143 
-17.6049 13.9559 0.533272 14.6582 0.654432 0.530346 -13.6329 2.91899 1.26665 
-8.2342 -3.5912 -4.14837 -5.66594 -4.69993 -4.36119 -3.08303 -5.59414 -4.65566 
-0.568666 -5.95806 -4.81657 1.95317 -5.50222 -4.44299 4.24616 -4.36433 -3.6485 
5.85494 -3.01657 -3.067 6.77719 -1.78115 -3.01953 7.49896 -0.688455 -3.27668 
-10.3229 -2.25988 -4.06485 -9.81783 -2.20667 -4.12869 -9.04301 -2.38786 -4.08667 
-8.1343 -2.75953 -3.99331 -7.0555 -3.07217 -3.85398 -5.65419 -3.19708 -3.58168 
-3.95688 -3.16397 -3.1498 -2.16112 -2.92236 -2.66666 -0.413345 -2.39443 -2.23073 
-9.12184 -3.26471 -3.89154 -7.5624 -4.16488 -3.85507 -5.99591 -5.17062 -3.79845 
-4.55674 -6.42064 -3.7995 -3.20181 -7.86557 -3.91937 -1.93849 -9.21136 -4.07006 
-1.02096 -10.2269 -4.10524 -0.615523 -10.9155 -3.96786 -0.51395 -11.3379 -3.652 
-12.4491 -0.886132 -3.62891 -14.2143 1.00639 -3.18801 -15.7046 3.24669 -2.58496 
-17.0137 5.60979 -1.88754 -18.1399 7.87729 -1.2126 -18.8359 9.98242 -0.689318 
-18.919 11.8387 -0.36533 -18.5474 13.2101 -0.14321 -18.0414 13.9063 0.132893 
-11.5904 -1.52581 -3.46016 -12.3924 -0.389374 -2.80076 -13.0022 0.87451 -2.09255 
-13.5931 1.99256 -1.50559 -14.109 2.8602 -0.950072 -14.3126 3.5751 -0.27939 
-14.175 4.10902 0.367208 -13.9278 4.23062 0.786951 -13.7498 3.79937 1.03074 
8.486 0.698422 -3.20165 8.45316 1.00899 -2.82672 8.2073 1.22908 -2.4243 
7.76774 1.30474 -2.02508 7.17292 1.11935 -1.69844 6.33331 0.618373 -1.52764 
5.17321 -0.065043 -1.53029 3.81341 -0.726545 -1.63188 2.45962 -1.25901 -1.74475 
7.6936 -0.754931 -3.67296 7.05981 -1.94009 -3.67935 6.54036 -3.21243 -3.5423 
6.04629 -4.52902 -3.24432 5.38353 -5.83782 -2.85049 4.40127 -7.11392 -2.56827 
3.13891 -8.36366 -2.569 1.79648 -9.56666 -2.78992 0.583731 -10.6426 -3.03187 
9.68419 1.63382 -3.48099 11.2009 3.13183 -3.25744 12.6014 4.73903 -2.93359 
13.667 6.35287 -2.47838 14.5972 7.92885 -1.71035 15.5079 9.4679 -0.622903 
15.9806 10.902 0.445366 15.7151 12.0926 1.24129 15.1016 12.928 1.88053 
9.13072 0.643939 -3.92339 10.1305 0.888209 -4.37757 11.262 0.989134 -4.75549 
12.2874 0.949038 -4.70422 13.0878 0.834566 -3.98729 13.6688 0.73223 -2.86669 
14.0542 0.70779 -1.81544 14.3087 0.750829 -0.968913 14.5129 0.764964 -0.199259 
-10.3567 -3.0267 0.693519 -8.32034 -4.11163 0.461928 -6.01111 -4.98112 0.379903 
-3.51254 -5.50709 0.569965 -0.671003 -5.46688 1.09959 2.5734 -4.70555 1.86911 
5.83789 -3.40419 2.56078 8.55596 -1.99251 2.89362 10.461 -0.779649 2.88193 
-11.9406 -1.6627 0.691943 -11.8387 -1.71039 0.239324 -11.4698 -1.97096 -0.415416 
-10.5316 -2.34517 -1.00859 -8.81154 -2.70234 -1.18905 -6.46921 -2.98638 -0.972099 
-3.95708 -3.16538 -0.69101 -1.67641 -3.16409 -0.520713 0.229232 -2.91443 -0.363056 
-10.9606 -2.8914 1.04172 -9.8249 -4.1382 1.08626 -8.51865 -5.41444 1.05119 
-6.97933 -6.60978 1.01739 -5.26661 -7.77034 1.19324 -3.65576 -8.94986 1.66522 
-2.38414 -9.99938 2.22764 -1.45788 -10.7184 2.59413 -0.773958 -11.0883 2.67969 
-13.1531 -0.271596 1.14969 -14.1073 1.58175 1.45158 -14.8832 3.80073 1.91421 
-15.6558 6.32339 2.56557 -16.3781 8.92883 3.27996 -16.8666 11.3322 3.64316 
-17.152 13.2489 3.28258 -17.3904 14.3839 2.34095 -17.5766 14.5741 1.31253 
-12.5543 -1.07262 1.33799 -12.7851 -0.179539 1.97693 -12.6901 0.726564 3.01122 
-12.7306 1.35056 4.09839 -13.1938 1.63332 4.61435 -13.7153 1.91656 4.35361 
-13.8705 2.42843 3.64117 -13.7706 2.93453 2.80506 -13.6876 3.11394 1.98295 
11.3719 0.543186 2.68471 10.9754 0.94944 2.71252 10.3849 1.26051 2.89253 
9.52652 1.25326 3.14426 8.46547 0.852873 3.14897 7.3513 0.224501 2.6991 
6.18234 -0.460289 1.94529 4.83918 -1.16543 1.15524 3.3336 -1.85259 0.465015 
11.2592 -0.683296 2.90466 10.6526 -1.65234 3.14277 9.72207 -2.81672 3.35351 
8.38253 -4.13973 3.50048 6.73592 -5.50367 3.58634 5.0609 -6.86205 3.59961 
3.57288 -8.17992 3.50656 2.26878 -9.35928 3.29553 1.0233 -10.3581 2.98418 
12.3251 1.33071 2.52115 12.762 2.6635 2.32367 13.0195 4.14375 1.9886 
13.2869 5.64213 1.59255 13.7559 7.07124 1.57546 14.316 8.49594 2.17688 
14.6436 10.0054 2.93712 14.6683 11.4984 3.24458 14.6319 12.6959 3.0154 
12.3343 0.510163 2.56032 12.9393 0.840897 2.36699 13.5348 1.14723 2.21702 
14.1991 1.31944 2.16293 14.9684 1.33128 2.21043 15.67 1.30727 2.29289 
15.9801 1.30903 2.22533 15.7825 1.23531 1.83961 15.2662 1.00424 1.19701 
1.59116 -1.37368 -1.57699 2.12091 -1.27273 -1.22143 2.65043 -1.41849 -0.873529 
2.9545 -1.70674 -0.671382 2.91202 -1.98252 -0.667369 2.60057 -2.19912 -0.737601 
2.22658 -2.34053 -0.688815 1.96262 -2.37795 -0.480404 1.84746 -2.36601 -0.242372 
3.52626 -0.35259 -1.3961 5.82412 1.55917 -0.908765 7.97566 3.93495 -0.304487 
9.71371 6.28669 0.36313 11.0258 8.22376 0.960959 12.2447 9.93908 1.44324 
13.4708 11.7158 1.84763 14.3703 13.1997 2.18087 14.7269 13.7833 2.41948 
-1.1805 -2.26251 -2.23029 -4.2245 -2.28819 -2.75075 -7.70066 -1.3614 -3.30678 
-10.7869 0.708383 -3.68436 -12.6304 3.49226 -3.52577 -13.4339 6.12373 -2.63586 
-14.2346 8.21657 -1.3983 -15.5081 10.1059 -0.447512 -16.8063 12.0821 0.0741889 
4.293 -1.01233 0.877063 6.90705 1.38148 2.45768 9.34647 4.2168 3.97792 
11.2443 6.6194 4.55121 12.7096 8.43319 4.29062 14.0127 10.2546 4.08695 
14.9008 12.1773 4.12569 15.0598 13.5221 3.8942 14.8066 13.8436 3.2624 
-0.75067 -2.89696 -0.625251 -3.78976 -2.67954 -1.02252 -7.28887 -1.88625 -1.60771 
-10.7711 -0.38469 -2.10853 -13.3638 2.19028 -1.72176 -14.6974 5.53139 -0.433159 
-15.3534 8.60563 0.694081 -16.0293 10.8609 0.977583 -16.8444 12.5503 0.743232 
-0.745045 -11.9676 -2.81431 -1.03368 -12.3914 -2.39275 -1.36 -12.6975 -1.86147 
-1.8922 -12.9464 -1.21093 -2.54304 -13.2184 -0.480296 -2.86812 -13.3559 0.277529 
-2.53848 -13.1077 1.01385 -1.73227 -12.5078 1.66858 -0.87809 -11.8198 2.19613 
0.588189 -10.7549 -2.34118 2.08242 -9.49531 -1.34225 3.84793 -8.11032 -0.699098 
5.589 -6.83804 -0.553499 7.40023 -5.45097 -0.395701 9.40824 -3.79924 0.0470969 
11.2743 -2.23292 0.375422 12.6677 -1.05835 0.368792 13.7178 -0.163493 0.335524 
-1.26869 -11.913 -3.36993 -2.16313 -11.6503 -3.18384 -3.48315 -10.7992 -2.87922 
-5.34181 -9.51004 -2.67047 -7.28985 -7.65757 -2.27472 -8.98079 -5.21362 -1.46798 
-10.5688 -2.67186 -0.609824 -12.0718 -0.513955 0.00355937 -13.1449 1.28289 0.563298 
1.18888 -10.6081 2.72304 3.02777 -9.67508 2.90186 5.24599 -8.47249 3.15306 
7.56139 -7.05295 3.25435 9.58155 -5.4895 2.94454 11.136 -3.90036 2.34889 
12.3378 -2.41791 1.81522 13.32 -1.14373 1.41891 14.0958 -0.1261 1.01021 
-1.86557 -11.8983 2.16807 -3.55634 -12.1831 1.59003 -5.23507 -11.7825 0.95683 
-6.78038 -10.5504 0.497899 -8.18123 -8.63434 0.407059 -9.58993 -6.34645 0.616447 
-11.057 -3.93346 0.865331 -12.3491 -1.52576 1.00722 -13.2068 0.788992 1.10589 
14.8734 12.1004 2.17371 15.4294 10.5471 1.75447 16.1885 9.15361 1.14485 
16.5529 7.96144 0.245674 16.3619 6.70669 -0.54387 16.152 5.34733 -0.661837 
16.1831 4.0299 -0.213436 16.0582 2.79551 0.229616 15.4882 1.65348 0.426458 
-18.1063 15.7587 1.067 -18.2075 16.9717 2.14223 -18.223 16.8146 3.33001 
-18.2392 15.3909 3.92558 -17.6978 13.7424 3.83848 -16.3025 12.3441 3.56024 
-14.8069 10.5765 3.2492 -14.0207 8.08343 2.7022 -13.8232 5.35144 1.95623 
-7.73051 -3.47334 -4.24819 -6.89819 -3.487 -4.27123 -4.8713 -4.5587 -4.45282 
-5.88138 -3.70684 -4.20411 -3.80433 -4.53875 -4.42655 -2.07234 -5.29953 -4.65769 
-4.7771 -3.87218 -3.97693 -2.62718 -4.52481 -4.16318 -0.854443 -4.98555 -4.37155 
0.622801 -5.29266 -4.48732 -3.48767 -3.70999 -3.51183 -1.39175 -4.15904 -3.55225 
0.394406 -4.42452 -3.69973 1.88006 -4.45603 -3.80979 3.19038 -4.38657 -3.77674 
-1.9765 -3.31514 -2.89887 -0.0425082 -3.4112 -2.73529 1.63599 -3.43537 -2.77 
3.02988 -3.31357 -2.9227 4.26006 -3.10615 -3.02308 5.26559 -2.97998 -3.04672 
-0.415505 -2.8316 -2.36506 1.33979 -2.58972 -2.07956 2.89353 -2.27125 -1.98056 
4.13353 -1.93962 -2.12459 5.16344 -1.66979 -2.37839 6.0404 -1.54072 -2.61218 
6.60362 -1.58844 -2.81876 1.06134 -2.16872 -2.0127 2.62208 -1.75035 -1.76585 
4.08914 -1.18503 -1.61116 5.26132 -0.612127 -1.67237 6.12597 -0.218102 -1.94237 
6.81416 -0.0856131 -2.30228 7.31457 -0.164964 -2.65927 7.52419 -0.382794 -2.98523 
-12.4058 -0.744648 -3.8591 -14.2843 1.14385 -3.47483 -11.9901 -0.744916 -3.91597 
-15.8366 3.31886 -2.87726 -13.959 1.075 -3.50374 -11.3019 -1.03365 -3.82054 
-17.0586 5.53157 -2.15143 -15.5124 3.15484 -2.89028 -13.3496 0.693496 -3.40345 
-10.4422 -1.54719 -3.7564 -17.8447 7.56212 -1.47372 -16.5161 5.22531 -2.24041 
-14.8772 2.68933 -2.93633 -12.5281 0.0149323 -3.50027 -9.28281 -2.10949 -3.77667 
-18.024 9.31962 -0.97903 -16.8219 7.03025 -1.71627 -15.624 4.66918 -2.57403 
-14.0134 1.84912 -3.33224 -11.2919 -0.870313 -3.75231 -7.64066 -2.59569 -3.67176 
-17.6905 10.7212 -0.647618 -16.478 8.45524 -1.3119 -15.4781 6.32833 -2.28474 
-14.5431 3.69625 -3.24389 -12.656 0.664054 -3.77718 -9.39632 -1.72771 -3.75663 
-5.57799 -2.84647 -3.30001 -17.1944 11.6563 -0.3353 -15.8967 9.48052 -0.914417 
-14.7976 7.50896 -1.91005 -14.1388 5.19471 -3.05039 -13.0282 2.25622 -3.74524 
-10.5063 -0.533769 -3.7781 -6.91661 -2.2328 -3.35733 -3.34485 -2.71688 -2.76951 
-15.7346 10.7697 0.256797 -14.8775 9.01585 0.151064 -14.3441 8.83303 -0.61221 
-14.3042 6.39779 -0.635453 -13.5995 6.79519 -1.18317 -13.1721 6.70061 -1.93527 
-13.3276 3.11404 -1.75253 -12.8294 3.86431 -1.99764 -12.2207 4.27242 -2.49733 
-12.1518 4.17776 -3.08233 -11.0367 0.230068 -2.20988 -10.9654 0.884094 -2.33463 
-10.5164 1.44868 -2.61203 -10.2037 1.71523 -3.02663 -10.4135 1.46589 -3.42542 
-7.5711 -1.57856 -1.78324 -7.71337 -1.20255 -1.91151 -7.51513 -0.790649 -2.08844 
-7.16355 -0.455177 -2.3875 -7.13874 -0.390853 -2.7526 -7.46945 -0.731559 -3.07764 
-3.9537 -2.55584 -1.21305 -4.03455 -2.38614 -1.36344 -3.89027 -2.14447 -1.47525 
[...]
POINT_DATA 1002
FIELD FieldData 4
_paraPhi 1 1002 double
6.2831853072 3.1415926536 6.2831853072 3.1415926536 4.7123889804 4.7123889804 1.5707963268 1.5707963268 3.6951670125 
5.7296109483 2.5880182947 0.5535743589 6.2831853072 6.2831853072 6.2831853072 6.2831853072 3.1415926536 3.1415926536 
3.1415926536 3.1415926536 3.1415926536 6.1053039672 5.898798347 5.6768734901 5.4599499503 5.2659633393 5.1032165617 
4.9713148346 4.8656852733 4.7809517865 0.17788134 0.38438696014 0.60631181711 0.82323535693 1.0172219679 1.1799687454 
1.3118704726 1.4175000338 1.5022335207 6.1892828907 6.1070320098 6.035312792 5.9728339911 5.9183214791 5.8706119594 
5.8286879411 5.7916808611 5.7588591896 0.093902416448 0.17615329733 0.2478725152 0.31035131605 0.36486382811 0.41257334776 
0.45449736604 0.4915044461 0.52432611754 3.3194739936 3.5259796137 3.7479044707 3.9648280105 4.1588146215 4.321561399 
4.4534631262 4.5590926874 4.6438261743 2.9637113136 2.7572056934 2.5352808365 2.3183572967 2.1243706857 1.9616239082 
1.829722181 1.7240926197 1.6393591329 3.23549507 3.3177459509 3.3894651688 3.4519439696 3.5064564817 3.5541660013 
3.5960900196 3.6330970997 3.6659187711 3.0476902371 2.9654393563 2.8937201384 2.8312413375 2.7767288255 2.7290193058 
2.6870952876 2.6500882075 2.617266536 6.2831853072 6.2831853072 6.2831853072 6.2831853072 3.1415926536 3.1415926536 
3.1415926536 3.1415926536 3.1415926536 6.1053039672 5.898798347 5.6768734901 5.4599499503 5.2659633393 5.1032165617 
4.9713148346 4.8656852733 4.7809517865 0.17788134 0.38438696014 0.60631181711 0.82323535693 1.0172219679 1.1799687454 
1.3118704726 1.4175000338 1.5022335207 6.1892828907 6.1070320098 6.035312792 5.9728339911 5.9183214791 5.8706119594 
5.8286879411 5.7916808611 5.7588591896 0.093902416448 0.17615329733 0.2478725152 0.31035131605 0.36486382811 0.41257334776 
0.45449736604 0.4915044461 0.52432611754 3.3194739936 3.5259796137 3.7479044707 3.9648280105 4.1588146215 4.321561399 
4.4534631262 4.5590926874 4.6438261743 2.9637113136 2.7572056934 2.5352808365 2.3183572967 2.1243706857 1.9616239082 
1.829722181 1.7240926197 1.6393591329 3.23549507 3.3177459509 3.3894651688 3.4519439696 3.5064564817 3.5541660013 
3.5960900196 3.6330970997 3.6659187711 3.0476902371 2.9654393563 2.8937201384 2.8312413375 2.7767288255 2.7290193058 
2.6870952876 2.6500882075 2.617266536 4.7123889804 4.7123889804 4.7123889804 4.7123889804 4.7123889804 4.7123889804 
4.7123889804 4.7123889804 4.7123889804 4.6087898617 4.4991390697 4.3857031936 4.2712800401 4.1588146215 4.0509635631 
3.94975894 3.8564636551 3.7716124825 4.8159880991 4.9256388911 5.0390747672 5.1534979207 5.2659633393 5.3738143976 
5.4750190208 5.5683143056 5.6531654782 4.6087898617 4.4991390697 4.3857031936 4.2712800401 4.1588146215 4.0509635631 
3.94975894 3.8564636551 3.7716124825 4.8159880991 4.9256388911 5.0390747672 5.1534979207 5.2659633393 5.3738143976 
5.4750190208 5.5683143056 5.6531654782 1.5707963268 1.5707963268 1.5707963268 1.5707963268 1.5707963268 1.5707963268 
1.5707963268 1.5707963268 1.5707963268 1.6743954455 1.7840462375 1.8974821136 2.0119052671 2.1243706857 2.232221744 
2.3334263672 2.426721652 2.5115728246 1.4671972081 1.3575464161 1.24411054 1.1296873865 1.0172219679 0.90937090954 
0.80816628637 0.71487100155 0.63001982895 1.6743954455 1.7840462375 1.8974821136 2.0119052671 2.1243706857 2.232221744 
2.3334263672 2.426721652 2.5115728246 1.4671972081 1.3575464161 1.24411054 1.1296873865 1.0172219679 0.90937090954 
0.80816628637 0.71487100155 0.63001982895 3.6007720849 3.4966939854 3.3839471039 3.2645756454 3.1415926536 3.0186096618 
2.8992382033 2.7864913217 2.6824132222 5.8240058758 5.9280839753 6.0408308569 6.1602023154 6.2831853072 0.12298299178 
0.2423544503 0.35510133185 0.45917943135 6.0560271438 5.7885595667 5.9702140275 5.5125918794 5.6029703303 5.7885595667 
5.2659633393 5.2659633393 5.2659633393 5.2659633393 5.0674903122 5.0120975802 4.9155579264 4.7123889804 4.1588146215 
4.9155579264 4.8353719722 4.7123889804 4.5092200343 4.1588146215 3.6362183941 4.8004512023 4.7123889804 4.5894059886 
4.4126803806 4.1588146215 3.8218076305 3.4545639333 4.7123889804 4.6243267584 4.5092200343 4.3572876485 4.1588146215 
3.9121860814 3.6362183941 3.368750817 6.0174235957 5.9434319871 5.8263323547 5.8809213739 5.7674481418 5.6279784266 
5.8278025282 5.718968232 5.5891129425 5.4372443565 5.7823484065 5.678536687 5.5575666702 5.4192596322 5.2659633393 
5.743164462 5.6444075337 5.5314983644 5.4046708639 5.2659633393 5.1195510325 5.7091357773 5.6152775188 5.5096229709 
5.3926039573 5.2659633393 5.1329233157 4.9978930058 5.6793730533 5.5901633916 5.4910209005 5.3824597928 5.2659633393 
5.1440684722 5.0201624502 4.8979782167 5.5683143056 5.4750190208 5.4750190208 5.3738143976 5.3738143976 5.3738143976 
5.2659633393 5.2659633393 5.2659633393 5.2659633393 5.1534979207 5.1534979207 5.1534979207 5.1534979207 5.1534979207 
5.0390747672 5.0390747672 5.0390747672 5.0390747672 5.0390747672 5.0390747672 4.9256388911 4.9256388911 4.9256388911 
4.9256388911 4.9256388911 4.9256388911 4.9256388911 4.8159880991 4.8159880991 4.8159880991 4.8159880991 4.8159880991 
4.8159880991 4.8159880991 4.8159880991 4.6087898617 4.6087898617 4.4991390697 4.6087898617 4.4991390697 4.3857031936 
4.6087898617 4.4991390697 4.3857031936 4.2712800401 4.6087898617 4.4991390697 4.3857031936 4.2712800401 4.1588146215 
4.6087898617 4.4991390697 4.3857031936 4.2712800401 4.1588146215 4.0509635631 4.6087898617 4.4991390697 4.3857031936 
4.2712800401 4.1588146215 4.0509635631 3.94975894 4.6087898617 4.4991390697 4.3857031936 4.2712800401 4.1588146215 
4.0509635631 3.94975894 3.8564636551 4.526799744 4.4046155105 4.426884955 4.2807094886 4.2918546451 4.3052269283 
4.1588146215 4.1588146215 4.1588146215 4.1588146215 4.042318168 4.0321740035 4.0201070968 4.0055183285 3.9875336042 
3.9337570603 3.9151549899 3.8932795963 3.8672112905 3.8356650183 3.7967995342 3.8346145692 3.809500442 3.7803704271 
3.7462412737 3.7058097288 3.657329819 3.5984456061 3.7454049075 3.7156421835 3.6816134988 3.6424295543 3.5969754326 
3.5438565869 3.4813459737 3.4073543651 3.5642842451 3.4524645613 3.5233842518 3.3320300872 3.403123212 3.4773852225 
3.20576226 3.2746326772 3.348015857 3.4255060145 3.0774230472 3.1415926536 3.2112816139 3.2864685043 3.3668817272 
2.95115522 3.00855263 3.0719036933 3.1415926536 3.2178377658 3.3005964304 2.8307207459 2.8800620952 2.9351694502 
2.9967168029 3.0653475414 3.1415926536 3.225752376 2.718901062 2.7598010554 2.8058000847 2.8576792927 2.91630358 
2.9825888767 3.0574329311 3.1415926536 3.5642842451 3.5233842518 3.4524645613 3.4773852225 3.403123212 3.3320300872 
3.4255060145 3.348015857 3.2746326772 3.20576226 3.3668817272 3.2864685043 3.2112816139 3.1415926536 3.0774230472 
3.3005964304 3.2178377658 3.1415926536 3.0719036933 3.00855263 2.95115522 3.225752376 3.1415926536 3.0653475414 
2.9967168029 2.9351694502 2.8800620952 2.8307207459 3.1415926536 3.0574329311 2.9825888767 2.91630358 2.8576792927 
2.8058000847 2.7598010554 2.718901062 4.526799744 4.426884955 4.4046155105 4.3052269283 4.2918546451 4.2807094886 
4.1588146215 4.1588146215 4.1588146215 4.1588146215 3.9875336042 4.0055183285 4.0201070968 4.0321740035 4.042318168 
3.7967995342 3.8356650183 3.8672112905 3.8932795963 3.9151549899 3.9337570603 3.5984456061 3.657329819 3.7058097288 
3.7462412737 3.7803704271 3.809500442 3.8346145692 3.4073543651 3.4813459737 3.5438565869 3.5969754326 3.6424295543 
3.6816134988 3.7156421835 3.7454049075 4.7123889804 4.8004512023 4.6243267584 4.9155579264 4.7123889804 4.5092200343 
5.0674903122 4.8353719722 4.5894059886 4.3572876485 5.2659633393 5.0120975802 4.7123889804 4.4126803806 4.1588146215 
5.5125918794 5.2659633393 4.9155579264 4.5092200343 4.1588146215 3.9121860814 5.7885595667 5.6029703303 5.2659633393 
4.7123889804 4.1588146215 3.8218076305 3.6362183941 6.0560271438 5.9702140275 5.7885595667 5.2659633393 4.1588146215 
3.6362183941 3.4545639333 3.368750817 0.22715816343 0.49462574053 0.3129712797 0.77059342779 0.68021497688 0.49462574053 
1.0172219679 1.0172219679 1.0172219679 1.0172219679 1.2156949949 1.271087727 1.3676273807 1.5707963268 2.1243706857 
1.3676273807 1.447813335 1.5707963268 1.7739652728 2.1243706857 2.6469669131 1.4827341049 1.5707963268 1.6937793186 
1.8705049266 2.1243706857 2.4613776767 2.8286213739 1.5707963268 1.6588585487 1.7739652728 1.9258976586 2.1243706857 
2.3709992258 2.6469669131 2.9144344902 1.7563855631 1.8785697967 1.8563003522 2.0024758186 1.9913306621 1.9779583789 
2.1243706857 2.1243706857 2.1243706857 2.1243706857 2.2408671392 2.2510113037 2.2630782103 2.2776669786 2.295651703 
2.3494282469 2.3680303173 2.3899057108 2.4159740166 2.4475202889 2.486385773 2.448570738 2.4736848652 2.5028148801 
2.5369440334 2.5773755784 2.6258554882 2.6847397011 2.5377803997 2.5675431237 2.6015718084 2.6407557529 2.6862098746 
2.7393287203 2.8018393335 2.8758309421 1.6743954455 1.6743954455 1.7840462375 1.6743954455 1.7840462375 1.8974821136 
1.6743954455 1.7840462375 1.8974821136 2.0119052671 1.6743954455 1.7840462375 1.8974821136 2.0119052671 2.1243706857 
1.6743954455 1.7840462375 1.8974821136 2.0119052671 2.1243706857 2.232221744 1.6743954455 1.7840462375 1.8974821136 
2.0119052671 2.1243706857 2.232221744 2.3334263672 1.6743954455 1.7840462375 1.8974821136 2.0119052671 2.1243706857 
2.232221744 2.3334263672 2.426721652 1.4671972081 1.3575464161 1.4671972081 1.24411054 1.3575464161 1.4671972081 
1.1296873865 1.24411054 1.3575464161 1.4671972081 1.0172219679 1.1296873865 1.24411054 1.3575464161 1.4671972081 
0.90937090954 1.0172219679 1.1296873865 1.24411054 1.3575464161 1.4671972081 0.80816628637 0.90937090954 1.0172219679 
1.1296873865 1.24411054 1.3575464161 1.4671972081 0.71487100155 0.80816628637 0.90937090954 1.0172219679 1.1296873865 
1.24411054 1.3575464161 1.4671972081 0.60381225391 0.57404952988 0.69302191562 0.54002084522 0.66790778838 0.79216440667 
0.50083690068 0.63877777351 0.77356233629 0.90072551443 0.45538277901 0.60464862014 0.75168694275 0.89058134991 1.0172219679 
0.40226393329 0.56421707518 0.72561863695 0.87851444325 1.0172219679 1.139116835 0.33975332011 0.51573716537 0.69407236469 
0.86392567495 1.0172219679 1.1502619915 1.2630228569 0.26576171152 0.45685295248 0.6552068806 0.84594095064 1.0172219679 
1.1636342747 1.2852923014 1.3852070904 0.22715816343 0.3129712797 0.49462574053 0.49462574053 0.68021497688 0.77059342779 
1.0172219679 1.0172219679 1.0172219679 1.0172219679 2.1243706857 1.5707963268 1.3676273807 1.271087727 1.2156949949 
2.6469669131 2.1243706857 1.7739652728 1.5707963268 1.447813335 1.3676273807 2.8286213739 2.4613776767 2.1243706857 
1.8705049266 1.6937793186 1.5707963268 1.4827341049 2.9144344902 2.6469669131 2.3709992258 2.1243706857 1.9258976586 
1.7739652728 1.6588585487 1.5707963268 1.7563855631 1.8563003522 1.8785697967 1.9779583789 1.9913306621 2.0024758186 
2.1243706857 2.1243706857 2.1243706857 2.1243706857 2.295651703 2.2776669786 2.2630782103 2.2510113037 2.2408671392 
2.486385773 2.4475202889 2.4159740166 2.3899057108 2.3680303173 2.3494282469 2.6847397011 2.6258554882 2.5773755784 
2.5369440334 2.5028148801 2.4736848652 2.448570738 2.8758309421 2.8018393335 2.7393287203 2.6862098746 2.6407557529 
2.6015718084 2.5675431237 2.5377803997 5.8604937156 5.901393709 5.9723133995 5.9473927383 6.0216547488 6.0927478736 
5.9992719463 6.0767621038 6.1501452836 6.2190157008 6.0578962336 6.1383094565 6.2134963469 0 0.064169606361 
6.1241815303 6.206940195 6.2831853072 0.069688960264 0.13304002361 0.19043743361 6.1990255847 0 0.07624511221 
0.14487585072 0.20642320337 0.26153055843 0.3108719077 0 0.084159722458 0.15900377685 0.22528907359 0.28391336087 
0.3357925689 0.38179159818 0.42269159155 5.8604937156 5.9723133995 5.901393709 6.0927478736 6.0216547488 5.9473927383 
6.2190157008 6.1501452836 6.0767621038 5.9992719463 0.064169606361 0 6.2134963469 6.1383094565 6.0578962336 
0.19043743361 0.13304002361 0.069688960264 6.2831853072 6.206940195 6.1241815303 0.3108719077 0.26153055843 0.20642320337 
0.14487585072 0.07624511221 6.2831853072 6.1990255847 0.42269159155 0.38179159818 0.3357925689 0.28391336087 0.22528907359 
0.15900377685 0.084159722458 0 5.6793730533 5.7091357773 5.5901633916 5.743164462 5.6152775188 5.4910209005 
5.7823484065 5.6444075337 5.5096229709 5.3824597928 5.8278025282 5.678536687 5.5314983644 5.3926039573 5.2659633393 
5.8809213739 5.718968232 5.5575666702 5.4046708639 5.2659633393 5.1440684722 5.9434319871 5.7674481418 5.5891129425 
5.4192596322 5.2659633393 5.1329233157 5.0201624502 6.0174235957 5.8263323547 5.6279784266 5.4372443565 5.2659633393 
5.1195510325 4.9978930058 4.8979782167 1.3852070904 1.2852923014 1.2630228569 1.1636342747 1.1502619915 1.139116835 
1.0172219679 1.0172219679 1.0172219679 1.0172219679 0.84594095064 0.86392567495 0.87851444325 0.89058134991 0.90072551443 
0.6552068806 0.69407236469 0.72561863695 0.75168694275 0.77356233629 0.79216440667 0.45685295248 0.51573716537 0.56421707518 
0.60464862014 0.63877777351 0.66790778838 0.69302191562 0.26576171152 0.33975332011 0.40226393329 0.45538277901 0.50083690068 
0.54002084522 0.57404952988 0.60381225391 
_paraPhiHalf 1 1002 double
0 3.1415926536 0 3.1415926536 1.5707963268 1.5707963268 1.5707963268 1.5707963268 2.5880182947 
0.5535743589 2.5880182947 0.5535743589 0 0 0 0 3.1415926536 3.1415926536 
3.1415926536 3.1415926536 3.1415926536 0.17788134 0.38438696014 0.60631181711 0.82323535693 1.0172219679 1.1799687454 
1.3118704726 1.4175000338 1.5022335207 0.17788134 0.38438696014 0.60631181711 0.82323535693 1.0172219679 1.1799687454 
1.3118704726 1.4175000338 1.5022335207 0.093902416448 0.17615329733 0.2478725152 0.31035131605 0.36486382811 0.41257334776 
0.45449736604 0.4915044461 0.52432611754 0.093902416448 0.17615329733 0.2478725152 0.31035131605 0.36486382811 0.41257334776 
0.45449736604 0.4915044461 0.52432611754 2.9637113136 2.7572056934 2.5352808365 2.3183572967 2.1243706857 1.9616239082 
1.829722181 1.7240926197 1.6393591329 2.9637113136 2.7572056934 2.5352808365 2.3183572967 2.1243706857 1.9616239082 
1.829722181 1.7240926197 1.6393591329 3.0476902371 2.9654393563 2.8937201384 2.8312413375 2.7767288255 2.7290193058 
2.6870952876 2.6500882075 2.617266536 3.0476902371 2.9654393563 2.8937201384 2.8312413375 2.7767288255 2.7290193058 
2.6870952876 2.6500882075 2.617266536 0 0 0 0 3.1415926536 3.1415926536 
3.1415926536 3.1415926536 3.1415926536 0.17788134 0.38438696014 0.60631181711 0.82323535693 1.0172219679 1.1799687454 
1.3118704726 1.4175000338 1.5022335207 0.17788134 0.38438696014 0.60631181711 0.82323535693 1.0172219679 1.1799687454 
1.3118704726 1.4175000338 1.5022335207 0.093902416448 0.17615329733 0.2478725152 0.31035131605 0.36486382811 0.41257334776 
0.45449736604 0.4915044461 0.52432611754 0.093902416448 0.17615329733 0.2478725152 0.31035131605 0.36486382811 0.41257334776 
0.45449736604 0.4915044461 0.52432611754 2.9637113136 2.7572056934 2.5352808365 2.3183572967 2.1243706857 1.9616239082 
1.829722181 1.7240926197 1.6393591329 2.9637113136 2.7572056934 2.5352808365 2.3183572967 2.1243706857 1.9616239082 
1.829722181 1.7240926197 1.6393591329 3.0476902371 2.9654393563 2.8937201384 2.8312413375 2.7767288255 2.7290193058 
2.6870952876 2.6500882075 2.617266536 3.0476902371 2.9654393563 2.8937201384 2.8312413375 2.7767288255 2.7290193058 
2.6870952876 2.6500882075 2.617266536 1.5707963268 1.5707963268 1.5707963268 1.5707963268 1.5707963268 1.5707963268 
1.5707963268 1.5707963268 1.5707963268 1.6743954455 1.7840462375 1.8974821136 2.0119052671 2.1243706857 2.232221744 
2.3334263672 2.426721652 2.5115728246 1.4671972081 1.3575464161 1.24411054 1.1296873865 1.0172219679 0.90937090954 
0.80816628637 0.71487100155 0.63001982895 1.6743954455 1.7840462375 1.8974821136 2.0119052671 2.1243706857 2.232221744 
2.3334263672 2.426721652 2.5115728246 1.4671972081 1.3575464161 1.24411054 1.1296873865 1.0172219679 0.90937090954 
0.80816628637 0.71487100155 0.63001982895 1.5707963268 1.5707963268 1.5707963268 1.5707963268 1.5707963268 1.5707963268 
1.5707963268 1.5707963268 1.5707963268 1.6743954455 1.7840462375 1.8974821136 2.0119052671 2.1243706857 2.232221744 
2.3334263672 2.426721652 2.5115728246 1.4671972081 1.3575464161 1.24411054 1.1296873865 1.0172219679 0.90937090954 
0.80816628637 0.71487100155 0.63001982895 1.6743954455 1.7840462375 1.8974821136 2.0119052671 2.1243706857 2.232221744 
2.3334263672 2.426721652 2.5115728246 1.4671972081 1.3575464161 1.24411054 1.1296873865 1.0172219679 0.90937090954 
0.80816628637 0.71487100155 0.63001982895 2.6824132222 2.7864913217 2.8992382033 3.0186096618 3.1415926536 3.0186096618 
2.8992382033 2.7864913217 2.6824132222 0.45917943135 0.35510133185 0.2423544503 0.12298299178 0 0.12298299178 
0.2423544503 0.35510133185 0.45917943135 0.22715816343 0.49462574053 0.3129712797 0.77059342779 0.68021497688 0.49462574053 
1.0172219679 1.0172219679 1.0172219679 1.0172219679 1.2156949949 1.271087727 1.3676273807 1.5707963268 2.1243706857 
1.3676273807 1.447813335 1.5707963268 1.7739652728 2.1243706857 2.6469669131 1.4827341049 1.5707963268 1.6937793186 
1.8705049266 2.1243706857 2.4613776767 2.8286213739 1.5707963268 1.6588585487 1.7739652728 1.9258976586 2.1243706857 
2.3709992258 2.6469669131 2.9144344902 0.26576171152 0.33975332011 0.45685295248 0.40226393329 0.51573716537 0.6552068806 
0.45538277901 0.56421707518 0.69407236469 0.84594095064 0.50083690068 0.60464862014 0.72561863695 0.86392567495 1.0172219679 
0.54002084522 0.63877777351 0.75168694275 0.87851444325 1.0172219679 1.1636342747 0.57404952988 0.66790778838 0.77356233629 
0.89058134991 1.0172219679 1.1502619915 1.2852923014 0.60381225391 0.69302191562 0.79216440667 0.90072551443 1.0172219679 
1.139116835 1.2630228569 1.3852070904 0.71487100155 0.80816628637 0.80816628637 0.90937090954 0.90937090954 0.90937090954 
1.0172219679 1.0172219679 1.0172219679 1.0172219679 1.1296873865 1.1296873865 1.1296873865 1.1296873865 1.1296873865 
1.24411054 1.24411054 1.24411054 1.24411054 1.24411054 1.24411054 1.3575464161 1.3575464161 1.3575464161 
1.3575464161 1.3575464161 1.3575464161 1.3575464161 1.4671972081 1.4671972081 1.4671972081 1.4671972081 1.4671972081 
1.4671972081 1.4671972081 1.4671972081 1.6743954455 1.6743954455 1.7840462375 1.6743954455 1.7840462375 1.8974821136 
1.6743954455 1.7840462375 1.8974821136 2.0119052671 1.6743954455 1.7840462375 1.8974821136 2.0119052671 2.1243706857 
1.6743954455 1.7840462375 1.8974821136 2.0119052671 2.1243706857 2.232221744 1.6743954455 1.7840462375 1.8974821136 
2.0119052671 2.1243706857 2.232221744 2.3334263672 1.6743954455 1.7840462375 1.8974821136 2.0119052671 2.1243706857 
2.232221744 2.3334263672 2.426721652 1.7563855631 1.8785697967 1.8563003522 2.0024758186 1.9913306621 1.9779583789 
2.1243706857 2.1243706857 2.1243706857 2.1243706857 2.2408671392 2.2510113037 2.2630782103 2.2776669786 2.295651703 
2.3494282469 2.3680303173 2.3899057108 2.4159740166 2.4475202889 2.486385773 2.448570738 2.4736848652 2.5028148801 
2.5369440334 2.5773755784 2.6258554882 2.6847397011 2.5377803997 2.5675431237 2.6015718084 2.6407557529 2.6862098746 
2.7393287203 2.8018393335 2.8758309421 2.718901062 2.8307207459 2.7598010554 2.95115522 2.8800620952 2.8058000847 
3.0774230472 3.00855263 2.9351694502 2.8576792927 3.0774230472 3.1415926536 3.0719036933 2.9967168029 2.91630358 
2.95115522 3.00855263 3.0719036933 3.1415926536 3.0653475414 2.9825888767 2.8307207459 2.8800620952 2.9351694502 
2.9967168029 3.0653475414 3.1415926536 3.0574329311 2.718901062 2.7598010554 2.8058000847 2.8576792927 2.91630358 
2.9825888767 3.0574329311 3.1415926536 2.718901062 2.7598010554 2.8307207459 2.8058000847 2.8800620952 2.95115522 
2.8576792927 2.9351694502 3.00855263 3.0774230472 2.91630358 2.9967168029 3.0719036933 3.1415926536 3.0774230472 
2.9825888767 3.0653475414 3.1415926536 3.0719036933 3.00855263 2.95115522 3.0574329311 3.1415926536 3.0653475414 