# vtk DataFile Version 5.1
vtk output
ASCII
DATASET POLYDATA
POINTS 1002 float
-11.5198 -1.09042 -3.37698 10.5823 0.529367 -3.81398 -11.7204 -0.0806108 2.4533 
11.4028 -0.0666469 3.45545 1.0349 3.83267 -2.17237 0.617246 3.3026 1.41098 
-0.0498014 -6.00481 -1.90659 0.226602 -6.28589 2.40723 16.9839 7.34813 0.791161 
-18.0689 7.30296 0.00885492 16.8243 -4.73809 -0.258584 -16.7889 -3.96514 0.411316 
-9.51525 -1.15892 -3.27686 -7.20711 -1.22018 -3.17081 -4.74011 -1.25876 -3.14196 
-2.1383 -1.17792 -3.16366 0.645545 -0.903573 -3.15145 3.43608 -0.504841 -3.16148 
5.85916 -0.126901 -3.32238 7.74956 0.158055 -3.5858 9.25891 0.365906 -3.77719 
-11.0096 -0.557 -3.35769 -10.2437 0.00229547 -3.25885 -9.24194 0.499329 -3.10152 
-8.04422 0.913883 -2.96074 -6.65237 1.31981 -2.88431 -5.08452 1.76321 -2.82229 
-3.4432 2.22283 -2.70208 -1.84498 2.70573 -2.52782 -0.345192 3.24677 -2.3462 
-10.7009 -1.63303 -3.29503 -9.69976 -2.17097 -3.16777 -8.55594 -2.74016 -3.02242 
-7.32478 -3.37042 -2.88509 -6.03047 -4.02011 -2.74374 -4.70159 -4.59159 -2.56307 
-3.42526 -5.03783 -2.35797 -2.25859 -5.39774 -2.18333 -1.15353 -5.71854 -2.04711 
-13.0838 -0.617899 -3.41221 -14.5544 0.0826706 -3.3406 -15.8317 1.0516 -3.155 
-16.9131 2.20392 -2.87371 -17.8249 3.39977 -2.49148 -18.4841 4.55941 -2.01093 
-18.7614 5.62227 -1.49671 -18.6797 6.47747 -1.00458 -18.4034 7.03572 -0.513921 
-12.8163 -1.34292 -3.36473 -13.9386 -1.57253 -3.24022 -14.8947 -1.78987 -3.01005 
-15.7416 -2.06017 -2.7087 -16.4408 -2.43774 -2.32401 -16.8654 -2.87977 -1.81406 
-16.9946 -3.27561 -1.20947 -16.9598 -3.56566 -0.603544 -16.8842 -3.77898 -0.0588885 
10.2381 1.15168 -3.71807 9.76857 1.7689 -3.61154 9.13578 2.35295 -3.49239 
8.34233 2.87632 -3.32572 7.40895 3.28784 -3.10961 6.31543 3.54411 -2.90599 
5.04647 3.67286 -2.74842 3.67429 3.7426 -2.59293 2.31375 3.79214 -2.39708 
10.0717 -0.204385 -3.88345 9.50913 -0.978598 -3.85196 8.86791 -1.76253 -3.67907 
8.09102 -2.52146 -3.36637 7.10361 -3.22205 -2.97727 5.83857 -3.85225 -2.61603 
4.3206 -4.43659 -2.35796 2.7146 -5.00412 -2.19386 1.22202 -5.54202 -2.05956 
11.7413 1.10331 -3.67216 13.0046 1.77771 -3.44655 14.2066 2.53673 -3.18852 
15.2218 3.32878 -2.87214 16.1116 4.11953 -2.40003 16.921 4.92575 -1.76295 
17.453 5.73893 -1.08654 17.533 6.47087 -0.456201 17.2912 7.02133 0.159936 
11.5775 0.193573 -3.81304 12.5985 -0.2638 -3.73419 13.5907 -0.879193 -3.57214 
14.5483 -1.63312 -3.33359 15.4519 -2.42166 -3.02521 16.1631 -3.13249 -2.6451 
16.5631 -3.72332 -2.17223 16.7323 -4.19226 -1.58638 16.8134 -4.5309 -0.919966 
-9.98248 -0.382544 2.44964 -7.90783 -0.674884 2.48987 -5.56553 -0.948315 2.52237 
-2.93417 -1.14833 2.47951 0.0320783 -1.19375 2.45225 3.14289 -1.05012 2.64849 
5.98115 -0.774432 3.05777 8.26881 -0.474076 3.41357 10.0286 -0.230752 3.53248 
-11.3302 0.342378 2.40309 -10.7925 0.728907 2.2686 -10.0781 1.0707 2.0537 
-9.06959 1.39149 1.86131 -7.64349 1.70753 1.8016 -5.87075 2.00628 1.83957 
-4.01597 2.28526 1.83215 -2.29775 2.57431 1.71285 -0.765154 2.90819 1.543 
-10.9702 -0.744951 2.44623 -10.0165 -1.48691 2.39527 -8.89269 -2.25744 2.32183 
-7.60637 -3.00044 2.29982 -6.16506 -3.71952 2.37429 -4.65531 -4.43116 2.49164 
-3.21336 -5.07681 2.56658 -1.91998 -5.58641 2.56999 -0.781425 -5.97151 2.51349 
-13.021 0.558673 2.47182 -14.1728 1.35753 2.50109 -15.195 2.33938 2.54256 
-16.1462 3.46109 2.61855 -16.9779 4.62591 2.68508 -17.5789 5.73108 2.55567 
-17.9426 6.65496 2.07561 -18.1361 7.25168 1.34207 -18.1813 7.4461 0.60157 
-12.8322 -0.162339 2.49979 -13.781 -0.260826 2.63524 -14.5642 -0.456824 2.88743 
-15.3608 -0.898357 3.10568 -16.243 -1.59286 3.05027 -16.9594 -2.30955 2.67342 
-17.2645 -2.85148 2.13735 -17.2296 -3.25704 1.56712 -17.0455 -3.62802 0.984187 
10.9371 0.560379 3.44365 10.3638 1.23771 3.37137 9.64847 1.88489 3.27297 
8.73562 2.40809 3.16554 7.60566 2.77509 2.99949 6.30638 3.02435 2.72769 
4.8957 3.18946 2.38044 3.42245 3.27226 2.02111 1.96674 3.29258 1.69069 
11.0051 -0.737986 3.5208 10.4558 -1.42829 3.56635 9.69519 -2.15887 3.55043 
8.66999 -2.91691 3.46491 7.3884 -3.65488 3.34254 5.94179 -4.33773 3.20323 
4.45367 -4.94519 3.0331 3.00157 -5.45928 2.83028 1.59511 -5.89295 2.6176 
12.3449 0.47049 3.32866 13.2121 1.10674 3.17922 13.9834 1.8413 2.93385 
14.7256 2.63465 2.5577 15.5208 3.42983 2.20651 16.289 4.22716 2.05884 
16.8275 5.08435 2.00922 17.0574 5.98728 1.79567 17.0734 6.79347 1.34468 
12.4202 -0.38934 3.30526 13.4234 -0.779349 3.0983 14.3715 -1.24364 2.91989 
15.2606 -1.81378 2.78514 16.124 -2.47107 2.61758 16.9131 -3.115 2.31954 
17.4376 -3.66355 1.83486 17.5414 -4.11257 1.17966 17.2752 -4.47381 0.444599 
1.11821 4.21978 -1.88121 1.23718 4.55265 -1.50336 1.3153 4.76287 -1.04512 
1.28642 4.8164 -0.542605 1.16135 4.70289 -0.0736715 1.00555 4.44112 0.298579 
0.863987 4.11585 0.597024 0.74733 3.82039 0.883579 0.662446 3.56451 1.16712 
3.14745 4.49782 -2.13313 5.29902 5.34838 -2.02342 7.39906 6.28164 -1.77321 
9.35682 7.08556 -1.40425 11.1635 7.61212 -1.00125 12.8526 7.95362 -0.608051 
14.3594 8.24075 -0.219442 15.5541 8.35135 0.158245 16.4014 8.06045 0.501072 
-1.20854 3.55935 -2.07015 -3.86518 3.47385 -2.03983 -6.78738 3.73206 -2.09749 
-9.55423 4.39738 -2.14087 -11.7266 5.25286 -1.97035 -13.3044 5.92774 -1.50089 
-14.67 6.30945 -0.920575 -16.0284 6.60137 -0.486713 -17.2256 6.95763 -0.230696 
2.84265 3.90887 1.6045 5.26109 4.89563 2.07219 7.65344 6.01083 2.56333 
9.76324 6.87015 2.70361 11.6043 7.40088 2.49572 13.3086 7.84688 2.26656 
14.7484 8.24829 2.09021 15.7425 8.3498 1.77711 16.4058 8.00979 1.29423 
-1.60504 3.19379 1.29311 -4.11898 3.32946 1.20707 -6.8926 3.62303 0.963779 
-9.63919 4.08137 0.644055 -11.9231 4.82601 0.607454 -13.6073 5.76534 0.907015 
-14.9455 6.55118 1.1031 -16.1541 7.00022 0.893331 -17.2166 7.21341 0.436121 
-0.0593822 -6.4335 -1.68066 -0.0436053 -6.84154 -1.38967 -0.0830648 -7.1747 -1.02468 
-0.272774 -7.44575 -0.586695 -0.57873 -7.68021 -0.0635483 -0.793275 -7.78367 0.553658 
-0.734352 -7.62037 1.20014 -0.435355 -7.21718 1.75398 -0.0697809 -6.7334 2.14817 
1.9596 -5.97447 -1.80429 4.25132 -5.91668 -1.64542 6.54317 -5.95747 -1.57509 
8.62021 -6.13991 -1.65336 10.5258 -6.30788 -1.70025 12.3056 -6.27895 -1.54768 
13.8127 -6.04076 -1.27385 14.9802 -5.67145 -0.989437 15.9468 -5.22429 -0.664498 
-1.89161 -6.19977 -1.79118 -3.77993 -6.28852 -1.64242 -5.84428 -6.35665 -1.60738 
-8.07433 -6.44308 -1.7045 -10.181 -6.37766 -1.68801 -11.9571 -6.01747 -1.37639 
-13.5124 -5.51107 -0.912662 -14.9193 -5.04207 -0.472673 -16.0386 -4.56489 -0.0442431 
2.14327 -6.33872 2.39077 4.33165 -6.38738 2.34749 6.70176 -6.41905 2.28051 
9.00793 -6.41465 2.13937 11.0013 -6.35459 1.84671 12.642 -6.20807 1.41363 
14.0366 -5.94853 0.94588 15.2217 -5.59082 0.514306 16.1526 -5.17826 0.11585 
-1.81549 -6.50011 2.2533 -4.05905 -6.70342 2.03206 -6.39765 -6.81155 1.73104 
-8.61065 -6.74226 1.40676 -10.5453 -6.48225 1.15604 -12.2725 -6.08455 1.00212 
-13.8744 -5.60953 0.876129 -15.2273 -5.09253 0.72719 -16.1846 -4.54471 0.565896 
17.6916 6.17119 0.670852 18.469 4.77161 0.597105 19.1244 3.35389 0.529114 
19.3911 1.96708 0.355466 19.2765 0.530686 0.103707 19.053 -0.921091 -0.0526914 
18.811 -2.2218 -0.0772792 18.3778 -3.27104 -0.101046 17.6725 -4.08905 -0.182489 
-18.8259 7.42522 0.0663813 -19.3864 7.17318 0.3532 -19.8834 6.23633 0.699845 
-20.3384 4.6803 0.838605 -20.4132 2.97152 0.780862 -19.8266 1.39914 0.76297 
-18.8668 -0.143375 0.817418 -18.0225 -1.68475 0.782098 -17.3966 -3.00807 0.61477 
-8.73898 -0.630296 -3.2358 -7.71457 -0.113865 -3.13436 -6.19676 -0.694517 -3.13594 
-6.49157 0.329246 -3.00826 -4.96252 -0.200915 -3.05006 -3.52983 -0.708831 -3.11486 
-5.09568 0.764795 -2.90835 -3.55262 0.263717 -2.94586 -2.11161 -0.173068 -3.03174 
-0.720486 -0.558246 -3.12475 -3.53337 1.29626 -2.83525 -1.99427 0.828244 -2.85731 
-0.548226 0.415728 -2.94138 0.842377 0.089608 -3.06364 2.20198 -0.194006 -3.14261 
-1.90238 1.89783 -2.7496 -0.36567 1.5382 -2.78723 1.07496 1.16889 -2.88037 
2.42935 0.847975 -3.03765 3.733 0.573718 -3.17848 4.90898 0.268021 -3.25938 
-0.354606 2.5011 -2.64131 1.16944 2.28237 -2.72854 2.61445 2.0294 -2.84374 
3.92626 1.74721 -3.0318 5.12942 1.44432 -3.23817 6.20794 1.09821 -3.38497 
7.08503 0.668392 -3.48522 1.04573 3.1239 -2.52596 2.50859 3.00409 -2.67333 
3.94099 2.86763 -2.81 5.23419 2.67414 -2.99504 6.36001 2.38106 -3.22819 
7.34096 1.98453 -3.43068 8.1573 1.5027 -3.56622 8.78496 0.951999 -3.67354 
-12.6422 0.00925062 -3.37603 -14.1602 0.808411 -3.28121 -11.9049 0.638981 -3.22629 
-15.4243 1.8349 -3.06795 -13.4216 1.49484 -3.07823 -10.8916 1.17012 -3.01811 
-16.418 2.96263 -2.75341 -14.6271 2.52599 -2.82884 -12.3799 2.04119 -2.84657 
-9.64553 1.58809 -2.87831 -17.158 4.06123 -2.3333 -15.5004 3.60009 -2.50655 
-13.5448 3.05828 -2.6252 -11.1101 2.43253 -2.75297 -8.17297 1.94766 -2.83596 
-17.5751 5.07096 -1.82854 -16.0453 4.60681 -2.09995 -14.3367 4.10899 -2.36217 
-12.2803 3.41235 -2.60551 -9.60678 2.69873 -2.75314 -6.49579 2.28278 -2.76445 
-17.6387 5.93219 -1.30238 -16.2384 5.47818 -1.60757 -14.7198 5.06949 -1.99756 
-13.0268 4.43285 -2.38886 -10.7619 3.58005 -2.61871 -7.83645 2.89761 -2.64439 
-4.70285 2.63286 -2.57337 -17.4722 6.56996 -0.77691 -16.1743 6.15306 -1.06081 
-14.7584 5.82234 -1.50164 -13.3056 5.3234 -2.02074 -11.4595 4.49894 -2.37219 
-8.89714 3.63842 -2.44586 -5.86645 3.1348 -2.3693 -2.90801 3.0574 -2.31512 
-16.1591 6.91928 0.197932 -14.9864 6.70619 0.515437 -14.8306 6.61273 -0.203011 
-13.7412 6.15364 0.515298 -13.6066 6.32827 -0.0943159 -13.4038 6.26561 -0.819452 
-12.1981 5.30811 0.328538 -12.1956 5.67524 -0.118328 -11.9895 5.84632 -0.739931 
-11.8242 5.71904 -1.40937 -10.0057 4.51082 0.36237 -10.1936 4.91296 0.00873675 
-10.1113 5.20263 -0.495496 -9.90795 5.24953 -1.11171 -9.75119 4.9598 -1.69696 
-7.21383 3.97221 0.675904 -7.47751 4.33151 0.36763 -7.55108 4.64543 -0.0436806 
-7.41162 4.79404 -0.598217 -7.21686 4.6646 -1.19974 -7.0418 4.26435 -1.7156 
-4.31082 3.61915 0.93287 -4.48729 3.93308 0.655747 -4.5851 4.25709 0.332421 
[...]
POINT_DATA 1002
FIELD FieldData 4
_paraPhi 1 1002 double
6.2831853072 3.1415926536 6.2831853072 3.1415926536 4.7123889804 4.7123889804 1.5707963268 1.5707963268 3.6951670125 
5.7296109483 2.5880182947 0.5535743589 6.2831853072 6.2831853072 6.2831853072 6.2831853072 3.1415926536 3.1415926536 
3.1415926536 3.1415926536 3.1415926536 6.1053039672 5.898798347 5.6768734901 5.4599499503 5.2659633393 5.1032165617 
4.9713148346 4.8656852733 4.7809517865 0.17788134 0.38438696014 0.60631181711 0.82323535693 1.0172219679 1.1799687454 
1.3118704726 1.4175000338 1.5022335207 6.1892828907 6.1070320098 6.035312792 5.9728339911 5.9183214791 5.8706119594 
5.8286879411 5.7916808611 5.7588591896 0.093902416448 0.17615329733 0.2478725152 0.31035131605 0.36486382811 0.41257334776 
0.45449736604 0.4915044461 0.52432611754 3.3194739936 3.5259796137 3.7479044707 3.9648280105 4.1588146215 4.321561399 
4.4534631262 4.5590926874 4.6438261743 2.9637113136 2.7572056934 2.5352808365 2.3183572967 2.1243706857 1.9616239082 
1.829722181 1.7240926197 1.6393591329 3.23549507 3.3177459509 3.3894651688 3.4519439696 3.5064564817 3.5541660013 
3.5960900196 3.6330970997 3.6659187711 3.0476902371 2.9654393563 2.8937201384 2.8312413375 2.7767288255 2.7290193058 
2.6870952876 2.6500882075 2.617266536 6.2831853072 6.2831853072 6.2831853072 6.2831853072 3.1415926536 3.1415926536 
3.1415926536 3.1415926536 3.1415926536 6.1053039672 5.898798347 5.6768734901 5.4599499503 5.2659633393 5.1032165617 
4.9713148346 4.8656852733 4.7809517865 0.17788134 0.38438696014 0.60631181711 0.82323535693 1.0172219679 1.1799687454 
1.3118704726 1.4175000338 1.5022335207 6.1892828907 6.1070320098 6.035312792 5.9728339911 5.9183214791 5.8706119594 
5.8286879411 5.7916808611 5.7588591896 0.093902416448 0.17615329733 0.2478725152 0.31035131605 0.36486382811 0.41257334776 
0.45449736604 0.4915044461 0.52432611754 3.3194739936 3.5259796137 3.7479044707 3.9648280105 4.1588146215 4.321561399 
4.4534631262 4.5590926874 4.6438261743 2.9637113136 2.7572056934 2.5352808365 2.3183572967 2.1243706857 1.9616239082 
1.829722181 1.7240926197 1.6393591329 3.23549507 3.3177459509 3.3894651688 3.4519439696 3.5064564817 3.5541660013 
3.5960900196 3.6330970997 3.6659187711 3.0476902371 2.9654393563 2.8937201384 2.8312413375 2.7767288255 2.7290193058 
2.6870952876 2.6500882075 2.617266536 4.7123889804 4.7123889804 4.7123889804 4.7123889804 4.7123889804 4.7123889804 
4.7123889804 4.7123889804 4.7123889804 4.6087898617 4.4991390697 4.3857031936 4.2712800401 4.1588146215 4.0509635631 
3.94975894 3.8564636551 3.7716124825 4.8159880991 4.9256388911 5.0390747672 5.1534979207 5.2659633393 5.3738143976 
5.4750190208 5.5683143056 5.6531654782 4.6087898617 4.4991390697 4.3857031936 4.2712800401 4.1588146215 4.0509635631 
3.94975894 3.8564636551 3.7716124825 4.8159880991 4.9256388911 5.0390747672 5.1534979207 5.2659633393 5.3738143976 
5.4750190208 5.5683143056 5.6531654782 1.5707963268 1.5707963268 1.5707963268 1.5707963268 1.5707963268 1.5707963268 
1.5707963268 1.5707963268 1.5707963268 1.6743954455 1.7840462375 1.8974821136 2.0119052671 2.1243706857 2.232221744 
2.3334263672 2.426721652 2.5115728246 1.4671972081 1.3575464161 1.24411054 1.1296873865 1.0172219679 0.90937090954 
0.80816628637 0.71487100155 0.63001982895 1.6743954455 1.7840462375 1.8974821136 2.0119052671 2.1243706857 2.232221744 
2.3334263672 2.426721652 2.5115728246 1.4671972081 1.3575464161 1.24411054 1.1296873865 1.0172219679 0.90937090954 
0.80816628637 0.71487100155 0.63001982895 3.6007720849 3.4966939854 3.3839471039 3.2645756454 3.1415926536 3.0186096618 
2.8992382033 2.7864913217 2.6824132222 5.8240058758 5.9280839753 6.0408308569 6.1602023154 6.2831853072 0.12298299178 
0.2423544503 0.35510133185 0.45917943135 6.0560271438 5.7885595667 5.9702140275 5.5125918794 5.6029703303 5.7885595667 
5.2659633393 5.2659633393 5.2659633393 5.2659633393 5.0674903122 5.0120975802 4.9155579264 4.7123889804 4.1588146215 
4.9155579264 4.8353719722 4.7123889804 4.5092200343 4.1588146215 3.6362183941 4.8004512023 4.7123889804 4.5894059886 
4.4126803806 4.1588146215 3.8218076305 3.4545639333 4.7123889804 4.6243267584 4.5092200343 4.3572876485 4.1588146215 
3.9121860814 3.6362183941 3.368750817 6.0174235957 5.9434319871 5.8263323547 5.8809213739 5.7674481418 5.6279784266 
5.8278025282 5.718968232 5.5891129425 5.4372443565 5.7823484065 5.678536687 5.5575666702 5.4192596322 5.2659633393 
5.743164462 5.6444075337 5.5314983644 5.4046708639 5.2659633393 5.1195510325 5.7091357773 5.6152775188 5.5096229709 
5.3926039573 5.2659633393 5.1329233157 4.9978930058 5.6793730533 5.5901633916 5.4910209005 5.3824597928 5.2659633393 
5.1440684722 5.0201624502 4.8979782167 5.5683143056 5.4750190208 5.4750190208 5.3738143976 5.3738143976 5.3738143976 
5.2659633393 5.2659633393 5.2659633393 5.2659633393 5.1534979207 5.1534979207 5.1534979207 5.1534979207 5.1534979207 
5.0390747672 5.0390747672 5.0390747672 5.0390747672 5.0390747672 5.0390747672 4.9256388911 4.9256388911 4.9256388911 
4.9256388911 4.9256388911 4.9256388911 4.9256388911 4.8159880991 4.8159880991 4.8159880991 4.8159880991 4.8159880991 
4.8159880991 4.8159880991 4.8159880991 4.6087898617 4.6087898617 4.4991390697 4.6087898617 4.4991390697 4.3857031936 
4.6087898617 4.4991390697 4.3857031936 4.2712800401 4.6087898617 4.4991390697 4.3857031936 4.2712800401 4.1588146215 
4.6087898617 4.4991390697 4.3857031936 4.2712800401 4.1588146215 4.0509635631 4.6087898617 4.4991390697 4.3857031936 
4.2712800401 4.1588146215 4.0509635631 3.94975894 4.6087898617 4.4991390697 4.3857031936 4.2712800401 4.1588146215 
4.0509635631 3.94975894 3.8564636551 4.526799744 4.4046155105 4.426884955 4.2807094886 4.2918546451 4.3052269283 
4.1588146215 4.1588146215 4.1588146215 4.1588146215 4.042318168 4.0321740035 4.0201070968 4.0055183285 3.9875336042 
3.9337570603 3.9151549899 3.8932795963 3.8672112905 3.8356650183 3.7967995342 3.8346145692 3.809500442 3.7803704271 
3.7462412737 3.7058097288 3.657329819 3.5984456061 3.7454049075 3.7156421835 3.6816134988 3.6424295543 3.5969754326 
3.5438565869 3.4813459737 3.4073543651 3.5642842451 3.4524645613 3.5233842518 3.3320300872 3.403123212 3.4773852225 
3.20576226 3.2746326772 3.348015857 3.4255060145 3.0774230472 3.1415926536 3.2112816139 3.2864685043 3.3668817272 
2.95115522 3.00855263 3.0719036933 3.1415926536 3.2178377658 3.3005964304 2.8307207459 2.8800620952 2.9351694502 
2.9967168029 3.0653475414 3.1415926536 3.225752376 2.718901062 2.7598010554 2.8058000847 2.8576792927 2.91630358 
2.9825888767 3.0574329311 3.1415926536 3.5642842451 3.5233842518 3.4524645613 3.4773852225 3.403123212 3.3320300872 
3.4255060145 3.348015857 3.2746326772 3.20576226 3.3668817272 3.2864685043 3.2112816139 3.1415926536 3.0774230472 
3.3005964304 3.2178377658 3.1415926536 3.0719036933 3.00855263 2.95115522 3.225752376 3.1415926536 3.0653475414 
2.9967168029 2.9351694502 2.8800620952 2.8307207459 3.1415926536 3.0574329311 2.9825888767 2.91630358 2.8576792927 
2.8058000847 2.7598010554 2.718901062 4.526799744 4.426884955 4.4046155105 4.3052269283 4.2918546451 4.2807094886 
4.1588146215 4.1588146215 4.1588146215 4.1588146215 3.9875336042 4.0055183285 4.0201070968 4.0321740035 4.042318168 
3.7967995342 3.8356650183 3.8672112905 3.8932795963 3.9151549899 3.9337570603 3.5984456061 3.657329819 3.7058097288 
3.7462412737 3.7803704271 3.809500442 3.8346145692 3.4073543651 3.4813459737 3.5438565869 3.5969754326 3.6424295543 
3.6816134988 3.7156421835 3.7454049075 4.7123889804 4.8004512023 4.6243267584 4.9155579264 4.7123889804 4.5092200343 
5.0674903122 4.8353719722 4.5894059886 4.3572876485 5.2659633393 5.0120975802 4.7123889804 4.4126803806 4.1588146215 
5.5125918794 5.2659633393 4.9155579264 4.5092200343 4.1588146215 3.9121860814 5.7885595667 5.6029703303 5.2659633393 
4.7123889804 4.1588146215 3.8218076305 3.6362183941 6.0560271438 5.9702140275 5.7885595667 5.2659633393 4.1588146215 
3.6362183941 3.4545639333 3.368750817 0.22715816343 0.49462574053 0.3129712797 0.77059342779 0.68021497688 0.49462574053 
1.0172219679 1.0172219679 1.0172219679 1.0172219679 1.2156949949 1.271087727 1.3676273807 1.5707963268 2.1243706857 
1.3676273807 1.447813335 1.5707963268 1.7739652728 2.1243706857 2.6469669131 1.4827341049 1.5707963268 1.6937793186 
1.8705049266 2.1243706857 2.4613776767 2.8286213739 1.5707963268 1.6588585487 1.7739652728 1.9258976586 2.1243706857 
2.3709992258 2.6469669131 2.9144344902 1.7563855631 1.8785697967 1.8563003522 2.0024758186 1.9913306621 1.9779583789 
2.1243706857 2.1243706857 2.1243706857 2.1243706857 2.2408671392 2.2510113037 2.2630782103 2.2776669786 2.295651703 
2.3494282469 2.3680303173 2.3899057108 2.4159740166 2.4475202889 2.486385773 2.448570738 2.4736848652 2.5028148801 
2.5369440334 2.5773755784 2.6258554882 2.6847397011 2.5377803997 2.5675431237 2.6015718084 2.6407557529 2.6862098746 
2.7393287203 2.8018393335 2.8758309421 1.6743954455 1.6743954455 1.7840462375 1.6743954455 1.7840462375 1.8974821136 
1.6743954455 1.7840462375 1.8974821136 2.0119052671 1.6743954455 1.7840462375 1.8974821136 2.0119052671 2.1243706857 
1.6743954455 1.7840462375 1.8974821136 2.0119052671 2.1243706857 2.232221744 1.6743954455 1.7840462375 1.8974821136 
2.0119052671 2.1243706857 2.232221744 2.3334263672 1.6743954455 1.7840462375 1.8974821136 2.0119052671 2.1243706857 
2.232221744 2.3334263672 2.426721652 1.4671972081 1.3575464161 1.4671972081 1.24411054 1.3575464161 1.4671972081 
1.1296873865 1.24411054 1.3575464161 1.4671972081 1.0172219679 1.1296873865 1.24411054 1.3575464161 1.4671972081 
0.90937090954 1.0172219679 1.1296873865 1.24411054 1.3575464161 1.4671972081 0.80816628637 0.90937090954 1.0172219679 
1.1296873865 1.24411054 1.3575464161 1.4671972081 0.71487100155 0.80816628637 0.90937090954 1.0172219679 1.1296873865 
1.24411054 1.3575464161 1.4671972081 0.60381225391 0.57404952988 0.69302191562 0.54002084522 0.66790778838 0.79216440667 
0.50083690068 0.63877777351 0.77356233629 0.90072551443 0.45538277901 0.60464862014 0.75168694275 0.89058134991 1.0172219679 
0.40226393329 0.56421707518 0.72561863695 0.87851444325 1.0172219679 1.139116835 0.33975332011 0.51573716537 0.69407236469 
0.86392567495 1.0172219679 1.1502619915 1.2630228569 0.26576171152 0.45685295248 0.6552068806 0.84594095064 1.0172219679 
1.1636342747 1.2852923014 1.3852070904 0.22715816343 0.3129712797 0.49462574053 0.49462574053 0.68021497688 0.77059342779 
1.0172219679 1.0172219679 1.0172219679 1.0172219679 2.1243706857 1.5707963268 1.3676273807 1.271087727 1.2156949949 
2.6469669131 2.1243706857 1.7739652728 1.5707963268 1.447813335 1.3676273807 2.8286213739 2.4613776767 2.1243706857 
1.8705049266 1.6937793186 1.5707963268 1.4827341049 2.9144344902 2.6469669131 2.3709992258 2.1243706857 1.9258976586 
1.7739652728 1.6588585487 1.5707963268 1.7563855631 1.8563003522 1.8785697967 1.9779583789 1.9913306621 2.0024758186 
2.1243706857 2.1243706857 2.1243706857 2.1243706857 2.295651703 2.2776669786 2.2630782103 2.2510113037 2.2408671392 
2.486385773 2.4475202889 2.4159740166 2.3899057108 2.3680303173 2.3494282469 2.6847397011 2.6258554882 2.5773755784 
2.5369440334 2.5028148801 2.4736848652 2.448570738 2.8758309421 2.8018393335 2.7393287203 2.6862098746 2.6407557529 
2.6015718084 2.5675431237 2.5377803997 5.8604937156 5.901393709 5.9723133995 5.9473927383 6.0216547488 6.0927478736 
5.9992719463 6.0767621038 6.1501452836 6.2190157008 6.0578962336 6.1383094565 6.2134963469 0 0.064169606361 
6.1241815303 6.206940195 6.2831853072 0.069688960264 0.13304002361 0.19043743361 6.1990255847 0 0.07624511221 
0.14487585072 0.20642320337 0.26153055843 0.3108719077 0 0.084159722458 0.15900377685 0.22528907359 0.28391336087 
0.3357925689 0.38179159818 0.42269159155 5.8604937156 5.9723133995 5.901393709 6.0927478736 6.0216547488 5.9473927383 
6.2190157008 6.1501452836 6.0767621038 5.9992719463 0.064169606361 0 6.2134963469 6.1383094565 6.0578962336 
0.19043743361 0.13304002361 0.069688960264 6.2831853072 6.206940195 6.1241815303 0.3108719077 0.26153055843 0.20642320337 
0.14487585072 0.07624511221 6.2831853072 6.1990255847 0.42269159155 0.38179159818 0.3357925689 0.28391336087 0.22528907359 
0.15900377685 0.084159722458 0 5.6793730533 5.7091357773 5.5901633916 5.743164462 5.6152775188 5.4910209005 
5.7823484065 5.6444075337 5.5096229709 5.3824597928 5.8278025282 5.678536687 5.5314983644 5.3926039573 5.2659633393 
5.8809213739 5.718968232 5.5575666702 5.4046708639 5.2659633393 5.1440684722 5.9434319871 5.7674481418 5.5891129425 
5.4192596322 5.2659633393 5.1329233157 5.0201624502 6.0174235957 5.8263323547 5.6279784266 5.4372443565 5.2659633393 
5.1195510325 4.9978930058 4.8979782167 1.3852070904 1.2852923014 1.2630228569 1.1636342747 1.1502619915 1.139116835 
1.0172219679 1.0172219679 1.0172219679 1.0172219679 0.84594095064 0.86392567495 0.87851444325 0.89058134991 0.90072551443 
0.6552068806 0.69407236469 0.72561863695 0.75168694275 0.77356233629 0.79216440667 0.45685295248 0.51573716537 0.56421707518 
0.60464862014 0.63877777351 0.66790778838 0.69302191562 0.26576171152 0.33975332011 0.40226393329 0.45538277901 0.50083690068 
0.54002084522 0.57404952988 0.60381225391 
_paraPhiHalf 1 1002 double
0 3.1415926536 0 3.1415926536 1.5707963268 1.5707963268 1.5707963268 1.5707963268 2.5880182947 
0.5535743589 2.5880182947 0.5535743589 0 0 0 0 3.1415926536 3.1415926536 
3.1415926536 3.1415926536 3.1415926536 0.17788134 0.38438696014 0.60631181711 0.82323535693 1.0172219679 1.1799687454 
1.3118704726 1.4175000338 1.5022335207 0.17788134 0.38438696014 0.60631181711 0.82323535693 1.0172219679 1.1799687454 
1.3118704726 1.4175000338 1.5022335207 0.093902416448 0.17615329733 0.2478725152 0.31035131605 0.36486382811 0.41257334776 
0.45449736604 0.4915044461 0.52432611754 0.093902416448 0.17615329733 0.2478725152 0.31035131605 0.36486382811 0.41257334776 
0.45449736604 0.4915044461 0.52432611754 2.9637113136 2.7572056934 2.5352808365 2.3183572967 2.1243706857 1.9616239082 
1.829722181 1.7240926197 1.6393591329 2.9637113136 2.7572056934 2.5352808365 2.3183572967 2.1243706857 1.9616239082 
1.829722181 1.7240926197 1.6393591329 3.0476902371 2.9654393563 2.8937201384 2.8312413375 2.7767288255 2.7290193058 
2.6870952876 2.6500882075 2.617266536 3.0476902371 2.9654393563 2.8937201384 2.8312413375 2.7767288255 2.7290193058 
2.6870952876 2.6500882075 2.617266536 0 0 0 0 3.1415926536 3.1415926536 
3.1415926536 3.1415926536 3.1415926536 0.17788134 0.38438696014 0.60631181711 0.82323535693 1.0172219679 1.1799687454 
1.3118704726 1.4175000338 1.5022335207 0.17788134 0.38438696014 0.60631181711 0.82323535693 1.0172219679 1.1799687454 
1.3118704726 1.4175000338 1.5022335207 0.093902416448 0.17615329733 0.2478725152 0.31035131605 0.36486382811 0.41257334776 
0.45449736604 0.4915044461 0.52432611754 0.093902416448 0.17615329733 0.2478725152 0.31035131605 0.36486382811 0.41257334776 
0.45449736604 0.4915044461 0.52432611754 2.9637113136 2.7572056934 2.5352808365 2.3183572967 2.1243706857 1.9616239082 
1.829722181 1.7240926197 1.6393591329 2.9637113136 2.7572056934 2.5352808365 2.3183572967 2.1243706857 1.9616239082 
1.829722181 1.7240926197 1.6393591329 3.0476902371 2.9654393563 2.8937201384 2.8312413375 2.7767288255 2.7290193058 
2.6870952876 2.6500882075 2.617266536 3.0476902371 2.9654393563 2.8937201384 2.8312413375 2.7767288255 2.7290193058 
2.6870952876 2.6500882075 2.617266536 1.5707963268 1.5707963268 1.5707963268 1.5707963268 1.5707963268 1.5707963268 
1.5707963268 1.5707963268 1.5707963268 1.6743954455 1.7840462375 1.8974821136 2.0119052671 2.1243706857 2.232221744 
2.3334263672 2.426721652 2.5115728246 1.4671972081 1.3575464161 1.24411054 1.1296873865 1.0172219679 0.90937090954 
0.80816628637 0.71487100155 0.63001982895 1.6743954455 1.7840462375 1.8974821136 2.0119052671 2.1243706857 2.232221744 
2.3334263672 2.426721652 2.5115728246 1.4671972081 1.3575464161 1.24411054 1.1296873865 1.0172219679 0.90937090954 
0.80816628637 0.71487100155 0.63001982895 1.5707963268 1.5707963268 1.5707963268 1.5707963268 1.5707963268 1.5707963268 
1.5707963268 1.5707963268 1.5707963268 1.6743954455 1.7840462375 1.8974821136 2.0119052671 2.1243706857 2.232221744 
2.3334263672 2.426721652 2.5115728246 1.4671972081 1.3575464161 1.24411054 1.1296873865 1.0172219679 0.90937090954 
0.80816628637 0.71487100155 0.63001982895 1.6743954455 1.7840462375 1.8974821136 2.0119052671 2.1243706857 2.232221744 
2.3334263672 2.426721652 2.5115728246 1.4671972081 1.3575464161 1.24411054 1.1296873865 1.0172219679 0.90937090954 
0.80816628637 0.71487100155 0.63001982895 2.6824132222 2.7864913217 2.8992382033 3.0186096618 3.1415926536 3.0186096618 
2.8992382033 2.7864913217 2.6824132222 0.45917943135 0.35510133185 0.2423544503 0.12298299178 0 0.12298299178 
0.2423544503 0.35510133185 0.45917943135 0.22715816343 0.49462574053 0.3129712797 0.77059342779 0.68021497688 0.49462574053 
1.0172219679 1.0172219679 1.0172219679 1.0172219679 1.2156949949 1.271087727 1.3676273807 1.5707963268 2.1243706857 
1.3676273807 1.447813335 1.5707963268 1.7739652728 2.1243706857 2.6469669131 1.4827341049 1.5707963268 1.6937793186 
1.8705049266 2.1243706857 2.4613776767 2.8286213739 1.5707963268 1.6588585487 1.7739652728 1.9258976586 2.1243706857 
2.3709992258 2.6469669131 2.9144344902 0.26576171152 0.33975332011 0.45685295248 0.40226393329 0.51573716537 0.6552068806 
0.45538277901 0.56421707518 0.69407236469 0.84594095064 0.50083690068 0.60464862014 0.72561863695 0.86392567495 1.0172219679 
0.54002084522 0.63877777351 0.75168694275 0.87851444325 1.0172219679 1.1636342747 0.57404952988 0.66790778838 0.77356233629 
0.89058134991 1.0172219679 1.1502619915 1.2852923014 0.60381225391 0.69302191562 0.79216440667 0.90072551443 1.0172219679 
1.139116835 1.2630228569 1.3852070904 0.71487100155 0.80816628637 0.80816628637 0.90937090954 0.90937090954 0.90937090954 
1.0172219679 1.0172219679 1.0172219679 1.0172219679 1.1296873865 1.1296873865 1.1296873865 1.1296873865 1.1296873865 
1.24411054 1.24411054 1.24411054 1.24411054 1.24411054 1.24411054 1.3575464161 1.3575464161 1.3575464161 
1.3575464161 1.3575464161 1.3575464161 1.3575464161 1.4671972081 1.4671972081 1.4671972081 1.4671972081 1.4671972081 
1.4671972081 1.4671972081 1.4671972081 1.6743954455 1.6743954455 1.7840462375 1.6743954455 1.7840462375 1.8974821136 
1.6743954455 1.7840462375 1.8974821136 2.0119052671 1.6743954455 1.7840462375 1.8974821136 2.0119052671 2.1243706857 
1.6743954455 1.7840462375 1.8974821136 2.0119052671 2.1243706857 2.232221744 1.6743954455 1.7840462375 1.8974821136 
2.0119052671 2.1243706857 2.232221744 2.3334263672 1.6743954455 1.7840462375 1.8974821136 2.0119052671 2.1243706857 
2.232221744 2.3334263672 2.426721652 1.7563855631 1.8785697967 1.8563003522 2.0024758186 1.9913306621 1.9779583789 
2.1243706857 2.1243706857 2.1243706857 2.1243706857 2.2408671392 2.2510113037 2.2630782103 2.2776669786 2.295651703 
2.3494282469 2.3680303173 2.3899057108 2.4159740166 2.4475202889 2.486385773 2.448570738 2.4736848652 2.5028148801 
2.5369440334 2.5773755784 2.6258554882 2.6847397011 2.5377803997 2.5675431237 2.6015718084 2.6407557529 2.6862098746 
2.7393287203 2.8018393335 2.8758309421 2.718901062 2.8307207459 2.7598010554 2.95115522 2.8800620952 2.8058000847 
3.0774230472 3.00855263 2.9351694502 2.8576792927 3.0774230472 3.1415926536 3.0719036933 2.9967168029 2.91630358 
2.95115522 3.00855263 3.0719036933 3.1415926536 3.0653475414 2.9825888767 2.8307207459 2.8800620952 2.9351694502 
2.9967168029 3.0653475414 3.1415926536 3.0574329311 2.718901062 2.7598010554 2.8058000847 2.8576792927 2.91630358 
2.9825888767 3.0574329311 3.1415926536 2.718901062 2.7598010554 2.8307207459 2.8058000847 2.8800620952 2.95115522 
2.8576792927 2.9351694502 3.00855263 3.0774230472 2.91630358 2.9967168029 3.0719036933 3.1415926536 3.0774230472 
2.9825888767 3.0653475414 3.1415926536 3.0719036933 3.00855263 2.95115522 3.0574329311 3.1415926536 3.0653475414 