# vtk DataFile Version 5.1
vtk output
ASCII
DATASET POLYDATA
POINTS 1002 float
-11.0024 -1.73541 -3.63838 9.49523 0.422877 -3.67817 -11.8234 -0.942708 1.71108 
11.5311 0.0592085 3.08375 1.13175 1.09354 -2.00363 1.21933 0.445421 0.65877 
-0.218275 -8.75066 -2.53331 -0.00931982 -8.75463 2.50033 15.8522 10.3535 1.67129 
-17.8369 10.6294 0.271063 15.7412 -2.04183 0.135881 -15.2109 -0.523074 0.838985 
-8.87472 -2.37506 -3.71261 -6.43652 -2.96006 -3.766 -3.91157 -3.42645 -3.89881 
-1.35348 -3.56799 -3.99011 1.29936 -3.20289 -3.79722 3.84112 -2.43459 -3.40499 
5.85705 -1.57174 -3.19469 7.26337 -0.811546 -3.30266 8.37894 -0.161275 -3.52693 
-10.6662 -1.40844 -3.71127 -10.0308 -1.10219 -3.69377 -9.14247 -0.944267 -3.59409 
-8.08926 -0.922821 -3.47703 -6.85394 -0.876177 -3.36914 -5.36935 -0.716933 -3.20198 
-3.70004 -0.470571 -2.92594 -2.00305 -0.108311 -2.59724 -0.379269 0.426169 -2.28846 
-9.91138 -2.44887 -3.59328 -8.63108 -3.16793 -3.51142 -7.27593 -3.95539 -3.41043 
-5.94076 -4.89553 -3.3423 -4.61614 -5.94284 -3.33155 -3.32004 -6.90147 -3.31657 
-2.22311 -7.63237 -3.2316 -1.43706 -8.15661 -3.0756 -0.833742 -8.52821 -2.84955 
-12.7665 -0.752015 -3.52056 -14.3843 0.544529 -3.26431 -15.7682 2.14914 -2.86998 
-16.9634 3.90685 -2.38063 -17.9824 5.63853 -1.85204 -18.66 7.27092 -1.35013 
-18.8402 8.73049 -0.931018 -18.6135 9.84379 -0.573895 -18.2224 10.471 -0.190514 
-12.2033 -1.43437 -3.41245 -13.1655 -0.980951 -3.02049 -13.9485 -0.45768 -2.5513 
-14.6674 -0.0338065 -2.10715 -15.2749 0.211229 -1.63704 -15.589 0.347661 -1.04672 
-15.5848 0.416705 -0.421129 -15.4438 0.332479 0.0917039 -15.317 0.0101953 0.485928 
9.36203 0.925051 -3.45986 9.11086 1.38895 -3.21913 8.67154 1.79101 -2.95835 
8.05503 2.09053 -2.6754 7.29094 2.2036 -2.40402 6.32437 2.08124 -2.21681 
5.10984 1.80391 -2.13935 3.74385 1.50803 -2.1124 2.38669 1.26657 -2.07092 
8.88264 -0.479658 -3.7782 8.28447 -1.45934 -3.76566 7.70413 -2.48748 -3.61068 
7.06866 -3.52524 -3.30535 6.24357 -4.52994 -2.91388 5.11992 -5.48309 -2.59215 
3.72975 -6.40013 -2.46348 2.25554 -7.28539 -2.49189 0.902874 -8.0923 -2.54572 
10.7127 1.36856 -3.57658 12.1027 2.45477 -3.352 13.404 3.63788 -3.06105 
14.4444 4.84082 -2.67526 15.3544 6.02419 -2.05519 16.2145 7.19683 -1.19293 
16.7168 8.32046 -0.320588 16.6241 9.28175 0.392544 16.1964 9.97464 1.02023 
10.3541 0.418756 -3.86822 11.3645 0.312204 -4.05588 12.4263 0.0549702 -4.16382 
13.4178 -0.342041 -4.0189 14.2698 -0.793548 -3.50625 14.916 -1.20013 -2.7559 
15.3086 -1.50776 -1.99383 15.5205 -1.72071 -1.27765 15.6632 -1.88297 -0.559612 
-10.1696 -1.70462 1.57158 -8.11409 -2.39325 1.4759 -5.78832 -2.96472 1.45114 
-3.22336 -3.32771 1.52474 -0.319462 -3.33032 1.77592 2.85814 -2.87784 2.2588 
5.90952 -2.08931 2.80927 8.41238 -1.23329 3.15359 10.2448 -0.5052 3.2072 
-11.6354 -0.660163 1.54752 -11.3156 -0.490744 1.25396 -10.7739 -0.450128 0.819143 
-9.80057 -0.476839 0.426361 -8.22751 -0.497401 0.306273 -6.16998 -0.490047 0.433733 
-3.98653 -0.44006 0.570568 -1.98708 -0.294887 0.596071 -0.267961 -0.00312026 0.589971 
-10.9654 -1.81818 1.74398 -9.92071 -2.81255 1.74077 -8.70567 -3.83594 1.68651 
-7.29285 -4.80511 1.6586 -5.71584 -5.74493 1.78376 -4.15553 -6.69051 2.07843 
-2.79875 -7.53809 2.39711 -1.68893 -8.15243 2.58206 -0.777692 -8.5299 2.59659 
-13.087 0.143538 1.81075 -14.1401 1.46964 1.97634 -15.0391 3.07005 2.22839 
-15.901 4.89224 2.59206 -16.678 6.77737 2.98252 -17.2228 8.53163 3.09941 
-17.5473 9.95192 2.6791 -17.7632 10.8178 1.84151 -17.879 11.0101 0.95705 
-12.6933 -0.61748 1.91889 -13.283 -0.220183 2.30608 -13.6272 0.13487 2.94933 
-14.0457 0.226104 3.60204 -14.7184 0.0202319 3.83231 -15.3374 -0.196491 3.51351 
-15.5675 -0.211527 2.88926 -15.5001 -0.161252 2.18609 -15.3666 -0.257038 1.48357 
11.1545 0.551782 3.06418 10.6696 1.09358 3.04194 10.0167 1.5727 3.08275 
9.13107 1.83068 3.1549 8.03557 1.81398 3.07423 6.82884 1.62443 2.7134 
5.53902 1.36459 2.16287 4.13082 1.05341 1.58817 2.65017 0.719993 1.07785 
11.1322 -0.710641 3.21273 10.5542 -1.54031 3.35456 9.70863 -2.48779 3.45197 
8.52626 -3.52832 3.48269 7.06216 -4.57928 3.46444 5.50134 -5.59989 3.40142 
4.01328 -6.56256 3.26983 2.63517 -7.40928 3.0629 1.3092 -8.12553 2.80089 
12.335 0.900598 2.9249 12.9871 1.88512 2.75144 13.5015 2.99253 2.46122 
14.0062 4.13839 2.07513 14.6384 5.25054 1.89098 15.3025 6.36155 2.11786 
15.7355 7.54488 2.47317 15.8628 8.74283 2.52012 15.8527 9.7447 2.18004 
12.3772 0.0604113 2.93279 13.1813 0.0307737 2.73265 13.9531 -0.0482055 2.56846 
14.7298 -0.24717 2.47404 15.5462 -0.569892 2.414 16.2916 -0.903867 2.30622 
16.7089 -1.17726 2.0301 16.662 -1.43863 1.50964 16.2707 -1.73478 0.820804 
1.35469 1.42305 -1.7291 1.67904 1.63996 -1.36239 1.98287 1.67219 -0.959323 
2.12046 1.55483 -0.606994 2.03669 1.36018 -0.37052 1.80306 1.121 -0.219511 
1.54528 0.887658 -0.0458954 1.35498 0.721218 0.201587 1.25495 0.59925 0.462373 
3.33685 2.07261 -1.76461 5.56157 3.45378 -1.46609 7.68736 5.1083 -1.03885 
9.53526 6.68612 -0.520558 11.0947 7.91794 -0.020145 12.5486 8.94635 0.417594 
13.9151 9.97826 0.814094 14.9622 10.7755 1.16956 15.5642 10.9219 1.46028 
-1.19452 0.648416 -2.15022 -4.04484 0.592833 -2.39529 -7.24402 1.18533 -2.70213 
-10.1706 2.55288 -2.91261 -12.1785 4.37256 -2.74806 -13.3692 6.02573 -2.06838 
-14.4523 7.26301 -1.15944 -15.7682 8.35363 -0.467113 -17.016 9.51988 -0.0782536 
3.56783 1.44827 1.24078 6.08407 3.13856 2.26494 8.49995 5.11382 3.27063 
10.5037 6.74477 3.62741 12.1569 7.91703 3.39317 13.6606 9.05074 3.17675 
14.8246 10.2128 3.10795 15.4012 10.936 2.83565 15.6062 10.9267 2.27832 
-1.17786 0.148417 0.333932 -3.95437 0.32496 0.0922761 -7.09073 0.86839 -0.321964 
-10.2052 1.84834 -0.732237 -12.6434 3.50815 -0.557154 -14.1524 5.64837 0.236928 
-15.1494 7.57841 0.898592 -16.0917 8.93057 0.935457 -17.0305 9.88184 0.589676 
-0.402214 -9.20057 -2.24749 -0.538642 -9.61649 -1.89121 -0.721534 -9.93612 -1.44307 
-1.08249 -10.1961 -0.89881 -1.56089 -10.4493 -0.271922 -1.8307 -10.5698 0.415593 
-1.63642 -10.364 1.107 -1.08381 -9.86247 1.71128 -0.473935 -9.27662 2.17215 
1.27389 -8.36466 -2.07273 3.16687 -7.70599 -1.49384 5.19555 -7.03389 -1.13709 
7.10461 -6.48898 -1.10343 8.96303 -5.87943 -1.04798 10.8569 -5.0391 -0.75029 
12.5435 -4.13684 -0.449213 13.8239 -3.3649 -0.310323 14.8323 -2.69389 -0.164487 
-1.58015 -9.0564 -2.58055 -2.97153 -8.9694 -2.41313 -4.66371 -8.5779 -2.2433 
-6.70807 -7.97656 -2.18749 -8.73541 -7.01762 -1.98137 -10.4689 -5.61554 -1.42219 
-12.0406 -4.09146 -0.761243 -13.4956 -2.77801 -0.234557 -14.5917 -1.641 0.259527 
1.66608 -8.47338 2.55691 3.67971 -8.03123 2.62468 5.97388 -7.44577 2.71679 
8.28466 -6.7338 2.69686 10.2914 -5.92205 2.39563 11.889 -5.05422 1.88126 
13.1872 -4.18322 1.38055 14.2708 -3.36728 0.966606 15.1242 -2.65218 0.563031 
-1.84053 -9.1992 2.21068 -3.80769 -9.44324 1.81105 -5.81636 -9.29703 1.34394 
-7.69551 -8.64634 0.952329 -9.36326 -7.5583 0.78155 -10.9312 -6.2155 0.809284 
-12.4657 -4.77149 0.87073 -13.7882 -3.30915 0.867204 -14.6957 -1.87786 0.835891 
16.2825 9.13581 1.42228 16.9492 7.65936 1.17579 17.6564 6.25375 0.836984 
17.972 4.96426 0.30057 17.8192 3.61869 -0.220081 17.6025 2.21312 -0.357264 
17.497 0.904049 -0.145357 17.218 -0.237763 0.064285 16.5803 -1.21779 0.121985 
-18.4661 11.5919 0.566692 -18.797 12.0725 1.24772 -19.0532 11.5255 2.01493 
-19.2888 10.0356 2.38209 -19.0555 8.35698 2.30967 -18.0645 6.87161 2.16161 
-16.8368 5.21658 2.03331 -16.0216 3.19934 1.74215 -15.6099 1.17169 1.2855 
-8.23474 -2.05182 -3.742 -7.30638 -1.80043 -3.7028 -5.53403 -2.62661 -3.79438 
-6.18647 -1.6888 -3.60619 -4.38343 -2.36983 -3.7383 -2.80109 -3.00418 -3.88628 
-4.93639 -1.55369 -3.44264 -3.0899 -2.13055 -3.55452 -1.48303 -2.57931 -3.70164 
-0.0488426 -2.92545 -3.80604 -3.51052 -1.20687 -3.17354 -1.69301 -1.6654 -3.20478 
-0.0769098 -2.00439 -3.32056 1.36122 -2.18321 -3.43672 2.69618 -2.29029 -3.45967 
-1.93944 -0.708654 -2.82424 -0.204089 -0.936503 -2.76126 1.35547 -1.13324 -2.82519 
2.72962 -1.2328 -2.98018 3.99653 -1.26622 -3.10078 5.08728 -1.35598 -3.15305 
-0.385055 -0.165247 -2.50319 1.25462 -0.153678 -2.40405 2.75399 -0.120922 -2.41215 
4.02989 -0.0962056 -2.57819 5.14643 -0.112734 -2.80828 6.12417 -0.221255 -2.99857 
6.84433 -0.460022 -3.15199 1.05354 0.477587 -2.26933 2.56534 0.626874 -2.21959 
4.01507 0.841301 -2.21058 5.24776 1.03101 -2.33371 6.24299 1.08148 -2.58528 
7.07756 0.94946 -2.86648 7.73594 0.668868 -3.11274 8.15458 0.284602 -3.32939 
-12.524 -0.367699 -3.61757 -14.2222 0.976129 -3.37802 -11.9475 -0.0529671 -3.57113 
-15.6304 2.57688 -2.97261 -13.6903 1.28492 -3.29098 -11.0968 0.0682346 -3.41933 
-16.7383 4.2471 -2.45242 -15.0697 2.84042 -2.85956 -12.8648 1.36734 -3.12501 
-10.0439 0.0204502 -3.31736 -17.5014 5.81167 -1.90351 -16.0082 4.4127 -2.37348 
-14.211 2.8738 -2.78077 -11.8191 1.22373 -3.12662 -8.72789 -0.0809135 -3.30632 
-17.7996 7.19529 -1.40379 -16.4336 5.81853 -1.90811 -14.9804 4.38909 -2.4681 
-13.1468 2.63073 -2.96887 -10.4494 0.91421 -3.25273 -7.06822 -0.156457 -3.21811 
-17.6646 8.3267 -0.974998 -16.3582 6.96671 -1.45974 -15.099 5.69891 -2.14115 
-13.7849 4.06455 -2.81638 -11.709 2.12205 -3.19795 -8.61639 0.584953 -3.20051 
-5.14042 -0.106804 -2.93669 -17.3333 9.11311 -0.556105 -16.0355 7.81679 -0.987612 
-14.778 6.66565 -1.70584 -13.7222 5.25906 -2.53556 -12.2438 3.37758 -3.05871 
-9.70174 1.55233 -3.11198 -6.39153 0.451001 -2.86332 -3.12643 0.170259 -2.54232 
-15.9468 8.84449 0.227365 -14.9319 7.86102 0.333251 -14.5873 7.72288 -0.40761 
-14.0227 6.27571 -0.0600774 -13.6031 6.56173 -0.638742 -13.2879 6.48311 -1.37736 
-12.7629 4.21108 -0.711997 -12.5125 4.76977 -1.05799 -12.1051 5.05937 -1.61863 
-11.988 4.9484 -2.24585 -10.5212 2.37044 -0.923755 -10.5795 2.89853 -1.16295 
-10.3138 3.32565 -1.55376 -10.0558 3.48238 -2.06917 -10.0823 3.21285 -2.56119 
-7.39247 1.19683 -0.553666 -7.59544 1.56448 -0.77194 -7.53311 1.92739 -1.06606 
-7.28759 2.16943 -1.49286 -7.1778 2.13687 -1.97617 -7.25562 1.76639 -2.39662 
[...]
POINT_DATA 1002
FIELD FieldData 4
_paraPhi 1 1002 double
6.2831853072 3.1415926536 6.2831853072 3.1415926536 4.7123889804 4.7123889804 1.5707963268 1.5707963268 3.6951670125 
5.7296109483 2.5880182947 0.5535743589 6.2831853072 6.2831853072 6.2831853072 6.2831853072 3.1415926536 3.1415926536 
3.1415926536 3.1415926536 3.1415926536 6.1053039672 5.898798347 5.6768734901 5.4599499503 5.2659633393 5.1032165617 
4.9713148346 4.8656852733 4.7809517865 0.17788134 0.38438696014 0.60631181711 0.82323535693 1.0172219679 1.1799687454 
1.3118704726 1.4175000338 1.5022335207 6.1892828907 6.1070320098 6.035312792 5.9728339911 5.9183214791 5.8706119594 
5.8286879411 5.7916808611 5.7588591896 0.093902416448 0.17615329733 0.2478725152 0.31035131605 0.36486382811 0.41257334776 
0.45449736604 0.4915044461 0.52432611754 3.3194739936 3.5259796137 3.7479044707 3.9648280105 4.1588146215 4.321561399 
4.4534631262 4.5590926874 4.6438261743 2.9637113136 2.7572056934 2.5352808365 2.3183572967 2.1243706857 1.9616239082 
1.829722181 1.7240926197 1.6393591329 3.23549507 3.3177459509 3.3894651688 3.4519439696 3.5064564817 3.5541660013 
3.5960900196 3.6330970997 3.6659187711 3.0476902371 2.9654393563 2.8937201384 2.8312413375 2.7767288255 2.7290193058 
2.6870952876 2.6500882075 2.617266536 6.2831853072 6.2831853072 6.2831853072 6.2831853072 3.1415926536 3.1415926536 
3.1415926536 3.1415926536 3.1415926536 6.1053039672 5.898798347 5.6768734901 5.4599499503 5.2659633393 5.1032165617 
4.9713148346 4.8656852733 4.7809517865 0.17788134 0.38438696014 0.60631181711 0.82323535693 1.0172219679 1.1799687454 
1.3118704726 1.4175000338 1.5022335207 6.1892828907 6.1070320098 6.035312792 5.9728339911 5.9183214791 5.8706119594 
5.8286879411 5.7916808611 5.7588591896 0.093902416448 0.17615329733 0.2478725152 0.31035131605 0.36486382811 0.41257334776 
0.45449736604 0.4915044461 0.52432611754 3.3194739936 3.5259796137 3.7479044707 3.9648280105 4.1588146215 4.321561399 
4.4534631262 4.5590926874 4.6438261743 2.9637113136 2.7572056934 2.5352808365 2.3183572967 2.1243706857 1.9616239082 
1.829722181 1.7240926197 1.6393591329 3.23549507 3.3177459509 3.3894651688 3.4519439696 3.5064564817 3.5541660013 
3.5960900196 3.6330970997 3.6659187711 3.0476902371 2.9654393563 2.8937201384 2.8312413375 2.7767288255 2.7290193058 
2.6870952876 2.6500882075 2.617266536 4.7123889804 4.7123889804 4.7123889804 4.7123889804 4.7123889804 4.7123889804 
4.7123889804 4.7123889804 4.7123889804 4.6087898617 4.4991390697 4.3857031936 4.2712800401 4.1588146215 4.0509635631 
3.94975894 3.8564636551 3.7716124825 4.8159880991 4.9256388911 5.0390747672 5.1534979207 5.2659633393 5.3738143976 
5.4750190208 5.5683143056 5.6531654782 4.6087898617 4.4991390697 4.3857031936 4.2712800401 4.1588146215 4.0509635631 
3.94975894 3.8564636551 3.7716124825 4.8159880991 4.9256388911 5.0390747672 5.1534979207 5.2659633393 5.3738143976 
5.4750190208 5.5683143056 5.6531654782 1.5707963268 1.5707963268 1.5707963268 1.5707963268 1.5707963268 1.5707963268 
1.5707963268 1.5707963268 1.5707963268 1.6743954455 1.7840462375 1.8974821136 2.0119052671 2.1243706857 2.232221744 
2.3334263672 2.426721652 2.5115728246 1.4671972081 1.3575464161 1.24411054 1.1296873865 1.0172219679 0.90937090954 
0.80816628637 0.71487100155 0.63001982895 1.6743954455 1.7840462375 1.8974821136 2.0119052671 2.1243706857 2.232221744 
2.3334263672 2.426721652 2.5115728246 1.4671972081 1.3575464161 1.24411054 1.1296873865 1.0172219679 0.90937090954 
0.80816628637 0.71487100155 0.63001982895 3.6007720849 3.4966939854 3.3839471039 3.2645756454 3.1415926536 3.0186096618 
2.8992382033 2.7864913217 2.6824132222 5.8240058758 5.9280839753 6.0408308569 6.1602023154 6.2831853072 0.12298299178 
0.2423544503 0.35510133185 0.45917943135 6.0560271438 5.7885595667 5.9702140275 5.5125918794 5.6029703303 5.7885595667 
5.2659633393 5.2659633393 5.2659633393 5.2659633393 5.0674903122 5.0120975802 4.9155579264 4.7123889804 4.1588146215 
4.9155579264 4.8353719722 4.7123889804 4.5092200343 4.1588146215 3.6362183941 4.8004512023 4.7123889804 4.5894059886 
4.4126803806 4.1588146215 3.8218076305 3.4545639333 4.7123889804 4.6243267584 4.5092200343 4.3572876485 4.1588146215 
3.9121860814 3.6362183941 3.368750817 6.0174235957 5.9434319871 5.8263323547 5.8809213739 5.7674481418 5.6279784266 
5.8278025282 5.718968232 5.5891129425 5.4372443565 5.7823484065 5.678536687 5.5575666702 5.4192596322 5.2659633393 
5.743164462 5.6444075337 5.5314983644 5.4046708639 5.2659633393 5.1195510325 5.7091357773 5.6152775188 5.5096229709 
5.3926039573 5.2659633393 5.1329233157 4.9978930058 5.6793730533 5.5901633916 5.4910209005 5.3824597928 5.2659633393 
5.1440684722 5.0201624502 4.8979782167 5.5683143056 5.4750190208 5.4750190208 5.3738143976 5.3738143976 5.3738143976 
5.2659633393 5.2659633393 5.2659633393 5.2659633393 5.1534979207 5.1534979207 5.1534979207 5.1534979207 5.1534979207 
5.0390747672 5.0390747672 5.0390747672 5.0390747672 5.0390747672 5.0390747672 4.9256388911 4.9256388911 4.9256388911 
4.9256388911 4.9256388911 4.9256388911 4.9256388911 4.8159880991 4.8159880991 4.8159880991 4.8159880991 4.8159880991 
4.8159880991 4.8159880991 4.8159880991 4.6087898617 4.6087898617 4.4991390697 4.6087898617 4.4991390697 4.3857031936 
4.6087898617 4.4991390697 4.3857031936 4.2712800401 4.6087898617 4.4991390697 4.3857031936 4.2712800401 4.1588146215 
4.6087898617 4.4991390697 4.3857031936 4.2712800401 4.1588146215 4.0509635631 4.6087898617 4.4991390697 4.3857031936 
4.2712800401 4.1588146215 4.0509635631 3.94975894 4.6087898617 4.4991390697 4.3857031936 4.2712800401 4.1588146215 
4.0509635631 3.94975894 3.8564636551 4.526799744 4.4046155105 4.426884955 4.2807094886 4.2918546451 4.3052269283 
4.1588146215 4.1588146215 4.1588146215 4.1588146215 4.042318168 4.0321740035 4.0201070968 4.0055183285 3.9875336042 
3.9337570603 3.9151549899 3.8932795963 3.8672112905 3.8356650183 3.7967995342 3.8346145692 3.809500442 3.7803704271 
3.7462412737 3.7058097288 3.657329819 3.5984456061 3.7454049075 3.7156421835 3.6816134988 3.6424295543 3.5969754326 
3.5438565869 3.4813459737 3.4073543651 3.5642842451 3.4524645613 3.5233842518 3.3320300872 3.403123212 3.4773852225 
3.20576226 3.2746326772 3.348015857 3.4255060145 3.0774230472 3.1415926536 3.2112816139 3.2864685043 3.3668817272 
2.95115522 3.00855263 3.0719036933 3.1415926536 3.2178377658 3.3005964304 2.8307207459 2.8800620952 2.9351694502 
2.9967168029 3.0653475414 3.1415926536 3.225752376 2.718901062 2.7598010554 2.8058000847 2.8576792927 2.91630358 
2.9825888767 3.0574329311 3.1415926536 3.5642842451 3.5233842518 3.4524645613 3.4773852225 3.403123212 3.3320300872 
3.4255060145 3.348015857 3.2746326772 3.20576226 3.3668817272 3.2864685043 3.2112816139 3.1415926536 3.0774230472 
3.3005964304 3.2178377658 3.1415926536 3.0719036933 3.00855263 2.95115522 3.225752376 3.1415926536 3.0653475414 
2.9967168029 2.9351694502 2.8800620952 2.8307207459 3.1415926536 3.0574329311 2.9825888767 2.91630358 2.8576792927 
2.8058000847 2.7598010554 2.718901062 4.526799744 4.426884955 4.4046155105 4.3052269283 4.2918546451 4.2807094886 
4.1588146215 4.1588146215 4.1588146215 4.1588146215 3.9875336042 4.0055183285 4.0201070968 4.0321740035 4.042318168 
3.7967995342 3.8356650183 3.8672112905 3.8932795963 3.9151549899 3.9337570603 3.5984456061 3.657329819 3.7058097288 
3.7462412737 3.7803704271 3.809500442 3.8346145692 3.4073543651 3.4813459737 3.5438565869 3.5969754326 3.6424295543 
3.6816134988 3.7156421835 3.7454049075 4.7123889804 4.8004512023 4.6243267584 4.9155579264 4.7123889804 4.5092200343 
5.0674903122 4.8353719722 4.5894059886 4.3572876485 5.2659633393 5.0120975802 4.7123889804 4.4126803806 4.1588146215 
5.5125918794 5.2659633393 4.9155579264 4.5092200343 4.1588146215 3.9121860814 5.7885595667 5.6029703303 5.2659633393 
4.7123889804 4.1588146215 3.8218076305 3.6362183941 6.0560271438 5.9702140275 5.7885595667 5.2659633393 4.1588146215 
3.6362183941 3.4545639333 3.368750817 0.22715816343 0.49462574053 0.3129712797 0.77059342779 0.68021497688 0.49462574053 
1.0172219679 1.0172219679 1.0172219679 1.0172219679 1.2156949949 1.271087727 1.3676273807 1.5707963268 2.1243706857 
1.3676273807 1.447813335 1.5707963268 1.7739652728 2.1243706857 2.6469669131 1.4827341049 1.5707963268 1.6937793186 
1.8705049266 2.1243706857 2.4613776767 2.8286213739 1.5707963268 1.6588585487 1.7739652728 1.9258976586 2.1243706857 
2.3709992258 2.6469669131 2.9144344902 1.7563855631 1.8785697967 1.8563003522 2.0024758186 1.9913306621 1.9779583789 
2.1243706857 2.1243706857 2.1243706857 2.1243706857 2.2408671392 2.2510113037 2.2630782103 2.2776669786 2.295651703 
2.3494282469 2.3680303173 2.3899057108 2.4159740166 2.4475202889 2.486385773 2.448570738 2.4736848652 2.5028148801 
2.5369440334 2.5773755784 2.6258554882 2.6847397011 2.5377803997 2.5675431237 2.6015718084 2.6407557529 2.6862098746 
2.7393287203 2.8018393335 2.8758309421 1.6743954455 1.6743954455 1.7840462375 1.6743954455 1.7840462375 1.8974821136 
1.6743954455 1.7840462375 1.8974821136 2.0119052671 1.6743954455 1.7840462375 1.8974821136 2.0119052671 2.1243706857 
1.6743954455 1.7840462375 1.8974821136 2.0119052671 2.1243706857 2.232221744 1.6743954455 1.7840462375 1.8974821136 
2.0119052671 2.1243706857 2.232221744 2.3334263672 1.6743954455 1.7840462375 1.8974821136 2.0119052671 2.1243706857 
2.232221744 2.3334263672 2.426721652 1.4671972081 1.3575464161 1.4671972081 1.24411054 1.3575464161 1.4671972081 
1.1296873865 1.24411054 1.3575464161 1.4671972081 1.0172219679 1.1296873865 1.24411054 1.3575464161 1.4671972081 
0.90937090954 1.0172219679 1.1296873865 1.24411054 1.3575464161 1.4671972081 0.80816628637 0.90937090954 1.0172219679 
1.1296873865 1.24411054 1.3575464161 1.4671972081 0.71487100155 0.80816628637 0.90937090954 1.0172219679 1.1296873865 
1.24411054 1.3575464161 1.4671972081 0.60381225391 0.57404952988 0.69302191562 0.54002084522 0.66790778838 0.79216440667 
0.50083690068 0.63877777351 0.77356233629 0.90072551443 0.45538277901 0.60464862014 0.75168694275 0.89058134991 1.0172219679 
0.40226393329 0.56421707518 0.72561863695 0.87851444325 1.0172219679 1.139116835 0.33975332011 0.51573716537 0.69407236469 
0.86392567495 1.0172219679 1.1502619915 1.2630228569 0.26576171152 0.45685295248 0.6552068806 0.84594095064 1.0172219679 
1.1636342747 1.2852923014 1.3852070904 0.22715816343 0.3129712797 0.49462574053 0.49462574053 0.68021497688 0.77059342779 
1.0172219679 1.0172219679 1.0172219679 1.0172219679 2.1243706857 1.5707963268 1.3676273807 1.271087727 1.2156949949 
2.6469669131 2.1243706857 1.7739652728 1.5707963268 1.447813335 1.3676273807 2.8286213739 2.4613776767 2.1243706857 
1.8705049266 1.6937793186 1.5707963268 1.4827341049 2.9144344902 2.6469669131 2.3709992258 2.1243706857 1.9258976586 
1.7739652728 1.6588585487 1.5707963268 1.7563855631 1.8563003522 1.8785697967 1.9779583789 1.9913306621 2.0024758186 
2.1243706857 2.1243706857 2.1243706857 2.1243706857 2.295651703 2.2776669786 2.2630782103 2.2510113037 2.2408671392 
2.486385773 2.4475202889 2.4159740166 2.3899057108 2.3680303173 2.3494282469 2.6847397011 2.6258554882 2.5773755784 
2.5369440334 2.5028148801 2.4736848652 2.448570738 2.8758309421 2.8018393335 2.7393287203 2.6862098746 2.6407557529 
2.6015718084 2.5675431237 2.5377803997 5.8604937156 5.901393709 5.9723133995 5.9473927383 6.0216547488 6.0927478736 
5.9992719463 6.0767621038 6.1501452836 6.2190157008 6.0578962336 6.1383094565 6.2134963469 0 0.064169606361 
6.1241815303 6.206940195 6.2831853072 0.069688960264 0.13304002361 0.19043743361 6.1990255847 0 0.07624511221 
0.14487585072 0.20642320337 0.26153055843 0.3108719077 0 0.084159722458 0.15900377685 0.22528907359 0.28391336087 
0.3357925689 0.38179159818 0.42269159155 5.8604937156 5.9723133995 5.901393709 6.0927478736 6.0216547488 5.9473927383 
6.2190157008 6.1501452836 6.0767621038 5.9992719463 0.064169606361 0 6.2134963469 6.1383094565 6.0578962336 
0.19043743361 0.13304002361 0.069688960264 6.2831853072 6.206940195 6.1241815303 0.3108719077 0.26153055843 0.20642320337 
0.14487585072 0.07624511221 6.2831853072 6.1990255847 0.42269159155 0.38179159818 0.3357925689 0.28391336087 0.22528907359 
0.15900377685 0.084159722458 0 5.6793730533 5.7091357773 5.5901633916 5.743164462 5.6152775188 5.4910209005 
5.7823484065 5.6444075337 5.5096229709 5.3824597928 5.8278025282 5.678536687 5.5314983644 5.3926039573 5.2659633393 
5.8809213739 5.718968232 5.5575666702 5.4046708639 5.2659633393 5.1440684722 5.9434319871 5.7674481418 5.5891129425 
5.4192596322 5.2659633393 5.1329233157 5.0201624502 6.0174235957 5.8263323547 5.6279784266 5.4372443565 5.2659633393 
5.1195510325 4.9978930058 4.8979782167 1.3852070904 1.2852923014 1.2630228569 1.1636342747 1.1502619915 1.139116835 
1.0172219679 1.0172219679 1.0172219679 1.0172219679 0.84594095064 0.86392567495 0.87851444325 0.89058134991 0.90072551443 
0.6552068806 0.69407236469 0.72561863695 0.75168694275 0.77356233629 0.79216440667 0.45685295248 0.51573716537 0.56421707518 
0.60464862014 0.63877777351 0.66790778838 0.69302191562 0.26576171152 0.33975332011 0.40226393329 0.45538277901 0.50083690068 
0.54002084522 0.57404952988 0.60381225391 
_paraPhiHalf 1 1002 double
0 3.1415926536 0 3.1415926536 1.5707963268 1.5707963268 1.5707963268 1.5707963268 2.5880182947 
0.5535743589 2.5880182947 0.5535743589 0 0 0 0 3.1415926536 3.1415926536 
3.1415926536 3.1415926536 3.1415926536 0.17788134 0.38438696014 0.60631181711 0.82323535693 1.0172219679 1.1799687454 
1.3118704726 1.4175000338 1.5022335207 0.17788134 0.38438696014 0.60631181711 0.82323535693 1.0172219679 1.1799687454 
1.3118704726 1.4175000338 1.5022335207 0.093902416448 0.17615329733 0.2478725152 0.31035131605 0.36486382811 0.41257334776 
0.45449736604 0.4915044461 0.52432611754 0.093902416448 0.17615329733 0.2478725152 0.31035131605 0.36486382811 0.41257334776 
0.45449736604 0.4915044461 0.52432611754 2.9637113136 2.7572056934 2.5352808365 2.3183572967 2.1243706857 1.9616239082 
1.829722181 1.7240926197 1.6393591329 2.9637113136 2.7572056934 2.5352808365 2.3183572967 2.1243706857 1.9616239082 
1.829722181 1.7240926197 1.6393591329 3.0476902371 2.9654393563 2.8937201384 2.8312413375 2.7767288255 2.7290193058 
2.6870952876 2.6500882075 2.617266536 3.0476902371 2.9654393563 2.8937201384 2.8312413375 2.7767288255 2.7290193058 
2.6870952876 2.6500882075 2.617266536 0 0 0 0 3.1415926536 3.1415926536 
3.1415926536 3.1415926536 3.1415926536 0.17788134 0.38438696014 0.60631181711 0.82323535693 1.0172219679 1.1799687454 
1.3118704726 1.4175000338 1.5022335207 0.17788134 0.38438696014 0.60631181711 0.82323535693 1.0172219679 1.1799687454 
1.3118704726 1.4175000338 1.5022335207 0.093902416448 0.17615329733 0.2478725152 0.31035131605 0.36486382811 0.41257334776 
0.45449736604 0.4915044461 0.52432611754 0.093902416448 0.17615329733 0.2478725152 0.31035131605 0.36486382811 0.41257334776 
0.45449736604 0.4915044461 0.52432611754 2.9637113136 2.7572056934 2.5352808365 2.3183572967 2.1243706857 1.9616239082 
1.829722181 1.7240926197 1.6393591329 2.9637113136 2.7572056934 2.5352808365 2.3183572967 2.1243706857 1.9616239082 
1.829722181 1.7240926197 1.6393591329 3.0476902371 2.9654393563 2.8937201384 2.8312413375 2.7767288255 2.7290193058 
2.6870952876 2.6500882075 2.617266536 3.0476902371 2.9654393563 2.8937201384 2.8312413375 2.7767288255 2.7290193058 
2.6870952876 2.6500882075 2.617266536 1.5707963268 1.5707963268 1.5707963268 1.5707963268 1.5707963268 1.5707963268 
1.5707963268 1.5707963268 1.5707963268 1.6743954455 1.7840462375 1.8974821136 2.0119052671 2.1243706857 2.232221744 
2.3334263672 2.426721652 2.5115728246 1.4671972081 1.3575464161 1.24411054 1.1296873865 1.0172219679 0.90937090954 
0.80816628637 0.71487100155 0.63001982895 1.6743954455 1.7840462375 1.8974821136 2.0119052671 2.1243706857 2.232221744 
2.3334263672 2.426721652 2.5115728246 1.4671972081 1.3575464161 1.24411054 1.1296873865 1.0172219679 0.90937090954 
0.80816628637 0.71487100155 0.63001982895 1.5707963268 1.5707963268 1.5707963268 1.5707963268 1.5707963268 1.5707963268 
1.5707963268 1.5707963268 1.5707963268 1.6743954455 1.7840462375 1.8974821136 2.0119052671 2.1243706857 2.232221744 
2.3334263672 2.426721652 2.5115728246 1.4671972081 1.3575464161 1.24411054 1.1296873865 1.0172219679 0.90937090954 
0.80816628637 0.71487100155 0.63001982895 1.6743954455 1.7840462375 1.8974821136 2.0119052671 2.1243706857 2.232221744 
2.3334263672 2.426721652 2.5115728246 1.4671972081 1.3575464161 1.24411054 1.1296873865 1.0172219679 0.90937090954 
0.80816628637 0.71487100155 0.63001982895 2.6824132222 2.7864913217 2.8992382033 3.0186096618 3.1415926536 3.0186096618 
2.8992382033 2.7864913217 2.6824132222 0.45917943135 0.35510133185 0.2423544503 0.12298299178 0 0.12298299178 
0.2423544503 0.35510133185 0.45917943135 0.22715816343 0.49462574053 0.3129712797 0.77059342779 0.68021497688 0.49462574053 
1.0172219679 1.0172219679 1.0172219679 1.0172219679 1.2156949949 1.271087727 1.3676273807 1.5707963268 2.1243706857 
1.3676273807 1.447813335 1.5707963268 1.7739652728 2.1243706857 2.6469669131 1.4827341049 1.5707963268 1.6937793186 
1.8705049266 2.1243706857 2.4613776767 2.8286213739 1.5707963268 1.6588585487 1.7739652728 1.9258976586 2.1243706857 
2.3709992258 2.6469669131 2.9144344902 0.26576171152 0.33975332011 0.45685295248 0.40226393329 0.51573716537 0.6552068806 
0.45538277901 0.56421707518 0.69407236469 0.84594095064 0.50083690068 0.60464862014 0.72561863695 0.86392567495 1.0172219679 
0.54002084522 0.63877777351 0.75168694275 0.87851444325 1.0172219679 1.1636342747 0.57404952988 0.66790778838 0.77356233629 
0.89058134991 1.0172219679 1.1502619915 1.2852923014 0.60381225391 0.69302191562 0.79216440667 0.90072551443 1.0172219679 
1.139116835 1.2630228569 1.3852070904 0.71487100155 0.80816628637 0.80816628637 0.90937090954 0.90937090954 0.90937090954 
1.0172219679 1.0172219679 1.0172219679 1.0172219679 1.1296873865 1.1296873865 1.1296873865 1.1296873865 1.1296873865 
1.24411054 1.24411054 1.24411054 1.24411054 1.24411054 1.24411054 1.3575464161 1.3575464161 1.3575464161 
1.3575464161 1.3575464161 1.3575464161 1.3575464161 1.4671972081 1.4671972081 1.4671972081 1.4671972081 1.4671972081 
1.4671972081 1.4671972081 1.4671972081 1.6743954455 1.6743954455 1.7840462375 1.6743954455 1.7840462375 1.8974821136 
1.6743954455 1.7840462375 1.8974821136 2.0119052671 1.6743954455 1.7840462375 1.8974821136 2.0119052671 2.1243706857 
1.6743954455 1.7840462375 1.8974821136 2.0119052671 2.1243706857 2.232221744 1.6743954455 1.7840462375 1.8974821136 
2.0119052671 2.1243706857 2.232221744 2.3334263672 1.6743954455 1.7840462375 1.8974821136 2.0119052671 2.1243706857 
2.232221744 2.3334263672 2.426721652 1.7563855631 1.8785697967 1.8563003522 2.0024758186 1.9913306621 1.9779583789 
2.1243706857 2.1243706857 2.1243706857 2.1243706857 2.2408671392 2.2510113037 2.2630782103 2.2776669786 2.295651703 
2.3494282469 2.3680303173 2.3899057108 2.4159740166 2.4475202889 2.486385773 2.448570738 2.4736848652 2.5028148801 
2.5369440334 2.5773755784 2.6258554882 2.6847397011 2.5377803997 2.5675431237 2.6015718084 2.6407557529 2.6862098746 
2.7393287203 2.8018393335 2.8758309421 2.718901062 2.8307207459 2.7598010554 2.95115522 2.8800620952 2.8058000847 
3.0774230472 3.00855263 2.9351694502 2.8576792927 3.0774230472 3.1415926536 3.0719036933 2.9967168029 2.91630358 
2.95115522 3.00855263 3.0719036933 3.1415926536 3.0653475414 2.9825888767 2.8307207459 2.8800620952 2.9351694502 
2.9967168029 3.0653475414 3.1415926536 3.0574329311 2.718901062 2.7598010554 2.8058000847 2.8576792927 2.91630358 
2.9825888767 3.0574329311 3.1415926536 2.718901062 2.7598010554 2.8307207459 2.8058000847 2.8800620952 2.95115522 
2.8576792927 2.9351694502 3.00855263 3.0774230472 2.91630358 2.9967168029 3.0719036933 3.1415926536 3.0774230472 
2.9825888767 3.0653475414 3.1415926536 3.0719036933 3.00855263 2.95115522 3.0574329311 3.1415926536 3.0653475414 