# vtk DataFile Version 5.1
vtk output
ASCII
DATASET POLYDATA
POINTS 1002 float
-12.5545 0.199566 -2.85416 12.7563 0.742347 -4.08561 -11.5145 1.64358 3.93772 
11.1462 -0.318358 4.19885 0.841203 9.31094 -2.50983 -0.586928 9.01696 2.9154 
0.287145 -0.51309 -0.653139 0.698444 -1.34839 2.22101 19.2474 1.33738 -0.969103 
-18.5328 0.649996 -0.515562 18.9904 -10.1306 -1.04751 -19.945 -10.8493 -0.444023 
-10.7963 1.27336 -2.40534 -8.74829 2.25958 -1.98043 -6.3972 3.07661 -1.62825 
-3.70794 3.60221 -1.51074 -0.662083 3.69507 -1.85992 2.62601 3.35465 -2.67446 
5.86339 2.76277 -3.57777 8.72192 2.09726 -4.15208 11.0189 1.42027 -4.27769 
-11.6962 1.14588 -2.65053 -10.6696 2.21126 -2.38901 -9.44087 3.38652 -2.11636 
-7.95415 4.58729 -1.92817 -6.24923 5.7118 -1.91465 -4.51484 6.72351 -2.06291 
-2.92951 7.60963 -2.25436 -1.52885 8.33383 -2.38898 -0.27704 8.88796 -2.46167 
-12.28 -0.00134047 -2.69851 -11.8371 -0.177058 -2.48047 -11.116 -0.309697 -2.24639 
-10.0928 -0.32021 -1.97067 -8.85914 -0.17464 -1.56811 -7.46469 0.0281863 -1.05608 
-5.82957 0.151242 -0.6107 -3.90166 0.119987 -0.398803 -1.79312 -0.0992098 -0.442219 
-13.7185 -0.349666 -3.1955 -14.8946 -0.841046 -3.4932 -15.9589 -1.14349 -3.72505 
-16.8125 -1.20195 -3.85988 -17.5099 -1.07775 -3.77037 -18.1323 -0.863607 -3.33255 
-18.6038 -0.594167 -2.62808 -18.812 -0.255164 -1.86595 -18.7654 0.165159 -1.16073 
-14.0422 -1.16003 -3.26929 -15.4848 -2.75568 -3.67967 -16.7873 -4.45425 -3.92754 
-17.8901 -6.1129 -3.91181 -18.7726 -7.73569 -3.69795 -19.4181 -9.33464 -3.34872 
-19.8141 -10.6602 -2.78614 -19.9918 -11.3619 -1.99404 -20.0185 -11.3573 -1.14852 
11.9902 1.60494 -4.23449 11.084 2.52881 -4.39637 10.0643 3.47683 -4.56048 
8.91692 4.44789 -4.62636 7.64498 5.45633 -4.52077 6.29754 6.46985 -4.28434 
4.91972 7.41076 -3.96654 3.53518 8.21174 -3.55397 2.16789 8.8433 -3.04942 
12.4498 0.346161 -4.09393 11.9585 -0.0171098 -4.02457 11.1955 -0.312626 -3.81584 
10.1357 -0.513909 -3.48841 8.82369 -0.606286 -3.10404 7.27586 -0.590584 -2.6638 
5.5023 -0.509515 -2.14693 3.63271 -0.441581 -1.5978 1.86031 -0.44146 -1.08726 
13.7984 0.572796 -3.86333 14.8082 0.423589 -3.63566 15.8119 0.334433 -3.44345 
16.7766 0.304681 -3.26591 17.626 0.310217 -3.08971 18.3341 0.383603 -2.90299 
18.9254 0.575882 -2.61845 19.3508 0.8491 -2.15369 19.4807 1.1147 -1.56066 
14.0243 -0.256794 -3.70269 15.0666 -1.41581 -3.09082 15.9194 -2.74752 -2.38879 
16.8091 -4.21528 -1.96296 17.8161 -5.67789 -2.06312 18.6573 -6.99722 -2.42352 
19.0719 -8.15442 -2.52901 19.1559 -9.13534 -2.20385 19.1139 -9.82677 -1.64067 
-9.60828 2.26162 4.20576 -7.49532 2.76186 4.51781 -5.11995 3.08449 4.66484 
-2.3558 3.21043 4.38904 0.735159 3.07937 3.80491 3.71239 2.6053 3.42787 
6.12442 1.85533 3.55475 7.98167 1.04436 3.93352 9.59626 0.318146 4.18303 
-10.7198 2.34746 4.11425 -9.74634 3.16821 4.29788 -8.68635 4.11236 4.52282 
-7.60762 5.12814 4.7312 -6.47544 6.1174 4.79224 -5.27228 6.99894 4.65123 
-4.07486 7.7359 4.3553 -2.91909 8.31272 3.94642 -1.75954 8.73081 3.44905 
-10.9799 1.4015 3.85074 -10.2082 1.16437 3.70429 -9.26674 0.899568 3.59247 
-8.23342 0.608907 3.58225 -7.06351 0.331297 3.55533 -5.65486 0.0875346 3.31807 
-4.04258 -0.154239 2.90552 -2.38209 -0.454388 2.54586 -0.788892 -0.85473 2.34729 
-12.8888 1.38894 3.79395 -14.2383 1.13332 3.5506 -15.5067 0.878035 3.17092 
-16.6367 0.598776 2.67152 -17.5776 0.322993 2.0902 -18.2912 0.129973 1.46818 
-18.7332 0.0610357 0.86864 -18.8818 0.119504 0.343203 -18.786 0.318108 -0.109391 
-13.1102 0.747944 3.6616 -14.7769 -0.342114 3.29356 -16.4383 -1.64021 2.76363 
-17.9909 -3.14728 2.11296 -19.2922 -4.81904 1.48619 -20.2036 -6.53566 0.993235 
-20.6585 -8.13139 0.633533 -20.6886 -9.44861 0.329188 -20.4034 -10.37 -0.014578 
10.5022 0.577571 4.2026 9.75226 1.52598 4.03022 8.91203 2.50927 3.65342 
7.94473 3.56293 3.18682 6.74586 4.69731 2.85 5.26147 5.82421 2.75628 
3.60906 6.83921 2.8156 2.00571 7.70994 2.88698 0.599878 8.43775 2.91636 
10.7509 -0.792675 4.13694 10.2591 -1.20424 3.98993 9.66831 -1.50101 3.74735 
8.95744 -1.69409 3.42935 8.04089 -1.8061 3.09874 6.82269 -1.81341 2.80686 
5.33447 -1.71047 2.55964 3.73436 -1.55928 2.36503 2.16692 -1.42779 2.25101 
12.3648 -0.389728 4.13617 13.6622 -0.450011 4.03477 14.9474 -0.461162 3.87911 
16.1643 -0.372837 3.52285 17.2858 -0.211588 2.83757 18.262 -0.0416223 1.9408 
19.0114 0.163269 1.08132 19.4465 0.476188 0.346752 19.5149 0.891016 -0.326051 
12.506 -1.28884 4.05021 13.9074 -2.3996 3.82961 15.2082 -3.6345 3.62277 
16.3221 -4.947 3.40736 17.2796 -6.27342 3.02473 18.1563 -7.53727 2.34618 
18.8952 -8.63613 1.44438 19.3003 -9.46045 0.519722 19.2843 -9.95186 -0.307811 
0.645261 9.81324 -2.18543 0.353452 10.378 -1.78529 -0.0198245 10.9442 -1.21671 
-0.381664 11.3395 -0.413828 -0.589313 11.3883 0.520026 -0.589479 11.0814 1.33476 
-0.498609 10.5722 1.88286 -0.467964 10.0187 2.24756 -0.522571 9.49503 2.5766 
2.76863 9.34822 -2.87015 4.77391 9.13759 -3.13808 6.82245 8.62833 -3.24193 
8.99993 7.88442 -3.17162 11.3013 7.00048 -2.96346 13.4604 5.96816 -2.65934 
15.2479 4.76572 -2.28651 16.7378 3.503 -1.86438 18.0759 2.33759 -1.41734 
-1.23658 9.38121 -1.91 -3.50585 9.2359 -1.32891 -5.87411 8.82551 -0.888205 
-8.32154 8.08638 -0.597373 -10.8227 7.01346 -0.414928 -13.1749 5.73175 -0.365916 
-15.1053 4.40233 -0.442848 -16.5487 3.09686 -0.525914 -17.6449 1.83314 -0.535581 
1.39229 8.83007 2.33194 3.61512 8.40978 1.6867 5.96041 7.80486 1.14874 
8.28222 7.12089 0.856018 10.4989 6.36856 0.700825 12.6046 5.43914 0.446175 
14.5961 4.31929 0.0547242 16.4253 3.17748 -0.339977 18.0051 2.17594 -0.673934 
-2.45942 9.28454 3.21148 -4.4482 9.33845 3.43667 -6.49632 9.13232 3.53526 
-8.50726 8.54743 3.39664 -10.4823 7.46173 2.93667 -12.5171 5.99929 2.24719 
-14.5375 4.49672 1.51213 -16.2788 3.13953 0.809079 -17.5888 1.87657 0.12901 
0.626281 -0.899362 -0.547009 0.946468 -1.29164 -0.386603 1.19387 -1.65186 -0.18789 
1.34666 -1.94504 0.0375369 1.38558 -2.14202 0.3532 1.28157 -2.21143 0.829786 
1.06978 -2.13307 1.38644 0.86156 -1.92659 1.83939 0.738528 -1.64698 2.10021 
3.33101 -1.19407 -1.26739 6.42022 -2.33805 -1.94858 9.23841 -3.80462 -2.45108 
11.6514 -5.44178 -2.75321 13.6514 -7.16479 -3.0048 15.203 -8.75866 -3.14245 
16.3511 -9.8486 -2.92312 17.2927 -10.2846 -2.34767 18.1757 -10.2851 -1.66452 
-2.51453 -0.486519 -0.21243 -5.39673 -0.92675 -0.101002 -8.20541 -1.91415 -0.335543 
-10.8069 -3.37612 -0.738534 -13.0721 -5.09775 -1.10131 -14.9333 -6.82132 -1.28481 
-16.456 -8.35028 -1.2155 -17.7668 -9.57018 -0.948905 -18.9324 -10.4127 -0.651784 
3.09767 -2.06938 2.0585 5.63553 -3.09968 1.79312 8.15753 -4.36562 1.40796 
10.4545 -5.77634 1.0244 12.421 -7.21968 0.74887 14.1479 -8.51578 0.478361 
15.7354 -9.47916 0.0765387 17.1234 -10.0379 -0.390293 18.2094 -10.2304 -0.778513 
-1.76541 -1.10193 2.33853 -4.56175 -1.22379 2.4741 -7.56023 -1.84059 2.50526 
-10.4409 -2.93409 2.31562 -12.9093 -4.33017 1.90502 -14.9551 -5.82266 1.38779 
-16.6918 -7.28559 0.886927 -18.1056 -8.65931 0.447164 -19.1624 -9.87841 0.0259053 
20.5098 0.241937 -0.832008 21.5087 -1.00388 -0.560257 22.0603 -2.44582 -0.0866251 
22.2293 -4.02728 0.465258 22.1911 -5.64531 0.751285 21.954 -7.18951 0.556455 
21.4389 -8.47349 0.0588774 20.6975 -9.33758 -0.431707 19.8568 -9.83158 -0.791436 
-19.5456 -0.90821 -0.93424 -20.5653 -2.62537 -1.43583 -21.5437 -4.34194 -1.93032 
-22.4375 -6.03031 -2.24838 -23.1286 -7.7994 -2.27676 -23.3506 -9.5458 -2.0343 
-22.9266 -10.8633 -1.61436 -22.0244 -11.4529 -1.138 -20.9699 -11.3676 -0.726685 
-9.74745 2.21275 -2.22341 -8.53094 3.25927 -1.9975 -7.52223 3.16966 -1.81906 
-7.10175 4.36534 -1.81242 -6.12072 4.13693 -1.67357 -4.98732 3.88187 -1.57203 
-5.41426 5.40177 -1.83977 -4.47806 5.05224 -1.72853 -3.36878 4.63942 -1.69193 
-2.06377 4.17617 -1.76218 -3.57906 6.30251 -2.15866 -2.59679 5.81553 -2.16237 
-1.49086 5.25597 -2.18304 -0.195301 4.63525 -2.31749 1.21358 3.99856 -2.50849 
-1.82825 7.11079 -2.60034 -0.688833 6.48759 -2.83917 0.513931 5.77315 -2.99075 
1.82881 5.00952 -3.1526 3.20594 4.25359 -3.33388 4.55237 3.51603 -3.47204 
-0.293707 7.8338 -2.91756 0.999097 7.15445 -3.37751 2.33538 6.33005 -3.70692 
3.71899 5.43405 -3.939 5.09541 4.55843 -4.09796 6.37548 3.73715 -4.15776 
7.56643 2.92522 -4.15167 1.03011 8.41651 -3.03922 2.39509 7.75854 -3.5808 
3.79284 6.9203 -4.00884 5.20707 5.96041 -4.31771 6.59405 4.98022 -4.51402 
7.86775 4.05468 -4.55908 9.00003 3.17037 -4.47317 10.0457 2.28679 -4.36185 
-12.8786 0.76315 -2.89295 -14.036 0.472977 -3.08759 -11.8196 2.02288 -2.53661 
-15.012 0.350947 -3.25864 -12.8843 1.91467 -2.65272 -10.4814 3.37389 -2.21568 
-15.7773 0.393687 -3.3554 -13.7417 1.89714 -2.7674 -11.4102 3.38889 -2.28969 
-8.84886 4.72338 -2.00022 -16.4713 0.560335 -3.19288 -14.4847 1.97487 -2.77269 
-12.2123 3.42724 -2.31408 -9.69212 4.85012 -2.00567 -7.06312 6.00481 -1.89525 
-17.1262 0.82229 -2.67805 -15.2687 2.18337 -2.48362 -13.0494 3.54879 -2.1503 
-10.5472 4.97558 -1.87879 -7.92161 6.26778 -1.75398 -5.35092 7.16125 -1.85715 
-17.5868 1.14316 -1.95714 -15.9988 2.50111 -1.90324 -13.9615 3.81066 -1.71038 
-11.5105 5.16946 -1.53383 -8.86783 6.49605 -1.46024 -6.27659 7.52294 -1.53216 
-3.82771 8.11219 -1.84673 -17.7499 1.48366 -1.21852 -16.452 2.82561 -1.2072 
-14.7191 4.13571 -1.09322 -12.4725 5.4521 -0.991082 -9.89073 6.74166 -0.999145 
-7.28795 7.81062 -1.11362 -4.81629 8.50241 -1.38127 -2.47116 8.83167 -1.86072 
-16.5836 3.06886 0.139068 -15.0953 4.39652 0.879809 -15.3171 4.39242 0.206188 
-13.1781 5.90949 1.66605 -13.6137 5.86135 0.994537 -13.6355 5.8306 0.296364 
-11.0685 7.50218 2.40961 -11.5618 7.48617 1.76099 -11.7584 7.42021 1.01747 
-11.4966 7.26032 0.26358 -8.97458 8.79157 2.93462 -9.42173 8.94183 2.3521 
-9.70616 8.95658 1.62103 -9.6122 8.78382 0.803218 -9.08889 8.45371 0.031494 
-6.85656 9.52298 3.13505 -7.24165 9.86556 2.64677 -7.58703 10.0815 2.00108 
-7.6597 10.0433 1.19107 -7.29498 9.72004 0.353123 -6.61416 9.26026 -0.353568 
-4.66793 9.79414 3.07879 -4.94002 10.2523 2.67493 -5.27992 10.6586 2.14009 
[...]
POINT_DATA 1002
FIELD FieldData 4
_paraPhi 1 1002 double
6.2831853072 3.1415926536 6.2831853072 3.1415926536 4.7123889804 4.7123889804 1.5707963268 1.5707963268 3.6951670125 
5.7296109483 2.5880182947 0.5535743589 6.2831853072 6.2831853072 6.2831853072 6.2831853072 3.1415926536 3.1415926536 
3.1415926536 3.1415926536 3.1415926536 6.1053039672 5.898798347 5.6768734901 5.4599499503 5.2659633393 5.1032165617 
4.9713148346 4.8656852733 4.7809517865 0.17788134 0.38438696014 0.60631181711 0.82323535693 1.0172219679 1.1799687454 
1.3118704726 1.4175000338 1.5022335207 6.1892828907 6.1070320098 6.035312792 5.9728339911 5.9183214791 5.8706119594 
5.8286879411 5.7916808611 5.7588591896 0.093902416448 0.17615329733 0.2478725152 0.31035131605 0.36486382811 0.41257334776 
0.45449736604 0.4915044461 0.52432611754 3.3194739936 3.5259796137 3.7479044707 3.9648280105 4.1588146215 4.321561399 
4.4534631262 4.5590926874 4.6438261743 2.9637113136 2.7572056934 2.5352808365 2.3183572967 2.1243706857 1.9616239082 
1.829722181 1.7240926197 1.6393591329 3.23549507 3.3177459509 3.3894651688 3.4519439696 3.5064564817 3.5541660013 
3.5960900196 3.6330970997 3.6659187711 3.0476902371 2.9654393563 2.8937201384 2.8312413375 2.7767288255 2.7290193058 
2.6870952876 2.6500882075 2.617266536 6.2831853072 6.2831853072 6.2831853072 6.2831853072 3.1415926536 3.1415926536 
3.1415926536 3.1415926536 3.1415926536 6.1053039672 5.898798347 5.6768734901 5.4599499503 5.2659633393 5.1032165617 
4.9713148346 4.8656852733 4.7809517865 0.17788134 0.38438696014 0.60631181711 0.82323535693 1.0172219679 1.1799687454 
1.3118704726 1.4175000338 1.5022335207 6.1892828907 6.1070320098 6.035312792 5.9728339911 5.9183214791 5.8706119594 
5.8286879411 5.7916808611 5.7588591896 0.093902416448 0.17615329733 0.2478725152 0.31035131605 0.36486382811 0.41257334776 
0.45449736604 0.4915044461 0.52432611754 3.3194739936 3.5259796137 3.7479044707 3.9648280105 4.1588146215 4.321561399 
4.4534631262 4.5590926874 4.6438261743 2.9637113136 2.7572056934 2.5352808365 2.3183572967 2.1243706857 1.9616239082 
1.829722181 1.7240926197 1.6393591329 3.23549507 3.3177459509 3.3894651688 3.4519439696 3.5064564817 3.5541660013 
3.5960900196 3.6330970997 3.6659187711 3.0476902371 2.9654393563 2.8937201384 2.8312413375 2.7767288255 2.7290193058 
2.6870952876 2.6500882075 2.617266536 4.7123889804 4.7123889804 4.7123889804 4.7123889804 4.7123889804 4.7123889804 
4.7123889804 4.7123889804 4.7123889804 4.6087898617 4.4991390697 4.3857031936 4.2712800401 4.1588146215 4.0509635631 
3.94975894 3.8564636551 3.7716124825 4.8159880991 4.9256388911 5.0390747672 5.1534979207 5.2659633393 5.3738143976 
5.4750190208 5.5683143056 5.6531654782 4.6087898617 4.4991390697 4.3857031936 4.2712800401 4.1588146215 4.0509635631 
3.94975894 3.8564636551 3.7716124825 4.8159880991 4.9256388911 5.0390747672 5.1534979207 5.2659633393 5.3738143976 
5.4750190208 5.5683143056 5.6531654782 1.5707963268 1.5707963268 1.5707963268 1.5707963268 1.5707963268 1.5707963268 
1.5707963268 1.5707963268 1.5707963268 1.6743954455 1.7840462375 1.8974821136 2.0119052671 2.1243706857 2.232221744 
2.3334263672 2.426721652 2.5115728246 1.4671972081 1.3575464161 1.24411054 1.1296873865 1.0172219679 0.90937090954 
0.80816628637 0.71487100155 0.63001982895 1.6743954455 1.7840462375 1.8974821136 2.0119052671 2.1243706857 2.232221744 
2.3334263672 2.426721652 2.5115728246 1.4671972081 1.3575464161 1.24411054 1.1296873865 1.0172219679 0.90937090954 
0.80816628637 0.71487100155 0.63001982895 3.6007720849 3.4966939854 3.3839471039 3.2645756454 3.1415926536 3.0186096618 
2.8992382033 2.7864913217 2.6824132222 5.8240058758 5.9280839753 6.0408308569 6.1602023154 6.2831853072 0.12298299178 
0.2423544503 0.35510133185 0.45917943135 6.0560271438 5.7885595667 5.9702140275 5.5125918794 5.6029703303 5.7885595667 
5.2659633393 5.2659633393 5.2659633393 5.2659633393 5.0674903122 5.0120975802 4.9155579264 4.7123889804 4.1588146215 
4.9155579264 4.8353719722 4.7123889804 4.5092200343 4.1588146215 3.6362183941 4.8004512023 4.7123889804 4.5894059886 
4.4126803806 4.1588146215 3.8218076305 3.4545639333 4.7123889804 4.6243267584 4.5092200343 4.3572876485 4.1588146215 
3.9121860814 3.6362183941 3.368750817 6.0174235957 5.9434319871 5.8263323547 5.8809213739 5.7674481418 5.6279784266 
5.8278025282 5.718968232 5.5891129425 5.4372443565 5.7823484065 5.678536687 5.5575666702 5.4192596322 5.2659633393 
5.743164462 5.6444075337 5.5314983644 5.4046708639 5.2659633393 5.1195510325 5.7091357773 5.6152775188 5.5096229709 
5.3926039573 5.2659633393 5.1329233157 4.9978930058 5.6793730533 5.5901633916 5.4910209005 5.3824597928 5.2659633393 
5.1440684722 5.0201624502 4.8979782167 5.5683143056 5.4750190208 5.4750190208 5.3738143976 5.3738143976 5.3738143976 
5.2659633393 5.2659633393 5.2659633393 5.2659633393 5.1534979207 5.1534979207 5.1534979207 5.1534979207 5.1534979207 
5.0390747672 5.0390747672 5.0390747672 5.0390747672 5.0390747672 5.0390747672 4.9256388911 4.9256388911 4.9256388911 
4.9256388911 4.9256388911 4.9256388911 4.9256388911 4.8159880991 4.8159880991 4.8159880991 4.8159880991 4.8159880991 
4.8159880991 4.8159880991 4.8159880991 4.6087898617 4.6087898617 4.4991390697 4.6087898617 4.4991390697 4.3857031936 
4.6087898617 4.4991390697 4.3857031936 4.2712800401 4.6087898617 4.4991390697 4.3857031936 4.2712800401 4.1588146215 
4.6087898617 4.4991390697 4.3857031936 4.2712800401 4.1588146215 4.0509635631 4.6087898617 4.4991390697 4.3857031936 
4.2712800401 4.1588146215 4.0509635631 3.94975894 4.6087898617 4.4991390697 4.3857031936 4.2712800401 4.1588146215 
4.0509635631 3.94975894 3.8564636551 4.526799744 4.4046155105 4.426884955 4.2807094886 4.2918546451 4.3052269283 
4.1588146215 4.1588146215 4.1588146215 4.1588146215 4.042318168 4.0321740035 4.0201070968 4.0055183285 3.9875336042 
3.9337570603 3.9151549899 3.8932795963 3.8672112905 3.8356650183 3.7967995342 3.8346145692 3.809500442 3.7803704271 
3.7462412737 3.7058097288 3.657329819 3.5984456061 3.7454049075 3.7156421835 3.6816134988 3.6424295543 3.5969754326 
3.5438565869 3.4813459737 3.4073543651 3.5642842451 3.4524645613 3.5233842518 3.3320300872 3.403123212 3.4773852225 
3.20576226 3.2746326772 3.348015857 3.4255060145 3.0774230472 3.1415926536 3.2112816139 3.2864685043 3.3668817272 
2.95115522 3.00855263 3.0719036933 3.1415926536 3.2178377658 3.3005964304 2.8307207459 2.8800620952 2.9351694502 
2.9967168029 3.0653475414 3.1415926536 3.225752376 2.718901062 2.7598010554 2.8058000847 2.8576792927 2.91630358 
2.9825888767 3.0574329311 3.1415926536 3.5642842451 3.5233842518 3.4524645613 3.4773852225 3.403123212 3.3320300872 
3.4255060145 3.348015857 3.2746326772 3.20576226 3.3668817272 3.2864685043 3.2112816139 3.1415926536 3.0774230472 
3.3005964304 3.2178377658 3.1415926536 3.0719036933 3.00855263 2.95115522 3.225752376 3.1415926536 3.0653475414 
2.9967168029 2.9351694502 2.8800620952 2.8307207459 3.1415926536 3.0574329311 2.9825888767 2.91630358 2.8576792927 
2.8058000847 2.7598010554 2.718901062 4.526799744 4.426884955 4.4046155105 4.3052269283 4.2918546451 4.2807094886 
4.1588146215 4.1588146215 4.1588146215 4.1588146215 3.9875336042 4.0055183285 4.0201070968 4.0321740035 4.042318168 
3.7967995342 3.8356650183 3.8672112905 3.8932795963 3.9151549899 3.9337570603 3.5984456061 3.657329819 3.7058097288 
3.7462412737 3.7803704271 3.809500442 3.8346145692 3.4073543651 3.4813459737 3.5438565869 3.5969754326 3.6424295543 
3.6816134988 3.7156421835 3.7454049075 4.7123889804 4.8004512023 4.6243267584 4.9155579264 4.7123889804 4.5092200343 
5.0674903122 4.8353719722 4.5894059886 4.3572876485 5.2659633393 5.0120975802 4.7123889804 4.4126803806 4.1588146215 
5.5125918794 5.2659633393 4.9155579264 4.5092200343 4.1588146215 3.9121860814 5.7885595667 5.6029703303 5.2659633393 
4.7123889804 4.1588146215 3.8218076305 3.6362183941 6.0560271438 5.9702140275 5.7885595667 5.2659633393 4.1588146215 
3.6362183941 3.4545639333 3.368750817 0.22715816343 0.49462574053 0.3129712797 0.77059342779 0.68021497688 0.49462574053 
1.0172219679 1.0172219679 1.0172219679 1.0172219679 1.2156949949 1.271087727 1.3676273807 1.5707963268 2.1243706857 
1.3676273807 1.447813335 1.5707963268 1.7739652728 2.1243706857 2.6469669131 1.4827341049 1.5707963268 1.6937793186 
1.8705049266 2.1243706857 2.4613776767 2.8286213739 1.5707963268 1.6588585487 1.7739652728 1.9258976586 2.1243706857 
2.3709992258 2.6469669131 2.9144344902 1.7563855631 1.8785697967 1.8563003522 2.0024758186 1.9913306621 1.9779583789 
2.1243706857 2.1243706857 2.1243706857 2.1243706857 2.2408671392 2.2510113037 2.2630782103 2.2776669786 2.295651703 
2.3494282469 2.3680303173 2.3899057108 2.4159740166 2.4475202889 2.486385773 2.448570738 2.4736848652 2.5028148801 
2.5369440334 2.5773755784 2.6258554882 2.6847397011 2.5377803997 2.5675431237 2.6015718084 2.6407557529 2.6862098746 
2.7393287203 2.8018393335 2.8758309421 1.6743954455 1.6743954455 1.7840462375 1.6743954455 1.7840462375 1.8974821136 
1.6743954455 1.7840462375 1.8974821136 2.0119052671 1.6743954455 1.7840462375 1.8974821136 2.0119052671 2.1243706857 
1.6743954455 1.7840462375 1.8974821136 2.0119052671 2.1243706857 2.232221744 1.6743954455 1.7840462375 1.8974821136 
2.0119052671 2.1243706857 2.232221744 2.3334263672 1.6743954455 1.7840462375 1.8974821136 2.0119052671 2.1243706857 
2.232221744 2.3334263672 2.426721652 1.4671972081 1.3575464161 1.4671972081 1.24411054 1.3575464161 1.4671972081 
1.1296873865 1.24411054 1.3575464161 1.4671972081 1.0172219679 1.1296873865 1.24411054 1.3575464161 1.4671972081 
0.90937090954 1.0172219679 1.1296873865 1.24411054 1.3575464161 1.4671972081 0.80816628637 0.90937090954 1.0172219679 
1.1296873865 1.24411054 1.3575464161 1.4671972081 0.71487100155 0.80816628637 0.90937090954 1.0172219679 1.1296873865 
1.24411054 1.3575464161 1.4671972081 0.60381225391 0.57404952988 0.69302191562 0.54002084522 0.66790778838 0.79216440667 
0.50083690068 0.63877777351 0.77356233629 0.90072551443 0.45538277901 0.60464862014 0.75168694275 0.89058134991 1.0172219679 
0.40226393329 0.56421707518 0.72561863695 0.87851444325 1.0172219679 1.139116835 0.33975332011 0.51573716537 0.69407236469 
0.86392567495 1.0172219679 1.1502619915 1.2630228569 0.26576171152 0.45685295248 0.6552068806 0.84594095064 1.0172219679 
1.1636342747 1.2852923014 1.3852070904 0.22715816343 0.3129712797 0.49462574053 0.49462574053 0.68021497688 0.77059342779 
1.0172219679 1.0172219679 1.0172219679 1.0172219679 2.1243706857 1.5707963268 1.3676273807 1.271087727 1.2156949949 
2.6469669131 2.1243706857 1.7739652728 1.5707963268 1.447813335 1.3676273807 2.8286213739 2.4613776767 2.1243706857 
1.8705049266 1.6937793186 1.5707963268 1.4827341049 2.9144344902 2.6469669131 2.3709992258 2.1243706857 1.9258976586 
1.7739652728 1.6588585487 1.5707963268 1.7563855631 1.8563003522 1.8785697967 1.9779583789 1.9913306621 2.0024758186 
2.1243706857 2.1243706857 2.1243706857 2.1243706857 2.295651703 2.2776669786 2.2630782103 2.2510113037 2.2408671392 
2.486385773 2.4475202889 2.4159740166 2.3899057108 2.3680303173 2.3494282469 2.6847397011 2.6258554882 2.5773755784 
2.5369440334 2.5028148801 2.4736848652 2.448570738 2.8758309421 2.8018393335 2.7393287203 2.6862098746 2.6407557529 
2.6015718084 2.5675431237 2.5377803997 5.8604937156 5.901393709 5.9723133995 5.9473927383 6.0216547488 6.0927478736 
5.9992719463 6.0767621038 6.1501452836 6.2190157008 6.0578962336 6.1383094565 6.2134963469 0 0.064169606361 
6.1241815303 6.206940195 6.2831853072 0.069688960264 0.13304002361 0.19043743361 6.1990255847 0 0.07624511221 
0.14487585072 0.20642320337 0.26153055843 0.3108719077 0 0.084159722458 0.15900377685 0.22528907359 0.28391336087 
0.3357925689 0.38179159818 0.42269159155 5.8604937156 5.9723133995 5.901393709 6.0927478736 6.0216547488 5.9473927383 
6.2190157008 6.1501452836 6.0767621038 5.9992719463 0.064169606361 0 6.2134963469 6.1383094565 6.0578962336 
0.19043743361 0.13304002361 0.069688960264 6.2831853072 6.206940195 6.1241815303 0.3108719077 0.26153055843 0.20642320337 
0.14487585072 0.07624511221 6.2831853072 6.1990255847 0.42269159155 0.38179159818 0.3357925689 0.28391336087 0.22528907359 
0.15900377685 0.084159722458 0 5.6793730533 5.7091357773 5.5901633916 5.743164462 5.6152775188 5.4910209005 
5.7823484065 5.6444075337 5.5096229709 5.3824597928 5.8278025282 5.678536687 5.5314983644 5.3926039573 5.2659633393 
5.8809213739 5.718968232 5.5575666702 5.4046708639 5.2659633393 5.1440684722 5.9434319871 5.7674481418 5.5891129425 
5.4192596322 5.2659633393 5.1329233157 5.0201624502 6.0174235957 5.8263323547 5.6279784266 5.4372443565 5.2659633393 
5.1195510325 4.9978930058 4.8979782167 1.3852070904 1.2852923014 1.2630228569 1.1636342747 1.1502619915 1.139116835 
1.0172219679 1.0172219679 1.0172219679 1.0172219679 0.84594095064 0.86392567495 0.87851444325 0.89058134991 0.90072551443 
0.6552068806 0.69407236469 0.72561863695 0.75168694275 0.77356233629 0.79216440667 0.45685295248 0.51573716537 0.56421707518 
0.60464862014 0.63877777351 0.66790778838 0.69302191562 0.26576171152 0.33975332011 0.40226393329 0.45538277901 0.50083690068 
0.54002084522 0.57404952988 0.60381225391 
_paraPhiHalf 1 1002 double
0 3.1415926536 0 3.1415926536 1.5707963268 1.5707963268 1.5707963268 1.5707963268 2.5880182947 
0.5535743589 2.5880182947 0.5535743589 0 0 0 0 3.1415926536 3.1415926536 
3.1415926536 3.1415926536 3.1415926536 0.17788134 0.38438696014 0.60631181711 0.82323535693 1.0172219679 1.1799687454 
1.3118704726 1.4175000338 1.5022335207 0.17788134 0.38438696014 0.60631181711 0.82323535693 1.0172219679 1.1799687454 
1.3118704726 1.4175000338 1.5022335207 0.093902416448 0.17615329733 0.2478725152 0.31035131605 0.36486382811 0.41257334776 
0.45449736604 0.4915044461 0.52432611754 0.093902416448 0.17615329733 0.2478725152 0.31035131605 0.36486382811 0.41257334776 
0.45449736604 0.4915044461 0.52432611754 2.9637113136 2.7572056934 2.5352808365 2.3183572967 2.1243706857 1.9616239082 
1.829722181 1.7240926197 1.6393591329 2.9637113136 2.7572056934 2.5352808365 2.3183572967 2.1243706857 1.9616239082 
1.829722181 1.7240926197 1.6393591329 3.0476902371 2.9654393563 2.8937201384 2.8312413375 2.7767288255 2.7290193058 
2.6870952876 2.6500882075 2.617266536 3.0476902371 2.9654393563 2.8937201384 2.8312413375 2.7767288255 2.7290193058 
2.6870952876 2.6500882075 2.617266536 0 0 0 0 3.1415926536 3.1415926536 
3.1415926536 3.1415926536 3.1415926536 0.17788134 0.38438696014 0.60631181711 0.82323535693 1.0172219679 1.1799687454 
1.3118704726 1.4175000338 1.5022335207 0.17788134 0.38438696014 0.60631181711 0.82323535693 1.0172219679 1.1799687454 
1.3118704726 1.4175000338 1.5022335207 0.093902416448 0.17615329733 0.2478725152 0.31035131605 0.36486382811 0.41257334776 
0.45449736604 0.4915044461 0.52432611754 0.093902416448 0.17615329733 0.2478725152 0.31035131605 0.36486382811 0.41257334776 
0.45449736604 0.4915044461 0.52432611754 2.9637113136 2.7572056934 2.5352808365 2.3183572967 2.1243706857 1.9616239082 
1.829722181 1.7240926197 1.6393591329 2.9637113136 2.7572056934 2.5352808365 2.3183572967 2.1243706857 1.9616239082 
1.829722181 1.7240926197 1.6393591329 3.0476902371 2.9654393563 2.8937201384 2.8312413375 2.7767288255 2.7290193058 
2.6870952876 2.6500882075 2.617266536 3.0476902371 2.9654393563 2.8937201384 2.8312413375 2.7767288255 2.7290193058 
2.6870952876 2.6500882075 2.617266536 1.5707963268 1.5707963268 1.5707963268 1.5707963268 1.5707963268 1.5707963268 
1.5707963268 1.5707963268 1.5707963268 1.6743954455 1.7840462375 1.8974821136 2.0119052671 2.1243706857 2.232221744 
2.3334263672 2.426721652 2.5115728246 1.4671972081 1.3575464161 1.24411054 1.1296873865 1.0172219679 0.90937090954 
0.80816628637 0.71487100155 0.63001982895 1.6743954455 1.7840462375 1.8974821136 2.0119052671 2.1243706857 2.232221744 
2.3334263672 2.426721652 2.5115728246 1.4671972081 1.3575464161 1.24411054 1.1296873865 1.0172219679 0.90937090954 
0.80816628637 0.71487100155 0.63001982895 1.5707963268 1.5707963268 1.5707963268 1.5707963268 1.5707963268 1.5707963268 
1.5707963268 1.5707963268 1.5707963268 1.6743954455 1.7840462375 1.8974821136 2.0119052671 2.1243706857 2.232221744 
2.3334263672 2.426721652 2.5115728246 1.4671972081 1.3575464161 1.24411054 1.1296873865 1.0172219679 0.90937090954 
0.80816628637 0.71487100155 0.63001982895 1.6743954455 1.7840462375 1.8974821136 2.0119052671 2.1243706857 2.232221744 
2.3334263672 2.426721652 2.5115728246 1.4671972081 1.3575464161 1.24411054 1.1296873865 1.0172219679 0.90937090954 
0.80816628637 0.71487100155 0.63001982895 2.6824132222 2.7864913217 2.8992382033 3.0186096618 3.1415926536 3.0186096618 
2.8992382033 2.7864913217 2.6824132222 0.45917943135 0.35510133185 0.2423544503 0.12298299178 0 0.12298299178 
0.2423544503 0.35510133185 0.45917943135 0.22715816343 0.49462574053 0.3129712797 0.77059342779 0.68021497688 0.49462574053 
1.0172219679 1.0172219679 1.0172219679 1.0172219679 1.2156949949 1.271087727 1.3676273807 1.5707963268 2.1243706857 
1.3676273807 1.447813335 1.5707963268 1.7739652728 2.1243706857 2.6469669131 1.4827341049 1.5707963268 1.6937793186 
1.8705049266 2.1243706857 2.4613776767 2.8286213739 1.5707963268 1.6588585487 1.7739652728 1.9258976586 2.1243706857 
2.3709992258 2.6469669131 2.9144344902 0.26576171152 0.33975332011 0.45685295248 0.40226393329 0.51573716537 0.6552068806 
0.45538277901 0.56421707518 0.69407236469 0.84594095064 0.50083690068 0.60464862014 0.72561863695 0.86392567495 1.0172219679 
0.54002084522 0.63877777351 0.75168694275 0.87851444325 1.0172219679 1.1636342747 0.57404952988 0.66790778838 0.77356233629 
0.89058134991 1.0172219679 1.1502619915 1.2852923014 0.60381225391 0.69302191562 0.79216440667 0.90072551443 1.0172219679 
1.139116835 1.2630228569 1.3852070904 0.71487100155 0.80816628637 0.80816628637 0.90937090954 0.90937090954 0.90937090954 
1.0172219679 1.0172219679 1.0172219679 1.0172219679 1.1296873865 1.1296873865 1.1296873865 1.1296873865 1.1296873865 
1.24411054 1.24411054 1.24411054 1.24411054 1.24411054 1.24411054 1.3575464161 1.3575464161 1.3575464161 
1.3575464161 1.3575464161 1.3575464161 1.3575464161 1.4671972081 1.4671972081 1.4671972081 1.4671972081 1.4671972081 
1.4671972081 1.4671972081 1.4671972081 1.6743954455 1.6743954455 1.7840462375 1.6743954455 1.7840462375 1.8974821136 
1.6743954455 1.7840462375 1.8974821136 2.0119052671 1.6743954455 1.7840462375 1.8974821136 2.0119052671 2.1243706857 
1.6743954455 1.7840462375 1.8974821136 2.0119052671 2.1243706857 2.232221744 1.6743954455 1.7840462375 1.8974821136 
2.0119052671 2.1243706857 2.232221744 2.3334263672 1.6743954455 1.7840462375 1.8974821136 2.0119052671 2.1243706857 
2.232221744 2.3334263672 2.426721652 1.7563855631 1.8785697967 1.8563003522 2.0024758186 1.9913306621 1.9779583789 
2.1243706857 2.1243706857 2.1243706857 2.1243706857 2.2408671392 2.2510113037 2.2630782103 2.2776669786 2.295651703 
2.3494282469 2.3680303173 2.3899057108 2.4159740166 2.4475202889 2.486385773 2.448570738 2.4736848652 2.5028148801 
2.5369440334 2.5773755784 2.6258554882 2.6847397011 2.5377803997 2.5675431237 2.6015718084 2.6407557529 2.6862098746 
2.7393287203 2.8018393335 2.8758309421 2.718901062 2.8307207459 2.7598010554 2.95115522 2.8800620952 2.8058000847 
3.0774230472 3.00855263 2.9351694502 2.8576792927 3.0774230472 3.1415926536 3.0719036933 2.9967168029 2.91630358 
2.95115522 3.00855263 3.0719036933 3.1415926536 3.0653475414 2.9825888767 2.8307207459 2.8800620952 2.9351694502 
2.9967168029 3.0653475414 3.1415926536 3.0574329311 2.718901062 2.7598010554 2.8058000847 2.8576792927 2.91630358 
2.9825888767 3.0574329311 3.1415926536 2.718901062 2.7598010554 2.8307207459 2.8058000847 2.8800620952 2.95115522 
2.8576792927 2.9351694502 3.00855263 3.0774230472 2.91630358 2.9967168029 3.0719036933 3.1415926536 3.0774230472 
2.9825888767 3.0653475414 3.1415926536 3.0719036933 3.00855263 2.95115522 3.0574329311 3.1415926536 3.0653475414 