# vtk DataFile Version 5.1
vtk output
ASCII
DATASET POLYDATA
POINTS 1002 float
-13.0719 0.844559 -2.59275 13.8434 0.848837 -4.22142 -11.4115 2.50568 4.67993 
11.0179 -0.444213 4.57055 0.744355 12.0501 -2.67857 -1.18902 11.8741 3.66761 
0.455619 2.23277 -0.026416 0.934366 1.12035 2.1279 20.3792 -1.668 -1.84923 
-18.7648 -2.67648 -0.77777 20.0734 -12.8269 -1.44198 -21.5231 -14.2913 -0.871692 
-11.4368 2.48951 -1.96958 -9.51887 3.99946 -1.38524 -7.22574 5.2443 -0.871398 
-4.49276 5.99227 -0.684281 -1.3159 5.99439 -1.21415 2.22097 5.2844 -2.43095 
5.8655 4.20761 -3.70547 9.20811 3.06686 -4.43521 11.8988 1.94745 -4.52795 
-12.0395 1.99733 -2.29695 -10.8826 3.31575 -1.95409 -9.54034 4.83012 -1.62378 
-7.90911 6.424 -1.41189 -6.04767 7.90779 -1.42981 -4.23001 9.20366 -1.68322 
-2.67266 10.303 -2.0305 -1.37078 11.1479 -2.31956 -0.242964 11.7086 -2.51941 
-13.0695 0.814503 -2.40025 -12.9058 0.819898 -2.13682 -12.396 0.905533 -1.85837 
-11.4768 1.2049 -1.51346 -10.2735 1.74809 -0.980289 -8.84624 2.33807 -0.30259 
-7.03172 2.74578 0.262934 -4.7232 2.87885 0.493462 -2.11291 2.71046 0.360225 
-14.0359 -0.215549 -3.08714 -15.0647 -1.3029 -3.5695 -16.0224 -2.24104 -4.01007 
-16.7622 -2.90488 -4.35296 -17.3524 -3.31651 -4.40981 -17.9564 -3.57512 -3.99336 
-18.525 -3.70239 -3.19377 -18.8781 -3.62148 -2.29664 -18.9464 -3.27012 -1.48414 
-14.6552 -1.06859 -3.22158 -16.2579 -3.34726 -3.8994 -17.7335 -5.78644 -4.38629 
-18.9644 -8.13926 -4.51336 -19.9385 -10.3847 -4.38492 -20.6945 -12.5621 -4.11605 
-21.2239 -14.3525 -3.57448 -21.5078 -15.2601 -2.68929 -21.5857 -15.1465 -1.69334 
12.8662 1.83157 -4.49269 11.7417 2.90877 -4.78878 10.5285 4.03877 -5.09453 
9.20421 5.23368 -5.27668 7.763 6.54058 -5.22636 6.2886 7.93272 -4.97351 
4.85635 9.27971 -4.57561 3.46562 10.4463 -4.03449 2.09496 11.3689 -3.37559 
13.6388 0.621434 -4.19917 13.1831 0.463634 -4.11088 12.3592 0.412324 -3.88423 
11.1581 0.489868 -3.54944 9.68373 0.701598 -3.16742 7.99451 1.04025 -2.68768 
6.09314 1.45402 -2.04141 4.09177 1.83969 -1.29978 2.17945 2.10882 -0.601102 
14.8269 0.307541 -3.95892 15.71 -0.253472 -3.73021 16.6145 -0.766718 -3.57091 
17.554 -1.20737 -3.46279 18.3832 -1.59444 -3.43456 19.0407 -1.88747 -3.47301 
19.6616 -2.00564 -3.3844 20.2597 -1.96178 -3.00244 20.5755 -1.83861 -2.42095 
15.2477 -0.481977 -3.64751 16.3006 -1.99181 -2.76913 17.0838 -3.68168 -1.79712 
17.9395 -5.50635 -1.27765 18.9981 -7.30601 -1.58207 19.9044 -8.92958 -2.31273 
20.3264 -10.37 -2.70741 20.3677 -11.6069 -2.51258 20.2642 -12.4747 -2.00103 
-9.42118 3.5837 5.08382 -7.28907 4.48023 5.53178 -4.89717 5.10089 5.73607 
-2.06662 5.38981 5.34381 1.0867 5.21593 4.48124 3.99714 4.43302 3.81755 
6.19606 3.17021 3.80324 7.8381 1.80358 4.1935 9.38008 0.592595 4.50831 
-10.4147 3.35 4.96982 -9.22326 4.38786 5.31251 -7.99048 5.63319 5.75738 
-6.87664 6.99647 6.16615 -5.89141 8.32234 6.28756 -4.97305 9.49526 6.05706 
-4.10431 10.4612 5.61688 -3.22975 11.1819 5.0632 -2.25673 11.6421 4.40208 
-10.9847 2.47473 4.55299 -10.304 2.49001 4.3588 -9.45376 2.47807 4.22779 
-8.54695 2.41358 4.22347 -7.51273 2.35671 4.14585 -6.15464 2.34688 3.73129 
-4.45719 2.30705 3.07498 -2.61314 2.11162 2.5338 -0.792625 1.70366 2.26419 
-12.8227 1.80408 4.45501 -14.271 1.02121 4.07535 -15.6626 0.147361 3.48509 
-16.8819 -0.832378 2.69801 -17.8775 -1.82847 1.79276 -18.6474 -2.67058 0.924432 
-19.1285 -3.23593 0.265154 -19.2546 -3.44658 -0.156233 -19.0884 -3.24589 -0.464871 
-13.2492 1.20309 4.2425 -15.2749 -0.382758 3.62271 -17.3754 -2.23191 2.70173 
-19.3059 -4.27174 1.6166 -20.8168 -6.43214 0.70415 -21.8256 -8.64871 0.153142 
-22.3555 -10.7713 -0.118376 -22.4181 -12.5444 -0.289779 -22.0824 -13.741 -0.51396 
10.2848 0.586167 4.58207 9.44648 1.67012 4.35965 8.54381 2.82145 3.84364 
7.54928 4.14035 3.19746 6.31595 5.65842 2.77526 4.73901 7.22413 2.77058 
2.96574 8.66409 3.03317 1.29734 9.92879 3.31991 -0.083551 11.0103 3.5292 
10.6239 -0.82002 4.44501 10.1607 -1.09221 4.20172 9.65487 -1.17209 3.84581 
9.10117 -1.08268 3.41156 8.36713 -0.881703 2.97685 7.26314 -0.551254 2.60867 
5.77487 -0.0931057 2.32292 4.10075 0.390716 2.13241 2.45282 0.804794 2.06772 
12.3747 -0.819836 4.53992 13.8872 -1.22839 4.46255 15.4293 -1.61239 4.35174 
16.8837 -1.87658 4.00542 18.1683 -2.0323 3.1531 19.2485 -2.17601 1.88178 
20.1034 -2.29727 0.617368 20.641 -2.27936 -0.377705 20.7356 -2.06021 -1.16141 
12.5489 -1.7386 4.42268 14.1494 -3.20972 4.19527 15.6265 -4.82993 3.97421 
16.8529 -6.51361 3.71847 17.8574 -8.1746 3.2283 18.7779 -9.7484 2.3595 
19.624 -11.1224 1.24915 20.1797 -12.1344 0.18975 20.2888 -12.6909 -0.684016 
0.408785 12.61 -2.33754 -0.088412 13.2907 -1.92625 -0.687389 14.0349 -1.3025 
-1.2157 14.6011 -0.34944 -1.46465 14.731 0.816875 -1.38699 14.4015 1.85285 
-1.17991 13.8004 2.52578 -1.07561 13.1179 2.92955 -1.11508 12.4603 3.28135 
2.57922 11.7734 -3.23867 4.51135 11.0322 -3.69541 6.53414 9.80167 -3.9763 
8.82148 8.28385 -4.05531 11.3702 6.69466 -3.94456 13.7643 4.97544 -3.68498 
15.6922 3.0282 -3.32005 17.3297 1.07882 -2.87569 18.9132 -0.523845 -2.37655 
-1.2506 12.2921 -1.82993 -3.32618 12.1169 -0.973454 -5.41747 11.3722 -0.283562 
-7.7052 9.93089 0.174374 -10.3707 7.89376 0.362782 -13.1102 5.63375 0.201571 
-15.323 3.44877 -0.203985 -16.8089 1.34461 -0.545514 -17.8546 -0.729107 -0.688024 
0.667112 11.2907 2.69566 2.79214 10.1669 1.49396 5.11389 8.70187 0.441443 
7.54171 7.24627 -0.0677809 9.94626 5.8524 -0.196624 12.2525 4.23528 -0.464018 
14.5199 2.3548 -0.963018 16.7667 0.591318 -1.39852 18.8047 -0.74098 -1.65802 
-2.88661 12.3299 4.17066 -4.61281 12.343 4.55147 -6.29818 11.887 4.82101 
-7.94129 10.7805 4.77293 -9.76194 8.77959 4.10128 -11.972 6.11627 2.91728 
-14.3335 3.4695 1.71664 -16.3412 1.20919 0.766953 -17.775 -0.791857 -0.0245456 
0.969112 1.86771 0.0198169 1.4415 1.48331 0.114933 1.83234 1.10957 0.230505 
2.15637 0.805308 0.349653 2.36774 0.627076 0.561574 2.31899 0.574692 0.967851 
1.97184 0.610582 1.47958 1.51002 0.71871 1.8821 1.14268 0.896234 2.07623 
4.01672 1.19612 -0.998941 7.50467 -0.548733 -2.10016 10.586 -2.7282 -2.88908 
13.167 -5.09271 -3.30314 15.2142 -7.59325 -3.65708 16.6517 -9.99851 -3.93984 
17.6203 -11.7525 -3.74775 18.449 -12.5911 -3.02678 19.2901 -12.8155 -2.16453 
-2.826 2.37011 0.576945 -6.20513 1.75413 0.669706 -9.38598 0.307106 0.300375 
-12.1731 -1.84264 -0.255549 -14.5176 -4.45779 -0.807953 -16.4214 -7.22324 -1.23902 
-17.9278 -9.76988 -1.36692 -19.1906 -11.8342 -1.18702 -20.3792 -13.3366 -0.955554 
3.57487 0.0652877 1.89237 6.28747 -1.45583 1.51593 8.88542 -3.3389 0.971683 
11.1777 -5.45719 0.466916 13.1308 -7.65222 0.199952 14.9009 -9.66963 0.0107287 
16.5847 -11.2445 -0.358132 18.0743 -12.2615 -0.842593 19.2378 -12.7565 -1.22569 
-1.74037 1.59716 2.38114 -4.81311 1.51602 2.69511 -8.14152 0.644885 2.89237 
-11.3561 -1.03 2.77005 -14.0914 -3.25413 2.27951 -16.2964 -5.69171 1.58063 
-18.1005 -8.12363 0.892326 -19.5447 -10.4427 0.30715 -20.6513 -12.5453 -0.24409 
21.9189 -2.72269 -1.58344 23.0285 -3.89163 -1.13894 23.5282 -5.34568 -0.394495 
23.6484 -7.02446 0.520154 23.6484 -8.73332 1.07507 23.4045 -10.3237 0.861028 
22.7528 -11.5993 0.126956 21.8573 -12.3709 -0.597038 20.9489 -12.7028 -1.09591 
-19.9054 -5.07493 -1.43455 -21.1548 -7.52464 -2.33035 -22.3739 -9.63107 -3.2454 
-23.4871 -11.3856 -3.79187 -24.4863 -13.1849 -3.80557 -25.1126 -15.0183 -3.43294 
-24.9566 -16.2232 -2.83025 -24.0253 -16.337 -2.09805 -22.7566 -15.5473 -1.39741 
-10.2517 3.63427 -1.71721 -8.93913 4.94584 -1.42906 -8.18496 5.10175 -1.16062 
-7.40685 6.38338 -1.21449 -6.69981 6.30585 -0.985326 -5.71606 6.17722 -0.800611 
-5.57355 7.72025 -1.30548 -4.94078 7.44651 -1.11987 -3.99736 7.04566 -1.02203 
-2.73542 6.54338 -1.08089 -3.6019 8.80563 -1.82037 -2.89805 8.30918 -1.8149 
-1.96217 7.6761 -1.80386 -0.71414 6.90807 -1.94441 0.719382 6.09484 -2.19143 
-1.79119 9.71727 -2.5257 -0.850414 8.96229 -2.86514 0.233417 8.07528 -3.04593 
1.52854 7.0903 -3.21008 2.94241 6.09352 -3.41159 4.37406 5.14003 -3.57837 
-0.263257 10.5001 -3.05569 0.913924 9.5905 -3.702 2.19584 8.48037 -4.13851 
3.61535 7.27747 -4.3926 5.0784 6.11549 -4.52785 6.45925 5.05662 -4.54415 
7.80713 4.05363 -4.4849 1.02231 11.0628 -3.29585 2.33834 10.1358 -4.03454 
3.71877 8.94663 -4.60826 5.19351 7.60355 -4.97904 6.71106 6.2798 -5.15693 
8.13115 5.08975 -5.12328 9.4214 4.0042 -4.92665 10.6761 2.95419 -4.70601 
-12.9968 1.1401 -2.65142 -13.9739 0.30526 -2.99078 -11.777 2.71483 -2.19177 
-14.8059 -0.391031 -3.35399 -12.6156 2.12459 -2.43996 -10.2763 4.47578 -1.81447 
-15.457 -0.890784 -3.65639 -13.299 1.58272 -2.73668 -10.9254 4.06273 -2.01125 
-8.45052 6.29102 -1.56117 -16.128 -1.19011 -3.62268 -13.9768 1.16226 -2.90576 
-11.5461 3.61172 -2.15851 -8.98313 6.05892 -1.63202 -6.5082 8.03338 -1.4249 
-16.9018 -1.30204 -3.10281 -14.8804 0.971656 -2.67546 -12.4057 3.26869 -2.04437 
-9.68063 5.75719 -1.51543 -7.07902 8.0523 -1.25439 -4.77849 9.60049 -1.40349 
-17.5609 -1.25135 -2.28452 -15.879 1.01258 -2.05108 -13.5824 3.18124 -1.56678 
-10.7524 5.53777 -1.10631 -7.92078 7.95405 -0.881003 -5.49666 9.8356 -0.976038 
-3.39014 10.8519 -1.48342 -17.8888 -1.05949 -1.43932 -16.5908 1.16188 -1.28039 
-14.6995 3.2924 -0.889012 -12.0559 5.51645 -0.476255 -9.10636 7.86302 -0.312622 
-6.48335 9.89672 -0.447497 -4.29121 11.1862 -0.887259 -2.25274 11.7188 -1.63353 
-16.7958 1.14365 0.109635 -15.1497 3.24169 1.062 -15.5603 3.28227 0.410788 
-12.8966 5.78741 2.24143 -13.6172 5.62788 1.53896 -13.7514 5.6131 0.854272 
-10.5038 8.59922 3.45014 -11.2449 8.39164 2.70064 -11.6428 8.20716 1.89617 
-11.3328 8.03096 1.10006 -8.45904 10.9319 4.22075 -9.03581 10.9563 3.52379 
-9.5036 10.8336 2.6793 -9.46433 10.551 1.76068 -8.75774 10.2007 0.895723 
-6.67793 12.2984 4.36461 -7.12372 12.6326 3.78634 -7.605 12.7995 3.02346 
-7.78374 12.6679 2.08571 -7.33404 12.2478 1.12955 -6.40033 11.7582 0.327449 
-4.84649 12.8816 4.15175 -5.16639 13.4119 3.68453 -5.62733 13.8594 3.04393 
-5.98769 14.0375 2.14827 -5.83681 13.7825 1.12043 -5.10398 13.2085 0.210808 
[...]
POINT_DATA 1002
FIELD FieldData 4
_paraPhi 1 1002 double
6.2831853072 3.1415926536 6.2831853072 3.1415926536 4.7123889804 4.7123889804 1.5707963268 1.5707963268 3.6951670125 
5.7296109483 2.5880182947 0.5535743589 6.2831853072 6.2831853072 6.2831853072 6.2831853072 3.1415926536 3.1415926536 
3.1415926536 3.1415926536 3.1415926536 6.1053039672 5.898798347 5.6768734901 5.4599499503 5.2659633393 5.1032165617 
4.9713148346 4.8656852733 4.7809517865 0.17788134 0.38438696014 0.60631181711 0.82323535693 1.0172219679 1.1799687454 
1.3118704726 1.4175000338 1.5022335207 6.1892828907 6.1070320098 6.035312792 5.9728339911 5.9183214791 5.8706119594 
5.8286879411 5.7916808611 5.7588591896 0.093902416448 0.17615329733 0.2478725152 0.31035131605 0.36486382811 0.41257334776 
0.45449736604 0.4915044461 0.52432611754 3.3194739936 3.5259796137 3.7479044707 3.9648280105 4.1588146215 4.321561399 
4.4534631262 4.5590926874 4.6438261743 2.9637113136 2.7572056934 2.5352808365 2.3183572967 2.1243706857 1.9616239082 
1.829722181 1.7240926197 1.6393591329 3.23549507 3.3177459509 3.3894651688 3.4519439696 3.5064564817 3.5541660013 
3.5960900196 3.6330970997 3.6659187711 3.0476902371 2.9654393563 2.8937201384 2.8312413375 2.7767288255 2.7290193058 
2.6870952876 2.6500882075 2.617266536 6.2831853072 6.2831853072 6.2831853072 6.2831853072 3.1415926536 3.1415926536 
3.1415926536 3.1415926536 3.1415926536 6.1053039672 5.898798347 5.6768734901 5.4599499503 5.2659633393 5.1032165617 
4.9713148346 4.8656852733 4.7809517865 0.17788134 0.38438696014 0.60631181711 0.82323535693 1.0172219679 1.1799687454 
1.3118704726 1.4175000338 1.5022335207 6.1892828907 6.1070320098 6.035312792 5.9728339911 5.9183214791 5.8706119594 
5.8286879411 5.7916808611 5.7588591896 0.093902416448 0.17615329733 0.2478725152 0.31035131605 0.36486382811 0.41257334776 
0.45449736604 0.4915044461 0.52432611754 3.3194739936 3.5259796137 3.7479044707 3.9648280105 4.1588146215 4.321561399 
4.4534631262 4.5590926874 4.6438261743 2.9637113136 2.7572056934 2.5352808365 2.3183572967 2.1243706857 1.9616239082 
1.829722181 1.7240926197 1.6393591329 3.23549507 3.3177459509 3.3894651688 3.4519439696 3.5064564817 3.5541660013 
3.5960900196 3.6330970997 3.6659187711 3.0476902371 2.9654393563 2.8937201384 2.8312413375 2.7767288255 2.7290193058 
2.6870952876 2.6500882075 2.617266536 4.7123889804 4.7123889804 4.7123889804 4.7123889804 4.7123889804 4.7123889804 
4.7123889804 4.7123889804 4.7123889804 4.6087898617 4.4991390697 4.3857031936 4.2712800401 4.1588146215 4.0509635631 
3.94975894 3.8564636551 3.7716124825 4.8159880991 4.9256388911 5.0390747672 5.1534979207 5.2659633393 5.3738143976 
5.4750190208 5.5683143056 5.6531654782 4.6087898617 4.4991390697 4.3857031936 4.2712800401 4.1588146215 4.0509635631 
3.94975894 3.8564636551 3.7716124825 4.8159880991 4.9256388911 5.0390747672 5.1534979207 5.2659633393 5.3738143976 
5.4750190208 5.5683143056 5.6531654782 1.5707963268 1.5707963268 1.5707963268 1.5707963268 1.5707963268 1.5707963268 
1.5707963268 1.5707963268 1.5707963268 1.6743954455 1.7840462375 1.8974821136 2.0119052671 2.1243706857 2.232221744 
2.3334263672 2.426721652 2.5115728246 1.4671972081 1.3575464161 1.24411054 1.1296873865 1.0172219679 0.90937090954 
0.80816628637 0.71487100155 0.63001982895 1.6743954455 1.7840462375 1.8974821136 2.0119052671 2.1243706857 2.232221744 
2.3334263672 2.426721652 2.5115728246 1.4671972081 1.3575464161 1.24411054 1.1296873865 1.0172219679 0.90937090954 
0.80816628637 0.71487100155 0.63001982895 3.6007720849 3.4966939854 3.3839471039 3.2645756454 3.1415926536 3.0186096618 
2.8992382033 2.7864913217 2.6824132222 5.8240058758 5.9280839753 6.0408308569 6.1602023154 6.2831853072 0.12298299178 
0.2423544503 0.35510133185 0.45917943135 6.0560271438 5.7885595667 5.9702140275 5.5125918794 5.6029703303 5.7885595667 
5.2659633393 5.2659633393 5.2659633393 5.2659633393 5.0674903122 5.0120975802 4.9155579264 4.7123889804 4.1588146215 
4.9155579264 4.8353719722 4.7123889804 4.5092200343 4.1588146215 3.6362183941 4.8004512023 4.7123889804 4.5894059886 
4.4126803806 4.1588146215 3.8218076305 3.4545639333 4.7123889804 4.6243267584 4.5092200343 4.3572876485 4.1588146215 
3.9121860814 3.6362183941 3.368750817 6.0174235957 5.9434319871 5.8263323547 5.8809213739 5.7674481418 5.6279784266 
5.8278025282 5.718968232 5.5891129425 5.4372443565 5.7823484065 5.678536687 5.5575666702 5.4192596322 5.2659633393 
5.743164462 5.6444075337 5.5314983644 5.4046708639 5.2659633393 5.1195510325 5.7091357773 5.6152775188 5.5096229709 
5.3926039573 5.2659633393 5.1329233157 4.9978930058 5.6793730533 5.5901633916 5.4910209005 5.3824597928 5.2659633393 
5.1440684722 5.0201624502 4.8979782167 5.5683143056 5.4750190208 5.4750190208 5.3738143976 5.3738143976 5.3738143976 
5.2659633393 5.2659633393 5.2659633393 5.2659633393 5.1534979207 5.1534979207 5.1534979207 5.1534979207 5.1534979207 
5.0390747672 5.0390747672 5.0390747672 5.0390747672 5.0390747672 5.0390747672 4.9256388911 4.9256388911 4.9256388911 
4.9256388911 4.9256388911 4.9256388911 4.9256388911 4.8159880991 4.8159880991 4.8159880991 4.8159880991 4.8159880991 
4.8159880991 4.8159880991 4.8159880991 4.6087898617 4.6087898617 4.4991390697 4.6087898617 4.4991390697 4.3857031936 
4.6087898617 4.4991390697 4.3857031936 4.2712800401 4.6087898617 4.4991390697 4.3857031936 4.2712800401 4.1588146215 
4.6087898617 4.4991390697 4.3857031936 4.2712800401 4.1588146215 4.0509635631 4.6087898617 4.4991390697 4.3857031936 
4.2712800401 4.1588146215 4.0509635631 3.94975894 4.6087898617 4.4991390697 4.3857031936 4.2712800401 4.1588146215 
4.0509635631 3.94975894 3.8564636551 4.526799744 4.4046155105 4.426884955 4.2807094886 4.2918546451 4.3052269283 
4.1588146215 4.1588146215 4.1588146215 4.1588146215 4.042318168 4.0321740035 4.0201070968 4.0055183285 3.9875336042 
3.9337570603 3.9151549899 3.8932795963 3.8672112905 3.8356650183 3.7967995342 3.8346145692 3.809500442 3.7803704271 
3.7462412737 3.7058097288 3.657329819 3.5984456061 3.7454049075 3.7156421835 3.6816134988 3.6424295543 3.5969754326 
3.5438565869 3.4813459737 3.4073543651 3.5642842451 3.4524645613 3.5233842518 3.3320300872 3.403123212 3.4773852225 
3.20576226 3.2746326772 3.348015857 3.4255060145 3.0774230472 3.1415926536 3.2112816139 3.2864685043 3.3668817272 
2.95115522 3.00855263 3.0719036933 3.1415926536 3.2178377658 3.3005964304 2.8307207459 2.8800620952 2.9351694502 
2.9967168029 3.0653475414 3.1415926536 3.225752376 2.718901062 2.7598010554 2.8058000847 2.8576792927 2.91630358 
2.9825888767 3.0574329311 3.1415926536 3.5642842451 3.5233842518 3.4524645613 3.4773852225 3.403123212 3.3320300872 
3.4255060145 3.348015857 3.2746326772 3.20576226 3.3668817272 3.2864685043 3.2112816139 3.1415926536 3.0774230472 
3.3005964304 3.2178377658 3.1415926536 3.0719036933 3.00855263 2.95115522 3.225752376 3.1415926536 3.0653475414 
2.9967168029 2.9351694502 2.8800620952 2.8307207459 3.1415926536 3.0574329311 2.9825888767 2.91630358 2.8576792927 
2.8058000847 2.7598010554 2.718901062 4.526799744 4.426884955 4.4046155105 4.3052269283 4.2918546451 4.2807094886 
4.1588146215 4.1588146215 4.1588146215 4.1588146215 3.9875336042 4.0055183285 4.0201070968 4.0321740035 4.042318168 
3.7967995342 3.8356650183 3.8672112905 3.8932795963 3.9151549899 3.9337570603 3.5984456061 3.657329819 3.7058097288 
3.7462412737 3.7803704271 3.809500442 3.8346145692 3.4073543651 3.4813459737 3.5438565869 3.5969754326 3.6424295543 
3.6816134988 3.7156421835 3.7454049075 4.7123889804 4.8004512023 4.6243267584 4.9155579264 4.7123889804 4.5092200343 
5.0674903122 4.8353719722 4.5894059886 4.3572876485 5.2659633393 5.0120975802 4.7123889804 4.4126803806 4.1588146215 
5.5125918794 5.2659633393 4.9155579264 4.5092200343 4.1588146215 3.9121860814 5.7885595667 5.6029703303 5.2659633393 
4.7123889804 4.1588146215 3.8218076305 3.6362183941 6.0560271438 5.9702140275 5.7885595667 5.2659633393 4.1588146215 
3.6362183941 3.4545639333 3.368750817 0.22715816343 0.49462574053 0.3129712797 0.77059342779 0.68021497688 0.49462574053 
1.0172219679 1.0172219679 1.0172219679 1.0172219679 1.2156949949 1.271087727 1.3676273807 1.5707963268 2.1243706857 
1.3676273807 1.447813335 1.5707963268 1.7739652728 2.1243706857 2.6469669131 1.4827341049 1.5707963268 1.6937793186 
1.8705049266 2.1243706857 2.4613776767 2.8286213739 1.5707963268 1.6588585487 1.7739652728 1.9258976586 2.1243706857 
2.3709992258 2.6469669131 2.9144344902 1.7563855631 1.8785697967 1.8563003522 2.0024758186 1.9913306621 1.9779583789 
2.1243706857 2.1243706857 2.1243706857 2.1243706857 2.2408671392 2.2510113037 2.2630782103 2.2776669786 2.295651703 
2.3494282469 2.3680303173 2.3899057108 2.4159740166 2.4475202889 2.486385773 2.448570738 2.4736848652 2.5028148801 
2.5369440334 2.5773755784 2.6258554882 2.6847397011 2.5377803997 2.5675431237 2.6015718084 2.6407557529 2.6862098746 
2.7393287203 2.8018393335 2.8758309421 1.6743954455 1.6743954455 1.7840462375 1.6743954455 1.7840462375 1.8974821136 
1.6743954455 1.7840462375 1.8974821136 2.0119052671 1.6743954455 1.7840462375 1.8974821136 2.0119052671 2.1243706857 
1.6743954455 1.7840462375 1.8974821136 2.0119052671 2.1243706857 2.232221744 1.6743954455 1.7840462375 1.8974821136 
2.0119052671 2.1243706857 2.232221744 2.3334263672 1.6743954455 1.7840462375 1.8974821136 2.0119052671 2.1243706857 
2.232221744 2.3334263672 2.426721652 1.4671972081 1.3575464161 1.4671972081 1.24411054 1.3575464161 1.4671972081 
1.1296873865 1.24411054 1.3575464161 1.4671972081 1.0172219679 1.1296873865 1.24411054 1.3575464161 1.4671972081 
0.90937090954 1.0172219679 1.1296873865 1.24411054 1.3575464161 1.4671972081 0.80816628637 0.90937090954 1.0172219679 
1.1296873865 1.24411054 1.3575464161 1.4671972081 0.71487100155 0.80816628637 0.90937090954 1.0172219679 1.1296873865 
1.24411054 1.3575464161 1.4671972081 0.60381225391 0.57404952988 0.69302191562 0.54002084522 0.66790778838 0.79216440667 
0.50083690068 0.63877777351 0.77356233629 0.90072551443 0.45538277901 0.60464862014 0.75168694275 0.89058134991 1.0172219679 
0.40226393329 0.56421707518 0.72561863695 0.87851444325 1.0172219679 1.139116835 0.33975332011 0.51573716537 0.69407236469 
0.86392567495 1.0172219679 1.1502619915 1.2630228569 0.26576171152 0.45685295248 0.6552068806 0.84594095064 1.0172219679 
1.1636342747 1.2852923014 1.3852070904 0.22715816343 0.3129712797 0.49462574053 0.49462574053 0.68021497688 0.77059342779 
1.0172219679 1.0172219679 1.0172219679 1.0172219679 2.1243706857 1.5707963268 1.3676273807 1.271087727 1.2156949949 
2.6469669131 2.1243706857 1.7739652728 1.5707963268 1.447813335 1.3676273807 2.8286213739 2.4613776767 2.1243706857 
1.8705049266 1.6937793186 1.5707963268 1.4827341049 2.9144344902 2.6469669131 2.3709992258 2.1243706857 1.9258976586 
1.7739652728 1.6588585487 1.5707963268 1.7563855631 1.8563003522 1.8785697967 1.9779583789 1.9913306621 2.0024758186 
2.1243706857 2.1243706857 2.1243706857 2.1243706857 2.295651703 2.2776669786 2.2630782103 2.2510113037 2.2408671392 
2.486385773 2.4475202889 2.4159740166 2.3899057108 2.3680303173 2.3494282469 2.6847397011 2.6258554882 2.5773755784 
2.5369440334 2.5028148801 2.4736848652 2.448570738 2.8758309421 2.8018393335 2.7393287203 2.6862098746 2.6407557529 
2.6015718084 2.5675431237 2.5377803997 5.8604937156 5.901393709 5.9723133995 5.9473927383 6.0216547488 6.0927478736 
5.9992719463 6.0767621038 6.1501452836 6.2190157008 6.0578962336 6.1383094565 6.2134963469 0 0.064169606361 
6.1241815303 6.206940195 6.2831853072 0.069688960264 0.13304002361 0.19043743361 6.1990255847 0 0.07624511221 
0.14487585072 0.20642320337 0.26153055843 0.3108719077 0 0.084159722458 0.15900377685 0.22528907359 0.28391336087 
0.3357925689 0.38179159818 0.42269159155 5.8604937156 5.9723133995 5.901393709 6.0927478736 6.0216547488 5.9473927383 
6.2190157008 6.1501452836 6.0767621038 5.9992719463 0.064169606361 0 6.2134963469 6.1383094565 6.0578962336 
0.19043743361 0.13304002361 0.069688960264 6.2831853072 6.206940195 6.1241815303 0.3108719077 0.26153055843 0.20642320337 
0.14487585072 0.07624511221 6.2831853072 6.1990255847 0.42269159155 0.38179159818 0.3357925689 0.28391336087 0.22528907359 
0.15900377685 0.084159722458 0 5.6793730533 5.7091357773 5.5901633916 5.743164462 5.6152775188 5.4910209005 
5.7823484065 5.6444075337 5.5096229709 5.3824597928 5.8278025282 5.678536687 5.5314983644 5.3926039573 5.2659633393 
5.8809213739 5.718968232 5.5575666702 5.4046708639 5.2659633393 5.1440684722 5.9434319871 5.7674481418 5.5891129425 
5.4192596322 5.2659633393 5.1329233157 5.0201624502 6.0174235957 5.8263323547 5.6279784266 5.4372443565 5.2659633393 
5.1195510325 4.9978930058 4.8979782167 1.3852070904 1.2852923014 1.2630228569 1.1636342747 1.1502619915 1.139116835 
1.0172219679 1.0172219679 1.0172219679 1.0172219679 0.84594095064 0.86392567495 0.87851444325 0.89058134991 0.90072551443 
0.6552068806 0.69407236469 0.72561863695 0.75168694275 0.77356233629 0.79216440667 0.45685295248 0.51573716537 0.56421707518 
0.60464862014 0.63877777351 0.66790778838 0.69302191562 0.26576171152 0.33975332011 0.40226393329 0.45538277901 0.50083690068 
0.54002084522 0.57404952988 0.60381225391 
_paraPhiHalf 1 1002 double
0 3.1415926536 0 3.1415926536 1.5707963268 1.5707963268 1.5707963268 1.5707963268 2.5880182947 
0.5535743589 2.5880182947 0.5535743589 0 0 0 0 3.1415926536 3.1415926536 
3.1415926536 3.1415926536 3.1415926536 0.17788134 0.38438696014 0.60631181711 0.82323535693 1.0172219679 1.1799687454 
1.3118704726 1.4175000338 1.5022335207 0.17788134 0.38438696014 0.60631181711 0.82323535693 1.0172219679 1.1799687454 
1.3118704726 1.4175000338 1.5022335207 0.093902416448 0.17615329733 0.2478725152 0.31035131605 0.36486382811 0.41257334776 
0.45449736604 0.4915044461 0.52432611754 0.093902416448 0.17615329733 0.2478725152 0.31035131605 0.36486382811 0.41257334776 
0.45449736604 0.4915044461 0.52432611754 2.9637113136 2.7572056934 2.5352808365 2.3183572967 2.1243706857 1.9616239082 
1.829722181 1.7240926197 1.6393591329 2.9637113136 2.7572056934 2.5352808365 2.3183572967 2.1243706857 1.9616239082 
1.829722181 1.7240926197 1.6393591329 3.0476902371 2.9654393563 2.8937201384 2.8312413375 2.7767288255 2.7290193058 
2.6870952876 2.6500882075 2.617266536 3.0476902371 2.9654393563 2.8937201384 2.8312413375 2.7767288255 2.7290193058 
2.6870952876 2.6500882075 2.617266536 0 0 0 0 3.1415926536 3.1415926536 
3.1415926536 3.1415926536 3.1415926536 0.17788134 0.38438696014 0.60631181711 0.82323535693 1.0172219679 1.1799687454 
1.3118704726 1.4175000338 1.5022335207 0.17788134 0.38438696014 0.60631181711 0.82323535693 1.0172219679 1.1799687454 
1.3118704726 1.4175000338 1.5022335207 0.093902416448 0.17615329733 0.2478725152 0.31035131605 0.36486382811 0.41257334776 
0.45449736604 0.4915044461 0.52432611754 0.093902416448 0.17615329733 0.2478725152 0.31035131605 0.36486382811 0.41257334776 
0.45449736604 0.4915044461 0.52432611754 2.9637113136 2.7572056934 2.5352808365 2.3183572967 2.1243706857 1.9616239082 
1.829722181 1.7240926197 1.6393591329 2.9637113136 2.7572056934 2.5352808365 2.3183572967 2.1243706857 1.9616239082 
1.829722181 1.7240926197 1.6393591329 3.0476902371 2.9654393563 2.8937201384 2.8312413375 2.7767288255 2.7290193058 
2.6870952876 2.6500882075 2.617266536 3.0476902371 2.9654393563 2.8937201384 2.8312413375 2.7767288255 2.7290193058 
2.6870952876 2.6500882075 2.617266536 1.5707963268 1.5707963268 1.5707963268 1.5707963268 1.5707963268 1.5707963268 
1.5707963268 1.5707963268 1.5707963268 1.6743954455 1.7840462375 1.8974821136 2.0119052671 2.1243706857 2.232221744 
2.3334263672 2.426721652 2.5115728246 1.4671972081 1.3575464161 1.24411054 1.1296873865 1.0172219679 0.90937090954 
0.80816628637 0.71487100155 0.63001982895 1.6743954455 1.7840462375 1.8974821136 2.0119052671 2.1243706857 2.232221744 
2.3334263672 2.426721652 2.5115728246 1.4671972081 1.3575464161 1.24411054 1.1296873865 1.0172219679 0.90937090954 
0.80816628637 0.71487100155 0.63001982895 1.5707963268 1.5707963268 1.5707963268 1.5707963268 1.5707963268 1.5707963268 
1.5707963268 1.5707963268 1.5707963268 1.6743954455 1.7840462375 1.8974821136 2.0119052671 2.1243706857 2.232221744 
2.3334263672 2.426721652 2.5115728246 1.4671972081 1.3575464161 1.24411054 1.1296873865 1.0172219679 0.90937090954 
0.80816628637 0.71487100155 0.63001982895 1.6743954455 1.7840462375 1.8974821136 2.0119052671 2.1243706857 2.232221744 
2.3334263672 2.426721652 2.5115728246 1.4671972081 1.3575464161 1.24411054 1.1296873865 1.0172219679 0.90937090954 
0.80816628637 0.71487100155 0.63001982895 2.6824132222 2.7864913217 2.8992382033 3.0186096618 3.1415926536 3.0186096618 
2.8992382033 2.7864913217 2.6824132222 0.45917943135 0.35510133185 0.2423544503 0.12298299178 0 0.12298299178 
0.2423544503 0.35510133185 0.45917943135 0.22715816343 0.49462574053 0.3129712797 0.77059342779 0.68021497688 0.49462574053 
1.0172219679 1.0172219679 1.0172219679 1.0172219679 1.2156949949 1.271087727 1.3676273807 1.5707963268 2.1243706857 
1.3676273807 1.447813335 1.5707963268 1.7739652728 2.1243706857 2.6469669131 1.4827341049 1.5707963268 1.6937793186 
1.8705049266 2.1243706857 2.4613776767 2.8286213739 1.5707963268 1.6588585487 1.7739652728 1.9258976586 2.1243706857 
2.3709992258 2.6469669131 2.9144344902 0.26576171152 0.33975332011 0.45685295248 0.40226393329 0.51573716537 0.6552068806 
0.45538277901 0.56421707518 0.69407236469 0.84594095064 0.50083690068 0.60464862014 0.72561863695 0.86392567495 1.0172219679 
0.54002084522 0.63877777351 0.75168694275 0.87851444325 1.0172219679 1.1636342747 0.57404952988 0.66790778838 0.77356233629 
0.89058134991 1.0172219679 1.1502619915 1.2852923014 0.60381225391 0.69302191562 0.79216440667 0.90072551443 1.0172219679 
1.139116835 1.2630228569 1.3852070904 0.71487100155 0.80816628637 0.80816628637 0.90937090954 0.90937090954 0.90937090954 
1.0172219679 1.0172219679 1.0172219679 1.0172219679 1.1296873865 1.1296873865 1.1296873865 1.1296873865 1.1296873865 
1.24411054 1.24411054 1.24411054 1.24411054 1.24411054 1.24411054 1.3575464161 1.3575464161 1.3575464161 
1.3575464161 1.3575464161 1.3575464161 1.3575464161 1.4671972081 1.4671972081 1.4671972081 1.4671972081 1.4671972081 
1.4671972081 1.4671972081 1.4671972081 1.6743954455 1.6743954455 1.7840462375 1.6743954455 1.7840462375 1.8974821136 
1.6743954455 1.7840462375 1.8974821136 2.0119052671 1.6743954455 1.7840462375 1.8974821136 2.0119052671 2.1243706857 
1.6743954455 1.7840462375 1.8974821136 2.0119052671 2.1243706857 2.232221744 1.6743954455 1.7840462375 1.8974821136 
2.0119052671 2.1243706857 2.232221744 2.3334263672 1.6743954455 1.7840462375 1.8974821136 2.0119052671 2.1243706857 
2.232221744 2.3334263672 2.426721652 1.7563855631 1.8785697967 1.8563003522 2.0024758186 1.9913306621 1.9779583789 
2.1243706857 2.1243706857 2.1243706857 2.1243706857 2.2408671392 2.2510113037 2.2630782103 2.2776669786 2.295651703 
2.3494282469 2.3680303173 2.3899057108 2.4159740166 2.4475202889 2.486385773 2.448570738 2.4736848652 2.5028148801 
2.5369440334 2.5773755784 2.6258554882 2.6847397011 2.5377803997 2.5675431237 2.6015718084 2.6407557529 2.6862098746 
2.7393287203 2.8018393335 2.8758309421 2.718901062 2.8307207459 2.7598010554 2.95115522 2.8800620952 2.8058000847 
3.0774230472 3.00855263 2.9351694502 2.8576792927 3.0774230472 3.1415926536 3.0719036933 2.9967168029 2.91630358 
2.95115522 3.00855263 3.0719036933 3.1415926536 3.0653475414 2.9825888767 2.8307207459 2.8800620952 2.9351694502 
2.9967168029 3.0653475414 3.1415926536 3.0574329311 2.718901062 2.7598010554 2.8058000847 2.8576792927 2.91630358 
2.9825888767 3.0574329311 3.1415926536 2.718901062 2.7598010554 2.8307207459 2.8058000847 2.8800620952 2.95115522 
2.8576792927 2.9351694502 3.00855263 3.0774230472 2.91630358 2.9967168029 3.0719036933 3.1415926536 3.0774230472 
2.9825888767 3.0653475414 3.1415926536 3.0719036933 3.00855263 2.95115522 3.0574329311 3.1415926536 3.0653475414 